Title
82263
    1SAPS     N    1   3.724   1.550  10.859  0.3718  0.1166 -0.4011
    1SAPS   HN1    2   3.740   1.632  10.797 -0.7825 -0.3698 -1.3923
    1SAPS   HN2    3   3.642   1.500  10.819  0.5442 -0.6994  0.2300
    1SAPS   HN3    4   3.696   1.592  10.951  1.1818 -1.5331  0.6420
    1SAPS   C12    5   3.835   1.457  10.884 -0.4685  0.2767  0.2688
    1SAPS  H12A    6   3.883   1.431  10.791  0.7630 -1.4410  1.3114
    1SAPS   C13    7   3.952   1.515  10.970  0.2066 -0.0113 -0.4734
    1SAPS  O13A    8   3.949   1.631  11.011 -0.5504  0.4849  0.3235
    1SAPS  O13B    9   4.053   1.443  10.992 -0.1976 -0.8734 -0.6346
    1SAPS   C11   10   3.785   1.325  10.944  0.1796 -0.9952  0.0125
    1SAPS  H11A   11   3.719   1.346  11.031  2.1789 -1.2760  1.6713
    1SAPS  H11B   12   3.880   1.277  10.974  2.1669  2.0872 -0.8289
    1SAPS     P   13   3.567   1.241  10.837 -0.3852  0.0462 -0.1185
    1SAPS   O13   14   3.528   1.155  10.730 -0.2565  0.6243 -0.0612
    1SAPS   O14   15   3.525   1.193  10.971  0.3730  0.1622  0.0139
    1SAPS   O12   16   3.725   1.253  10.841 -0.0641 -0.1197  0.2553
    1SAPS   O11   17   3.509   1.387  10.822 -0.2586  0.2585  0.8611
    1SAPS    C1   18   3.369   1.403  10.783 -0.2618 -0.0161 -0.1034
    1SAPS    HA   19   3.311   1.313  10.815  0.9787 -0.6715  0.3903
    1SAPS    HB   20   3.326   1.489  10.838  0.8820 -1.1061  2.7190
    1SAPS    C2   21   3.362   1.453  10.634  0.2137  0.2416 -0.1867
    1SAPS    HS   22   3.254   1.459  10.607  0.1873  0.2539 -0.0761
    1SAPS   O21   23   3.432   1.373  10.545 -0.2316  0.1609  0.5321
    1SAPS   C21   24   3.372   1.272  10.483  0.7886  0.1604 -0.9794
    1SAPS   O22   25   3.252   1.244  10.498  0.6721 -0.0235  0.0987
    1SAPS   C22   26   3.472   1.194  10.402 -0.3791 -0.1629 -0.0176
    1SAPS   H2R   27   3.568   1.246  10.381 -1.1048  1.1560 -0.1724
    1SAPS   H2S   28   3.498   1.105  10.463  0.4198 -0.2891 -0.5369
    1SAPS    C3   29   3.409   1.602  10.619 -0.4420 -0.8176 -0.0750
    1SAPS    HX   30   3.517   1.622  10.636 -0.2665 -2.7799  1.5335
    1SAPS    HY   31   3.362   1.651  10.706 -2.0688 -0.6814 -0.9958
    1SAPS   O31   32   3.366   1.657  10.490  0.0685 -0.3025  0.8376
    1SAPS   C31   33   3.458   1.644  10.395 -0.4777 -0.5244 -0.2778
    1SAPS   O32   34   3.566   1.588  10.411  0.2532  0.3611 -0.2235
    1SAPS   C32   35   3.408   1.695  10.257  0.0486  1.0301 -0.0828
    1SAPS   H2X   36   3.431   1.612  10.187 -2.0167 -0.5718  1.0103
    1SAPS   H2Y   37   3.473   1.782  10.234 -0.5663  1.7520  0.8081
    1SAPS   C23   38   3.411   1.155  10.267  0.4197  0.2436  0.0670
    1SAPS   H3R   39   3.319   1.094  10.275  0.3376  0.2342 -0.8228
    1SAPS   H3S   40   3.475   1.077  10.221 -0.8427 -0.7180 -0.1022
    1SAPS   C24   41   3.389   1.268  10.163  0.1974 -0.0665 -0.9436
    1SAPS   H4R   42   3.415   1.231  10.061 -0.8366  1.1102 -1.6674
    1SAPS   H4S   43   3.469   1.335  10.201  2.4087 -1.7338 -2.3931
    1SAPS   C25   44   3.251   1.328  10.172 -0.2175  0.1865 -0.5422
    1SAPS   H5R   45   3.207   1.334  10.273 -1.2730 -0.3587 -0.9535
    1SAPS   C26   46   3.170   1.360  10.070 -0.5827  0.6691  0.1491
    1SAPS   H6R   47   3.070   1.402  10.091 -1.3406 -1.7475  1.6542
    1SAPS   C27   48   3.204   1.336   9.928 -0.2557  0.4395 -0.2984
    1SAPS   H7R   49   3.245   1.235   9.904 -0.9231 -0.2270  1.2412
    1SAPS   H7S   50   3.276   1.416   9.901 -1.0677  1.2334 -0.1809
    1SAPS   C28   51   3.090   1.345   9.832  0.4176  0.1290  1.0392
    1SAPS   H8R   52   3.007   1.275   9.850 -0.0326  1.3405  4.2678
    1SAPS   C29   53   3.092   1.432   9.721  0.2154  0.7729 -0.0688
    1SAPS   H9R   54   3.009   1.427   9.648  0.2702  1.0638 -0.1503
    1SAPS  C210   55   3.194   1.536   9.672  0.1984  0.3488  0.2555
    1SAPS  H10R   56   3.270   1.500   9.600  1.1145 -1.3647  1.9907
    1SAPS  H10S   57   3.263   1.572   9.752  1.9651 -0.9713 -0.5885
    1SAPS  C211   58   3.127   1.656   9.614  0.2746 -0.6646 -0.1865
    1SAPS  H11R   59   3.117   1.746   9.677 -0.8929 -0.2453 -0.9440
    1SAPS  C212   60   3.077   1.671   9.491 -0.1188  1.0269 -0.5020
    1SAPS  H12R   61   3.035   1.769   9.464 -0.2268  1.2314  0.3692
    1SAPS  C213   62   3.072   1.576   9.370  0.0472  0.7797 -0.1183
    1SAPS  H13R   63   2.967   1.577   9.335 -0.4913  1.1463  1.4667
    1SAPS  H13S   64   3.083   1.471   9.405 -0.8025 -0.1849 -2.5560
    1SAPS  C214   65   3.159   1.614   9.254  0.3185  0.3470  0.3844
    1SAPS  H14R   66   3.261   1.647   9.279  0.3463  1.3021 -0.8639
    1SAPS  C215   67   3.123   1.628   9.120 -0.4969 -0.4483  0.1216
    1SAPS  H15R   68   3.205   1.644   9.048  0.8296  0.2214  1.7042
    1SAPS  C216   69   2.986   1.607   9.072  0.3194 -0.5554  0.6592
    1SAPS  H16R   70   2.940   1.532   9.141  1.5086 -1.0574  0.9296
    1SAPS  H16S   71   2.983   1.587   8.963  0.4262  0.4801  0.4605
    1SAPS  C217   72   2.914   1.749   9.085 -0.2718 -0.2534  0.0352
    1SAPS  H17R   73   2.938   1.785   9.187 -1.2407  3.8314 -1.0262
    1SAPS  H17S   74   2.805   1.744   9.064 -0.6253  0.2320  1.6039
    1SAPS  C218   75   2.972   1.853   8.985  0.1569  0.3311 -0.3227
    1SAPS  H18R   76   2.950   1.820   8.881  2.4477 -2.5632 -0.0222
    1SAPS  H18S   77   3.081   1.850   9.004 -0.0619  2.2312  1.7554
    1SAPS  C219   78   2.923   1.991   9.012 -0.1342 -0.1431  0.2260
    1SAPS  H19R   79   2.939   2.004   9.122  1.1153 -2.4667  0.3824
    1SAPS  H19S   80   2.814   1.995   8.993 -0.0445  0.6619 -0.1836
    1SAPS  C220   81   2.991   2.107   8.938 -0.3706  0.2255  0.0870
    1SAPS  H20R   82   2.948   2.118   8.836  1.3731 -0.2666 -0.7423
    1SAPS  H20S   83   3.098   2.088   8.915 -0.9394 -0.1325 -2.6469
    1SAPS  H20T   84   2.979   2.198   9.000 -1.2908  0.1702  0.0121
    1SAPS   C33   85   3.255   1.722  10.239  0.7485  0.1751  0.3027
    1SAPS   H3X   86   3.227   1.809  10.303  1.7219  0.0808  0.8872
    1SAPS   H3Y   87   3.188   1.639  10.270 -0.8918  1.1080 -0.6343
    1SAPS   C34   88   3.222   1.751  10.092 -0.1845 -0.4065  0.1941
    1SAPS   H4X   89   3.249   1.666  10.026 -1.9581  0.2522 -1.4815
    1SAPS   H4Y   90   3.275   1.843  10.059 -0.2331 -0.1977  0.6882
    1SAPS   C35   91   3.075   1.781  10.067  0.0760  0.3710 -0.2583
    1SAPS   H5X   92   3.073   1.884  10.108  1.2824 -0.2898  1.6326
    1SAPS   H5Y   93   3.015   1.720  10.138  1.4283  0.1820  0.7641
    1SAPS   C36   94   3.034   1.758   9.926  0.7816 -0.1220 -0.1897
    1SAPS   H6X   95   3.038   1.649   9.903 -0.6822 -0.1203 -0.5436
    1SAPS   H6Y   96   3.106   1.807   9.857  0.6731  1.5391  0.8357
    1SAPS   C37   97   2.886   1.799   9.898 -0.7639  0.0544  0.2678
    1SAPS   H7X   98   2.828   1.739   9.971  0.8809  0.7859  2.2879
    1SAPS   H7Y   99   2.846   1.748   9.808 -1.5879  1.3045 -0.0977
    1SAPS   C38  100   2.848   1.947   9.912 -0.1727 -0.2645 -0.1657
    1SAPS   H8X  101   2.934   2.005   9.874  0.6703  0.7426  2.9991
    1SAPS   H8Y  102   2.845   1.983  10.017  0.7701  2.5792 -1.0167
    1SAPS   C39  103   2.711   1.990   9.852 -0.0997  0.3582 -0.6411
    1SAPS   H9X  104   2.702   2.101   9.846  0.0388  0.5800  2.1408
    1SAPS   H9Y  105   2.649   1.946   9.932  1.8592 -1.0513  0.1873
    1SAPS  C310  106   2.670   1.936   9.721  0.5790  0.4039  0.1058
    1SAPS  H10X  107   2.559   1.928   9.721  0.7183 -2.6928  0.4275
    1SAPS  H10Y  108   2.712   1.834   9.705 -0.7440 -0.1432 -0.0016
    1SAPS  C311  109   2.728   2.015   9.600  0.5354  0.6104 -0.2865
    1SAPS  H11X  110   2.834   2.032   9.632  0.3116 -0.6950  1.3395
    1SAPS  H11Y  111   2.679   2.113   9.589 -0.8817  0.0321  0.6145
    1SAPS  C312  112   2.734   1.925   9.478  0.2847 -0.0314  0.1372
    1SAPS  H12X  113   2.762   1.820   9.504  1.0296  0.5584  1.9211
    1SAPS  H12Y  114   2.821   1.964   9.421  0.7740 -0.3156  0.6864
    1SAPS  C313  115   2.604   1.925   9.392 -0.2360 -0.4942 -0.5348
    1SAPS  H13X  116   2.599   2.033   9.368  0.7194 -0.1783  0.5494
    1SAPS  H13Y  117   2.520   1.903   9.461 -0.4244 -0.7292 -0.8394
    1SAPS  C314  118   2.590   1.840   9.265 -0.1418  0.0979 -0.3800
    1SAPS  H14X  119   2.558   1.738   9.294  2.4489 -0.7236 -0.1512
    1SAPS  H14Y  120   2.694   1.823   9.228 -0.0985 -1.5345  0.3969
    1SAPS  C315  121   2.498   1.905   9.159 -0.0538 -0.0153  0.0257
    1SAPS  H15X  122   2.538   2.006   9.133  0.8711 -0.1311  0.9034
    1SAPS  H15Y  123   2.400   1.922   9.209  1.6182  2.4997  2.8416
    1SAPS  C316  124   2.494   1.815   9.036  0.4798 -0.0442 -0.0794
    1SAPS  H16X  125   2.431   1.725   9.051  2.6760 -1.7304 -0.4672
    1SAPS  H16Y  126   2.597   1.774   9.025 -0.1559 -1.1663 -2.7835
    1SAPS  C317  127   2.461   1.882   8.903  0.2714  0.6414 -0.5880
    1SAPS  H17X  128   2.524   1.973   8.893 -0.9221  1.6141  0.4751
    1SAPS  H17Y  129   2.356   1.917   8.903 -0.5585 -1.6828 -0.1650
    1SAPS  C318  130   2.486   1.794   8.777  0.8742  0.0491 -0.6452
    1SAPS  H18X  131   2.588   1.752   8.772  1.2595  0.8694  0.1237
    1SAPS  H18Y  132   2.466   1.850   8.683 -1.9687  1.4558  0.6620
    1SAPS  H18Z  133   2.412   1.712   8.782  0.9810 -0.0329 -0.3880
    2SAPS     N  134   0.607   5.874  10.700  0.0119  0.1212  0.3267
    2SAPS   HN1  135   0.691   5.911  10.651  2.0699 -1.2817  2.5670
    2SAPS   HN2  136   0.559   5.823  10.623 -0.1078  1.6027 -0.6309
    2SAPS   HN3  137   0.538   5.945  10.730 -1.5434 -1.9180  1.8665
    2SAPS   C12  138   0.654   5.785  10.808 -0.5056  0.2163 -0.1405
    2SAPS  H12A  139   0.719   5.711  10.763  0.5596  0.7824  0.4388
    2SAPS   C13  140   0.746   5.853  10.919  0.8095 -0.6385  0.1834
    2SAPS  O13A  141   0.757   5.976  10.920  0.2594  0.8859 -0.2291
    2SAPS  O13B  142   0.808   5.783  10.997  0.2849  0.2599 -0.3153
    2SAPS   C11  143   0.532   5.721  10.881  0.0605  0.8478  0.4191
    2SAPS  H11A  144   0.485   5.802  10.940 -0.9961 -0.0958  0.9161
    2SAPS  H11B  145   0.576   5.651  10.955 -0.6605 -1.2777 -1.0605
    2SAPS     P  146   0.420   5.495  10.788  0.4828 -0.5107  0.3151
    2SAPS   O13  147   0.502   5.436  10.896 -0.7138 -0.6063 -0.2845
    2SAPS   O14  148   0.273   5.470  10.785 -0.1318 -0.0836 -0.3045
    2SAPS   O12  149   0.439   5.655  10.793  0.0844  0.0330 -0.2669
    2SAPS   O11  150   0.490   5.459  10.646 -0.2658 -1.0347  0.4056
    2SAPS    C1  151   0.594   5.364  10.643 -0.1563  0.1535  0.2867
    2SAPS    HA  152   0.661   5.372  10.731 -0.1155 -0.6666  0.3402
    2SAPS    HB  153   0.549   5.262  10.638  2.3672 -1.0433  0.6434
    2SAPS    C2  154   0.690   5.376  10.521  0.2639 -0.2958 -0.1713
    2SAPS    HS  155   0.719   5.484  10.517  0.7946 -0.2746  2.7411
    2SAPS   O21  156   0.620   5.334  10.405 -0.0950 -0.3049 -0.1410
    2SAPS   C21  157   0.612   5.418  10.307  0.0114  0.5550 -0.4266
    2SAPS   O22  158   0.672   5.522  10.294 -0.5706 -0.0728 -0.3741
    2SAPS   C22  159   0.504   5.356  10.214  0.4415  0.2657  0.1908
    2SAPS   H2R  160   0.525   5.247  10.218 -1.2339 -0.0654  0.4461
    2SAPS   H2S  161   0.407   5.377  10.263  1.0244  1.7630  0.7685
    2SAPS    C3  162   0.831   5.311  10.532  0.1702  0.1644  0.5217
    2SAPS    HX  163   0.811   5.202  10.538  2.5777 -0.5467 -2.1581
    2SAPS    HY  164   0.894   5.335  10.620  0.3204  1.2172  0.1401
    2SAPS   O31  165   0.909   5.330  10.403  0.2146  0.6080 -0.7409
    2SAPS   C31  166   0.979   5.439  10.404 -0.3838 -0.5460  0.3123
    2SAPS   O32  167   0.976   5.528  10.487  0.0873  0.3554  0.3870
    2SAPS   C32  168   1.072   5.453  10.280 -0.1313 -0.4741  0.7341
    2SAPS   H2X  169   1.145   5.371  10.292  1.7125  0.9740  0.0667
    2SAPS   H2Y  170   1.137   5.544  10.281 -0.8901  0.0769  1.2360
    2SAPS   C23  171   0.509   5.419  10.073  0.5158  0.1503 -0.7059
    2SAPS   H3R  172   0.505   5.529  10.082  0.6647  0.0551  0.8180
    2SAPS   H3S  173   0.418   5.386  10.017 -0.5188 -0.6911  1.3654
    2SAPS   C24  174   0.622   5.370   9.983 -0.5309 -0.1670  0.3984
    2SAPS   H4R  175   0.719   5.415  10.015  0.1836 -1.1134 -0.3767
    2SAPS   H4S  176   0.594   5.423   9.889 -0.7200  1.3863  1.2883
    2SAPS   C25  177   0.629   5.214   9.966 -0.3661 -1.1228 -0.1709
    2SAPS   H5R  178   0.682   5.152  10.041  1.1323 -1.2728 -1.3199
    2SAPS   C26  179   0.581   5.141   9.865  0.2716 -0.0053 -0.3365
    2SAPS   H6R  180   0.603   5.033   9.861  1.9165  0.1563  2.0859
    2SAPS   C27  181   0.503   5.194   9.747 -1.0780  1.0297 -0.9678
    2SAPS   H7R  182   0.435   5.274   9.784 -0.1645  0.6882  1.6506
    2SAPS   H7S  183   0.434   5.117   9.705  0.8643 -0.9479 -0.7308
    2SAPS   C28  184   0.591   5.251   9.639  0.4747 -0.6045  0.2848
    2SAPS   H8R  185   0.654   5.332   9.679 -0.4331  0.2563  0.0165
    2SAPS   C29  186   0.620   5.212   9.515  0.2460  0.2048 -0.2280
    2SAPS   H9R  187   0.693   5.274   9.461  0.8747  1.3383  1.8066
    2SAPS  C210  188   0.568   5.088   9.456  0.0726  0.3741  0.2697
    2SAPS  H10R  189   0.481   5.038   9.504 -0.4947 -1.6209 -2.5615
    2SAPS  H10S  190   0.653   5.017   9.456  0.3710  0.7192  1.4530
    2SAPS  C211  191   0.508   5.112   9.317  0.7648  0.0304  0.1351
    2SAPS  H11R  192   0.399   5.103   9.310  0.4877  2.0854  1.1175
    2SAPS  C212  193   0.579   5.137   9.205 -0.3372 -0.6556 -0.1490
    2SAPS  H12R  194   0.529   5.157   9.109 -0.5028 -1.7293 -0.3008
    2SAPS  C213  195   0.731   5.150   9.208  0.2786  0.5726 -0.3593
    2SAPS  H13R  196   0.768   5.061   9.265 -0.6506 -1.7186 -3.1057
    2SAPS  H13S  197   0.760   5.239   9.268 -0.0906  0.8736 -0.6247
    2SAPS  C214  198   0.807   5.143   9.078 -0.9150 -0.0462 -0.0317
    2SAPS  H14R  199   0.853   5.046   9.053 -0.0047 -0.2818  2.3624
    2SAPS  C215  200   0.825   5.237   8.986 -0.4083  0.2616  0.2343
    2SAPS  H15R  201   0.888   5.217   8.899 -0.6222 -1.1574  0.3763
    2SAPS  C216  202   0.774   5.375   9.002 -0.1615 -0.4564  0.1070
    2SAPS  H16R  203   0.729   5.399   9.101  0.3921 -1.9258  0.7452
    2SAPS  H16S  204   0.692   5.406   8.934  0.6751  1.7279 -0.0034
    2SAPS  C217  205   0.892   5.470   8.979 -0.6922 -1.0742  0.0858
    2SAPS  H17R  206   0.936   5.458   8.878 -1.4168 -1.0630 -0.2405
    2SAPS  H17S  207   0.978   5.450   9.046  0.2048  1.8587 -0.0548
    2SAPS  C218  208   0.858   5.620   8.985 -0.6022 -0.2440  0.7158
    2SAPS  H18R  209   0.755   5.633   8.946 -1.1745  0.0610  2.2686
    2SAPS  H18S  210   0.932   5.658   8.911 -0.7003 -0.7390  0.3571
    2SAPS  C219  211   0.894   5.686   9.113  0.2501 -0.6786 -0.1387
    2SAPS  H19R  212   0.863   5.793   9.120  1.6049 -0.2919  0.4584
    2SAPS  H19S  213   1.004   5.674   9.123  0.3456  0.4535  0.4576
    2SAPS  C220  214   0.825   5.616   9.227 -0.1757 -0.3045  0.1759
    2SAPS  H20R  215   0.716   5.608   9.206 -0.3520  0.4967  0.7467
    2SAPS  H20S  216   0.834   5.674   9.321  1.0387 -1.3408  0.7412
    2SAPS  H20T  217   0.859   5.514   9.257 -3.4282 -1.1420  1.4079
    2SAPS   C33  218   1.003   5.465  10.139  1.2647  0.7274 -0.6264
    2SAPS   H3X  219   0.978   5.572  10.124 -0.9935  0.6658  1.9082
    2SAPS   H3Y  220   0.917   5.394  10.136  3.1364 -1.7542  0.9314
    2SAPS   C34  221   1.094   5.433  10.023  0.2399  0.4326 -0.0217
    2SAPS   H4X  222   1.136   5.332  10.045  0.6877  0.8871  1.2829
    2SAPS   H4Y  223   1.183   5.499  10.021  1.6228 -1.3582 -0.4217
    2SAPS   C35  224   1.017   5.436   9.892 -0.2292 -1.4469  0.3050
    2SAPS   H5X  225   0.962   5.532   9.891  0.2523 -1.1742 -0.4568
    2SAPS   H5Y  226   0.929   5.368   9.890 -1.8666  0.5887 -0.4737
    2SAPS   C36  227   1.091   5.416   9.760 -0.5432 -0.1716 -0.6264
    2SAPS   H6X  228   1.023   5.433   9.674 -0.0659  2.3374 -0.5843
    2SAPS   H6Y  229   1.118   5.308   9.763  0.5785  0.0904  2.6755
    2SAPS   C37  230   1.220   5.504   9.737  0.7540  0.0889 -0.5763
    2SAPS   H7X  231   1.295   5.477   9.814 -0.2154 -0.6306  0.1322
    2SAPS   H7Y  232   1.184   5.604   9.769  0.9482 -0.6027  1.9636
    2SAPS   C38  233   1.276   5.488   9.595 -0.2114  0.5879  0.2573
    2SAPS   H8X  234   1.308   5.384   9.576  0.0922  0.8899 -0.9599
    2SAPS   H8Y  235   1.369   5.548   9.590  1.4546 -1.5860  2.6026
    2SAPS   C39  236   1.191   5.530   9.474  0.4497 -0.2729 -0.5732
    2SAPS   H9X  237   1.147   5.629   9.498  0.4687 -0.8414  2.2331
    2SAPS   H9Y  238   1.109   5.454   9.480 -1.0945  1.4529  2.1977
    2SAPS  C310  239   1.251   5.526   9.326 -0.3090  0.2356 -0.6481
    2SAPS  H10X  240   1.319   5.613   9.316 -0.7698  0.7084  0.1946
    2SAPS  H10Y  241   1.161   5.519   9.262 -0.2936 -0.7047 -0.5724
    2SAPS  C311  242   1.339   5.399   9.296  0.8222  0.7133 -0.0027
    2SAPS  H11X  243   1.267   5.314   9.299  1.9291 -0.2232  1.1098
    2SAPS  H11Y  244   1.420   5.395   9.371  0.4887  2.1473  0.4776
    2SAPS  C312  245   1.422   5.394   9.163  0.1141 -0.3008 -0.1061
    2SAPS  H12X  246   1.484   5.303   9.155 -0.6237 -0.8086 -0.1287
    2SAPS  H12Y  247   1.496   5.476   9.178  1.0900 -1.6482  3.5763
    2SAPS  C313  248   1.341   5.404   9.035 -0.1395 -0.4287 -0.3151
    2SAPS  H13X  249   1.310   5.509   9.014 -0.2104 -0.4207 -0.1690
    2SAPS  H13Y  250   1.245   5.353   9.059  0.1375  0.2566  2.5979
    2SAPS  C314  251   1.413   5.329   8.920  0.1020 -0.3821  0.4080
    2SAPS  H14X  252   1.446   5.236   8.970  0.5929 -0.9174 -0.8892
    2SAPS  H14Y  253   1.499   5.390   8.885 -1.1247  1.1543 -0.0406
    2SAPS  C315  254   1.327   5.302   8.795 -0.4965  1.1185  0.3161
    2SAPS  H15X  255   1.280   5.398   8.768  0.0755  1.7354  1.4345
    2SAPS  H15Y  256   1.244   5.233   8.824 -1.8168  1.7709 -1.6780
    2SAPS  C316  257   1.393   5.243   8.666  0.3919 -0.0004 -0.0641
    2SAPS  H16X  258   1.449   5.151   8.693  0.0917 -0.3569 -0.6443
    2SAPS  H16Y  259   1.467   5.313   8.622  0.1229 -0.6611 -1.6302
    2SAPS  C317  260   1.309   5.216   8.540 -0.0642  0.5298 -0.0350
    2SAPS  H17X  261   1.374   5.174   8.460  2.2259  0.7286  1.6277
    2SAPS  H17Y  262   1.264   5.311   8.504  0.5537  1.3122  1.1994
    2SAPS  C318  263   1.203   5.114   8.570 -0.2862 -0.1297 -0.9236
    2SAPS  H18X  264   1.131   5.158   8.643  0.3690  0.2403 -0.4883
    2SAPS  H18Y  265   1.266   5.029   8.605  2.6071  2.2386  0.0969
    2SAPS  H18Z  266   1.155   5.082   8.475 -1.4665 -0.0741 -0.3626
    3SAPS     N  267   3.207   1.298  11.155 -0.1719  0.1822 -0.0299
    3SAPS   HN1  268   3.169   1.273  11.062 -0.0809 -0.7476  0.1720
    3SAPS   HN2  269   3.310   1.311  11.141 -0.3720 -0.4880 -2.8475
    3SAPS   HN3  270   3.178   1.229  11.227  0.5489  0.2781  0.3611
    3SAPS   C12  271   3.153   1.426  11.190 -0.0979  0.8818  0.1328
    3SAPS  H12A  272   3.048   1.417  11.213 -0.1285  0.7863 -0.0424
    3SAPS   C13  273   3.216   1.477  11.318 -0.2411 -0.4599 -0.1822
    3SAPS  O13A  274   3.290   1.402  11.393 -0.1474  0.4824  0.6578
    3SAPS  O13B  275   3.183   1.591  11.360  0.0857  1.0109 -0.0892
    3SAPS   C11  276   3.172   1.529  11.077  0.6596  0.0927  0.1093
    3SAPS  H11A  277   3.282   1.542  11.063  0.3735 -0.7565 -4.0135
    3SAPS  H11B  278   3.123   1.627  11.094 -4.0528 -2.1926  1.2416
    3SAPS     P  279   2.982   1.504  10.893 -0.1266  0.0006  0.1302
    3SAPS   O13  280   2.983   1.470  10.754 -0.3538 -0.8840 -0.0640
    3SAPS   O14  281   2.867   1.449  10.968  0.8634  0.6522 -0.4659
    3SAPS   O12  282   3.122   1.463  10.960 -0.5046 -0.3765  0.0108
    3SAPS   O11  283   2.971   1.666  10.908 -0.0532 -0.9085 -0.0642
    3SAPS    C1  284   3.081   1.754  10.854 -0.0154 -0.0518 -0.1651
    3SAPS    HA  285   3.125   1.803  10.943 -1.4445 -0.7631  0.9971
    3SAPS    HB  286   3.161   1.684  10.822  0.7342 -0.7642  2.9282
    3SAPS    C2  287   3.046   1.856  10.742 -0.2356  0.0570 -0.1984
    3SAPS    HS  288   2.957   1.917  10.767 -0.1130  0.1985 -0.1026
    3SAPS   O21  289   3.040   1.793  10.612  0.0620  0.2952 -0.0261
    3SAPS   C21  290   2.923   1.732  10.598 -0.7867  0.1287  0.9348
    3SAPS   O22  291   2.820   1.745  10.662 -0.3195  0.2249 -0.3860
    3SAPS   C22  292   2.932   1.648  10.474 -0.2567  0.3549  0.4487
    3SAPS   H2R  293   2.960   1.714  10.389 -0.2310 -1.9585 -1.4386
    3SAPS   H2S  294   3.009   1.573  10.501 -0.8571 -0.4335  0.0319
    3SAPS    C3  295   3.162   1.966  10.727  0.5477 -0.6430  0.0026
    3SAPS    HX  296   3.251   1.907  10.697  0.1658 -1.6771  0.8245
    3SAPS    HY  297   3.185   2.018  10.822  1.9997  0.9409 -1.1518
    3SAPS   O31  298   3.129   2.066  10.633  0.7197  0.0055 -0.0940
    3SAPS   C31  299   3.065   2.176  10.678 -0.1763  0.5315  0.7020
    3SAPS   O32  300   3.052   2.211  10.792 -0.1156  0.5789  0.2935
    3SAPS   C32  301   3.020   2.270  10.565 -0.3115  0.3827 -0.7091
    3SAPS   H2X  302   3.081   2.239  10.478 -2.7074 -3.4920 -1.2659
    3SAPS   H2Y  303   3.035   2.378  10.585 -2.5754  0.8472 -1.1978
    3SAPS   C23  304   2.803   1.578  10.429 -0.5561 -0.4563 -0.1343
    3SAPS   H3R  305   2.723   1.655  10.432  1.2092  1.4439  1.5676
    3SAPS   H3S  306   2.781   1.505  10.510  0.5159 -0.3272  0.2855
    3SAPS   C24  307   2.808   1.503  10.294 -0.2693  0.2079  0.7028
    3SAPS   H4R  308   2.882   1.424  10.319  0.4452  0.2058 -1.2209
    3SAPS   H4S  309   2.853   1.572  10.220 -0.9702 -0.6594 -0.5566
    3SAPS   C25  310   2.691   1.434  10.241  0.0423  0.5211  0.6719
    3SAPS   H5R  311   2.673   1.334  10.284 -1.3464  0.2652 -0.4136
    3SAPS   C26  312   2.589   1.477  10.161 -0.5548 -0.3638 -0.4802
    3SAPS   H6R  313   2.511   1.408  10.125 -2.2780  1.0187  0.4915
    3SAPS   C27  314   2.580   1.612  10.095 -0.0362  0.0590 -0.1818
    3SAPS   H7R  315   2.567   1.602   9.985 -0.5198  0.7199 -0.1907
    3SAPS   H7S  316   2.663   1.686  10.107 -1.0231  1.0548  0.7039
    3SAPS   C28  317   2.462   1.696  10.140  0.0798  0.0594  0.1819
    3SAPS   H8R  318   2.365   1.660  10.102 -0.6299  1.1845  0.8776
    3SAPS   C29  319   2.455   1.817  10.190  0.0288 -0.1482 -0.0632
    3SAPS   H9R  320   2.355   1.857  10.216 -0.8306 -2.2050  0.0083
    3SAPS  C210  321   2.578   1.901  10.234  0.3516 -0.4490 -0.2327
    3SAPS  H10R  322   2.661   1.894  10.160  0.3173  1.7224 -0.5527
    3SAPS  H10S  323   2.617   1.860  10.329 -0.4516  1.5586  1.0291
    3SAPS  C211  324   2.565   2.051  10.270 -0.0439  0.6315 -0.5585
    3SAPS  H11R  325   2.609   2.073  10.368 -0.0960 -2.7288  0.3216
    3SAPS  C212  326   2.513   2.150  10.195  0.2506  0.4820 -0.3974
    3SAPS  H12R  327   2.501   2.245  10.249 -1.9055  1.3377 -2.2358
    3SAPS  C213  328   2.445   2.136  10.062 -0.4133  0.1742 -0.4584
    3SAPS  H13R  329   2.372   2.052  10.066 -0.5782  0.3247 -0.2735
    3SAPS  H13S  330   2.516   2.112   9.980  1.1267  2.3139  0.1859
    3SAPS  C214  331   2.376   2.258  10.017  1.4132 -0.7644 -0.5113
    3SAPS  H14R  332   2.362   2.332  10.097  2.0944 -2.5516  1.3289
    3SAPS  C215  333   2.358   2.295   9.886  0.6297 -0.7302 -0.7702
    3SAPS  H15R  334   2.296   2.386   9.874 -2.0690 -2.4552 -0.8598
    3SAPS  C216  335   2.377   2.223   9.756  0.3667  0.0312 -1.1585
    3SAPS  H16R  336   2.387   2.114   9.774  1.3413  0.5475  2.1449
    3SAPS  H16S  337   2.468   2.255   9.700  1.2343 -1.4659 -0.6637
    3SAPS  C217  338   2.246   2.228   9.673  1.1622 -0.0415  0.1262
    3SAPS  H17R  339   2.231   2.331   9.633  2.5839  0.0227 -0.2863
    3SAPS  H17S  340   2.167   2.197   9.745 -0.9546  1.4739 -1.3886
    3SAPS  C218  341   2.248   2.132   9.556  0.0494 -0.0819  0.3526
    3SAPS  H18R  342   2.290   2.034   9.587 -1.4409 -0.5527  1.0109
    3SAPS  H18S  343   2.317   2.178   9.483  1.8781 -0.2869  1.8830
    3SAPS  C219  344   2.119   2.105   9.485  0.8308  0.5294  0.4030
    3SAPS  H19R  345   2.143   2.042   9.397  1.1954  0.2849  0.6748
    3SAPS  H19S  346   2.077   2.204   9.460  0.3915  0.4121  0.6647
    3SAPS  C220  347   2.012   2.033   9.562 -0.6992 -0.4685  0.1102
    3SAPS  H20R  348   1.989   2.083   9.659 -0.5084  1.0370 -0.5926
    3SAPS  H20S  349   2.053   1.931   9.578 -0.3804 -0.2531  0.6851
    3SAPS  H20T  350   1.919   2.025   9.501 -0.6453 -0.7288  0.0579
    3SAPS   C33  351   2.880   2.239  10.519  0.2771  0.3849 -0.3313
    3SAPS   H3X  352   2.809   2.274  10.597  1.7254  1.5293  0.5325
    3SAPS   H3Y  353   2.851   2.132  10.523  1.0911  0.1864  0.8911
    3SAPS   C34  354   2.833   2.307  10.392  0.0609  0.0596 -0.2817
    3SAPS   H4X  355   2.871   2.412  10.389  0.5280 -0.0765  0.6931
    3SAPS   H4Y  356   2.722   2.305  10.387  0.0631 -1.0934 -0.1416
    3SAPS   C35  357   2.890   2.245  10.265 -0.1311 -0.3461  0.0966
    3SAPS   H5X  358   2.827   2.156  10.245  0.5367 -1.2113  1.6954
    3SAPS   H5Y  359   2.996   2.221  10.285  0.1199  1.3639  1.0386
    3SAPS   C36  360   2.886   2.349  10.153  0.1786  0.3778 -0.0729
    3SAPS   H6X  361   2.947   2.435  10.187  3.6658 -0.9148 -2.5774
    3SAPS   H6Y  362   2.778   2.374  10.139  0.0491 -0.6174 -1.0062
    3SAPS   C37  363   2.937   2.299  10.019  0.8270  0.0817 -0.6761
    3SAPS   H7X  364   2.900   2.195  10.009  2.1104 -0.5419  0.7316
    3SAPS   H7Y  365   3.048   2.295  10.022  0.8168  0.0835 -0.2202
    3SAPS   C38  366   2.889   2.395   9.910 -0.7857  0.0435 -0.1033
    3SAPS   H8X  367   2.942   2.490   9.930  3.1800 -1.6373 -1.6764
    3SAPS   H8Y  368   2.778   2.408   9.914 -0.9698 -1.5326  2.0511
    3SAPS   C39  369   2.927   2.354   9.761  1.0695  0.2141 -0.1284
    3SAPS   H9X  370   2.897   2.248   9.746 -0.0187  0.7529 -2.2164
    3SAPS   H9Y  371   3.035   2.373   9.748  1.6962 -2.2103  0.8951
    3SAPS  C310  372   2.846   2.436   9.659 -0.0815 -0.0884  0.7344
    3SAPS  H10X  373   2.868   2.545   9.662  0.8679 -0.2876  1.9345
    3SAPS  H10Y  374   2.742   2.404   9.681  0.1056 -2.1989 -1.0623
    3SAPS  C311  375   2.878   2.387   9.521 -0.8763  0.4940 -0.6627
    3SAPS  H11X  376   2.858   2.278   9.522  1.8197 -0.0855 -0.4345
    3SAPS  H11Y  377   2.986   2.405   9.499 -0.9981 -0.2768 -1.9452
    3SAPS  C312  378   2.800   2.452   9.406  0.0967 -0.3723 -0.1564
    3SAPS  H12X  379   2.806   2.562   9.421  1.4251 -0.5747  0.9229
    3SAPS  H12Y  380   2.691   2.430   9.414  0.2260 -1.1532 -0.3959
    3SAPS  C313  381   2.859   2.420   9.261  0.3298 -0.8783 -0.1214
    3SAPS  H13X  382   2.844   2.310   9.248 -1.1707 -0.6329 -0.6278
    3SAPS  H13Y  383   2.965   2.453   9.256  0.0129  0.2313  0.2907
    3SAPS  C314  384   2.782   2.495   9.156  0.4395  0.6462  0.2709
    3SAPS  H14X  385   2.789   2.602   9.185 -3.1981  0.6415  1.6624
    3SAPS  H14Y  386   2.674   2.470   9.160  0.9332 -1.7094  0.7977
    3SAPS  C315  387   2.825   2.471   9.005  0.6696  0.4962 -1.0034
    3SAPS  H15X  388   2.844   2.362   8.997  0.9254  0.4170  0.4260
    3SAPS  H15Y  389   2.923   2.521   8.992  0.1436  2.1339  0.9332
    3SAPS  C316  390   2.717   2.519   8.903 -0.5173 -0.3509  0.2669
    3SAPS  H16X  391   2.759   2.490   8.804  3.6974 -1.1397  2.0590
    3SAPS  H16Y  392   2.709   2.630   8.912 -0.9747 -0.2671 -0.9122
    3SAPS  C317  393   2.581   2.448   8.915 -0.0978 -0.4819  0.2350
    3SAPS  H17X  394   2.525   2.481   8.825  0.8730 -0.0259 -0.2095
    3SAPS  H17Y  395   2.524   2.495   8.999  1.9685  0.5088  1.1578
    3SAPS  C318  396   2.590   2.295   8.925 -0.4639 -0.2250 -0.7378
    3SAPS  H18X  397   2.512   2.244   8.865  1.3542 -2.9959 -0.9109
    3SAPS  H18Y  398   2.585   2.267   9.033  0.8527  1.5131 -0.1815
    3SAPS  H18Z  399   2.686   2.254   8.889  0.2381  1.7913 -1.2932
    4SAPS     N  400   3.940   1.879  11.092 -0.0627  0.3521  0.1375
    4SAPS   HN1  401   3.978   1.919  11.180  1.1191 -1.6695  0.5905
    4SAPS   HN2  402   3.836   1.882  11.090 -0.0596  0.7502 -2.2048
    4SAPS   HN3  403   3.974   1.782  11.083 -2.1664 -0.3766 -0.6684
    4SAPS   C12  404   4.005   1.948  10.975 -0.0915 -0.5419 -0.3540
    4SAPS  H12A  405   3.988   2.054  10.984 -2.3272 -0.7949 -0.9638
    4SAPS   C13  406   4.159   1.910  10.965  0.1141  0.5423 -0.1417
    4SAPS  O13A  407   4.212   1.839  11.056  0.3026 -0.1115 -0.1495
    4SAPS  O13B  408   4.226   1.933  10.861  0.5776  0.0539  0.3202
    4SAPS   C11  409   3.928   1.899  10.846 -0.0275 -0.4440 -0.9043
    4SAPS  H11A  410   3.936   1.789  10.845  0.5306 -0.4971  1.7302
    4SAPS  H11B  411   3.988   1.930  10.758 -0.3765 -0.4248 -1.1380
    4SAPS     P  412   3.677   1.885  10.757 -0.1311 -0.0026  0.2352
    4SAPS   O13  413   3.722   1.753  10.704  0.3740 -0.0652 -0.1230
    4SAPS   O14  414   3.557   1.879  10.835  0.1508  0.2565 -0.2637
    4SAPS   O12  415   3.793   1.950  10.842  0.4274  0.4790 -0.0448
    4SAPS   O11  416   3.674   1.981  10.633 -0.4446 -0.5572  0.2303
    4SAPS    C1  417   3.662   2.122  10.667  0.6466 -0.8712  0.2075
    4SAPS    HA  418   3.566   2.138  10.720 -0.1637 -1.5446 -1.0132
    4SAPS    HB  419   3.751   2.156  10.725  0.1568 -0.1816  0.5668
    4SAPS    C2  420   3.665   2.212  10.542  0.3409 -0.1331 -0.1803
    4SAPS    HS  421   3.630   2.312  10.575  0.7973 -0.3690  1.0871
    4SAPS   O21  422   3.577   2.165  10.437 -0.2744  0.4719  0.7570
    4SAPS   C21  423   3.449   2.162  10.461 -0.7250 -0.3859 -0.1079
    4SAPS   O22  424   3.392   2.225  10.553  0.4125  0.0483  0.6023
    4SAPS   C22  425   3.383   2.064  10.363  0.2406 -0.1382 -0.5778
    4SAPS   H2R  426   3.453   1.978  10.353  1.0459  0.4507 -0.0824
    4SAPS   H2S  427   3.295   2.016  10.411  1.5452 -1.3124  0.7411
    4SAPS    C3  428   3.814   2.229  10.499 -0.0388  0.5801  0.3588
    4SAPS    HX  429   3.838   2.122  10.486 -0.0863  0.7033 -0.9121
    4SAPS    HY  430   3.869   2.269  10.587  0.1659 -0.7857  0.8720
    4SAPS   O31  431   3.826   2.305  10.379  0.0685  0.2080 -0.4562
    4SAPS   C31  432   3.860   2.229  10.270  0.1046  0.0701 -0.3262
    4SAPS   O32  433   3.883   2.111  10.270  0.2697 -0.6565 -0.8565
    4SAPS   C32  434   3.869   2.331  10.158  0.6535 -0.1107  0.1911
    4SAPS   H2X  435   3.960   2.392  10.178  0.8180 -0.0461 -0.7316
    4SAPS   H2Y  436   3.771   2.382  10.154  0.4558 -0.3556  1.4901
    4SAPS   C23  437   3.337   2.136  10.233 -0.5052  0.8746 -0.2360
    4SAPS   H3R  438   3.268   2.222  10.249 -1.2713  0.2383 -0.0771
    4SAPS   H3S  439   3.271   2.070  10.173 -1.7018  0.4933  1.4375
    4SAPS   C24  440   3.458   2.176  10.141  0.1095  0.4589  0.7043
    4SAPS   H4R  441   3.521   2.239  10.207 -1.9740  1.8958  1.4210
    4SAPS   H4S  442   3.420   2.238  10.058  1.0019 -1.6399 -1.3754
    4SAPS   C25  443   3.546   2.052  10.104  0.1343 -0.7990  0.3339
    4SAPS   H5R  444   3.630   2.034  10.172  0.4576 -2.1403 -0.3835
    4SAPS   C26  445   3.531   1.979   9.990  0.4075  0.0911 -0.2606
    4SAPS   H6R  446   3.604   1.902   9.960 -1.4160 -2.2606  1.0155
    4SAPS   C27  447   3.429   2.010   9.887 -0.0578  0.1194 -0.6574
    4SAPS   H7R  448   3.365   2.094   9.919 -0.7765 -0.5125 -0.4019
    4SAPS   H7S  449   3.367   1.919   9.870 -2.9747  2.0773 -1.1929
    4SAPS   C28  450   3.501   2.038   9.753 -0.2915 -0.6216  0.3368
    4SAPS   H8R  451   3.607   2.065   9.761 -0.8720  1.6932  0.8487
    4SAPS   C29  452   3.435   2.043   9.631 -0.2146 -0.5521  0.1869
    4SAPS   H9R  453   3.490   2.057   9.537 -0.6933 -1.5160 -0.2482
    4SAPS  C210  454   3.285   2.017   9.616  0.0641 -0.3860 -0.8737
    4SAPS  H10R  455   3.234   2.002   9.713  0.4100 -2.0294 -0.9093
    4SAPS  H10S  456   3.272   1.911   9.584 -1.7350 -1.1621  2.0640
    4SAPS  C211  457   3.217   2.123   9.531  0.5396  0.1397  0.4895
    4SAPS  H11R  458   3.147   2.188   9.585  1.2435  0.0979  1.4749
    4SAPS  C212  459   3.229   2.128   9.394 -0.0831  0.0870 -0.2539
    4SAPS  H12R  460   3.172   2.199   9.333  0.2224  0.2858 -0.3141
    4SAPS  C213  461   3.321   2.035   9.314  0.5047 -1.3064  0.0147
    4SAPS  H13R  462   3.257   1.995   9.232 -1.8672  1.0492  0.5916
    4SAPS  H13S  463   3.353   1.942   9.365 -1.1078 -1.1560  1.3688
    4SAPS  C214  464   3.444   2.108   9.258  1.0696 -0.4491  0.5823
    4SAPS  H14R  465   3.513   2.152   9.332  1.1262 -0.4428  0.5265
    4SAPS  C215  466   3.486   2.108   9.132  0.0498 -0.0490  0.3431
    4SAPS  H15R  467   3.574   2.168   9.106 -1.2686  0.8863 -2.3213
    4SAPS  C216  468   3.427   2.044   9.010  0.1531 -0.3688 -1.5153
    4SAPS  H16R  469   3.366   2.117   8.953 -0.7116  0.1669  0.0363
    4SAPS  H16S  470   3.364   1.953   9.023  0.2082 -0.2366 -0.1440
    4SAPS  C217  471   3.539   2.001   8.915  0.5443 -0.0617 -0.7585
    4SAPS  H17R  472   3.492   1.936   8.838  0.0030 -0.2605 -0.2717
    4SAPS  H17S  473   3.607   1.938   8.977  2.0946  2.1484 -0.0978
    4SAPS  C218  474   3.617   2.128   8.851 -0.0077 -0.3237 -0.3795
    4SAPS  H18R  475   3.675   2.094   8.763  0.9636 -1.9562  0.8501
    4SAPS  H18S  476   3.696   2.143   8.927  1.6850 -0.3257 -2.0614
    4SAPS  C219  477   3.522   2.238   8.801 -0.4325 -0.2541 -0.8524
    4SAPS  H19R  478   3.579   2.317   8.748 -0.0604  0.5753  0.7132
    4SAPS  H19S  479   3.472   2.290   8.885 -2.0834  0.7797 -2.4078
    4SAPS  C220  480   3.415   2.194   8.704 -0.1476  0.5631 -0.0990
    4SAPS  H20R  481   3.365   2.101   8.738 -0.4556  0.4101 -0.9394
    4SAPS  H20S  482   3.455   2.166   8.604  2.1392 -2.3971  1.4896
    4SAPS  H20T  483   3.328   2.263   8.702 -0.5646  0.0939  0.8915
    4SAPS   C33  484   3.888   2.259  10.021  0.5713 -0.6747  0.2009
    4SAPS   H3X  485   3.790   2.209  10.003  1.1583 -0.9310 -2.9139
    4SAPS   H3Y  486   3.972   2.188  10.029  1.8243  0.5048 -1.6731
    4SAPS   C34  487   3.913   2.357   9.908  0.4160 -0.1833  0.0793
    4SAPS   H4X  488   4.016   2.392   9.927  0.2774  0.8755 -0.9815
    4SAPS   H4Y  489   3.836   2.437   9.916  0.7943  0.1373  0.5306
    4SAPS   C35  490   3.905   2.293   9.767  0.5923 -0.0549  1.0204
    4SAPS   H5X  491   3.925   2.184   9.766  0.6387 -0.0474  1.1283
    4SAPS   H5Y  492   3.979   2.330   9.693  0.1699 -0.3314  0.4469
    4SAPS   C36  493   3.761   2.309   9.715  0.0674  0.1819  1.5043
    4SAPS   H6X  494   3.734   2.417   9.708  1.6054  0.4846 -2.3052
    4SAPS   H6Y  495   3.693   2.250   9.780  0.9184 -2.3184  0.2330
    4SAPS   C37  496   3.745   2.250   9.569  0.1558  0.8236 -0.1679
    4SAPS   H7X  497   3.644   2.284   9.540 -0.4686 -0.3997  0.4982
    4SAPS   H7Y  498   3.744   2.139   9.571 -1.0707  0.7842 -1.4540
    4SAPS   C38  499   3.833   2.311   9.460 -0.7898  0.1770  0.3161
    4SAPS   H8X  500   3.943   2.294   9.464 -0.0539  3.4420 -1.4555
    4SAPS   H8Y  501   3.809   2.419   9.470  0.6177  0.4033  1.5737
    4SAPS   C39  502   3.798   2.270   9.314  0.4111 -0.0539 -0.2166
    4SAPS   H9X  503   3.688   2.284   9.304 -0.2653 -1.6584  3.2929
    4SAPS   H9Y  504   3.836   2.169   9.290  0.5089 -0.3851  1.2529
    4SAPS  C310  505   3.857   2.386   9.227 -0.2560 -0.1263  0.4570
    4SAPS  H10X  506   3.933   2.338   9.161 -1.2210  0.9243 -1.4930
    4SAPS  H10Y  507   3.904   2.468   9.286  0.4309  0.6746 -1.1435
    4SAPS  C311  508   3.759   2.458   9.143 -0.0599 -0.6554 -0.1997
    4SAPS  H11X  509   3.697   2.525   9.206  0.1467  1.3696 -2.0517
    4SAPS  H11Y  510   3.675   2.392   9.114 -1.2654  0.7812 -0.1016
    4SAPS  C312  511   3.813   2.542   9.032  0.5135 -0.2223  0.5033
    4SAPS  H12X  512   3.907   2.498   8.993  0.4509  0.9341 -1.0779
    4SAPS  H12Y  513   3.843   2.645   9.061 -0.4637  0.7611 -1.7547
    4SAPS  C313  514   3.702   2.545   8.923 -0.7545  0.3252  0.3432
    4SAPS  H13X  515   3.607   2.579   8.969 -1.2051 -1.2214  0.6041
    4SAPS  H13Y  516   3.683   2.446   8.876 -0.0260  1.0097 -1.4820
    4SAPS  C314  517   3.741   2.639   8.818  0.0511  0.1570 -0.5558
    4SAPS  H14X  518   3.767   2.741   8.856 -0.8346  0.9929 -2.0903
    4SAPS  H14Y  519   3.659   2.648   8.744  0.5900 -1.5431 -1.4106
    4SAPS  C315  520   3.851   2.584   8.731 -0.4280  0.4923  0.1724
    4SAPS  H15X  521   3.802   2.510   8.664  0.8477  0.9402 -1.3138
    4SAPS  H15Y  522   3.924   2.537   8.801 -0.4129  0.6985  0.2958
    4SAPS  C316  523   3.935   2.687   8.653  0.3574 -0.3157  0.0801
    4SAPS  H16X  524   4.002   2.751   8.714  1.6319  1.0847 -2.6020
    4SAPS  H16Y  525   3.869   2.754   8.592  1.8115  1.4673  0.3840
    4SAPS  C317  526   4.021   2.619   8.551 -0.1450 -0.1191  0.5054
    4SAPS  H17X  527   3.970   2.613   8.453 -2.3782  0.7540  1.5546
    4SAPS  H17Y  528   4.039   2.516   8.588 -0.7128  0.2285  1.7992
    4SAPS  C318  529   4.159   2.692   8.530 -0.2811 -0.6050 -0.4937
    4SAPS  H18X  530   4.149   2.773   8.454 -0.6951 -0.5165 -0.3506
    4SAPS  H18Y  531   4.229   2.615   8.492 -0.1165 -0.5487 -0.3016
    4SAPS  H18Z  532   4.193   2.741   8.623 -0.9407 -1.3049  0.1259
    5SAPS     N  533   4.655   2.904  11.107  0.5880  0.7362 -0.0897
    5SAPS   HN1  534   4.729   2.842  11.148  0.0757 -1.1176 -1.7922
    5SAPS   HN2  535   4.593   2.951  11.175 -1.0970 -0.7568 -0.5312
    5SAPS   HN3  536   4.591   2.857  11.040  2.0813 -2.0086  0.2406
    5SAPS   C12  537   4.732   3.023  11.045  1.1690 -0.2279  1.1703
    5SAPS  H12A  538   4.722   3.104  11.115 -1.6471  1.4849 -0.9719
    5SAPS   C13  539   4.876   3.006  11.006  0.5187  0.0507  0.5892
    5SAPS  O13A  540   4.936   2.902  11.047  0.6069  0.2262 -0.0279
    5SAPS  O13B  541   4.944   3.097  10.954 -0.1237  0.8238  0.0821
    5SAPS   C11  542   4.650   3.072  10.922  0.3449  0.3913 -0.0074
    5SAPS  H11A  543   4.642   2.998  10.839 -0.1984 -1.0436  1.2760
    5SAPS  H11B  544   4.698   3.159  10.872  0.3930  1.7263  2.2361
    5SAPS     P  545   4.399   3.123  10.869  0.2503 -0.0214 -0.0947
    5SAPS   O13  546   4.323   3.000  10.889  0.2194 -0.0870  0.1535
    5SAPS   O14  547   4.338   3.256  10.886  0.5416  0.9315 -0.4411
    5SAPS   O12  548   4.519   3.120  10.967  0.8324 -0.0315  0.0556
    5SAPS   O11  549   4.468   3.113  10.730 -0.3122 -0.3197 -0.1592
    5SAPS    C1  550   4.507   3.235  10.661 -0.5338  1.0537 -0.8776
    5SAPS    HA  551   4.550   3.313  10.727 -0.0660  0.1433 -0.0818
    5SAPS    HB  552   4.584   3.212  10.585  2.1931 -0.6381  2.1036
    5SAPS    C2  553   4.394   3.290  10.574 -0.0126  0.1506  0.1709
    5SAPS    HS  554   4.317   3.321  10.647 -1.1343 -0.9996 -0.4942
    5SAPS   O21  555   4.354   3.189  10.476  0.2635 -0.2572 -0.1991
    5SAPS   C21  556   4.228   3.178  10.469  0.2027  0.4486 -0.1680
    5SAPS   O22  557   4.142   3.218  10.546  0.3274  0.2236  0.1814
    5SAPS   C22  558   4.188   3.125  10.331  0.2790 -0.0687  0.5154
    5SAPS   H2R  559   4.088   3.171  10.316  0.4276 -0.0082 -0.3613
    5SAPS   H2S  560   4.258   3.169  10.256 -1.7701  1.9341 -0.3644
    5SAPS    C3  561   4.440   3.418  10.496 -0.0685  0.3326  1.0425
    5SAPS    HX  562   4.518   3.378  10.428 -0.5967 -3.0078  2.2202
    5SAPS    HY  563   4.489   3.493  10.563 -0.2910  1.2799  0.1777
    5SAPS   O31  564   4.332   3.485  10.432 -0.1253  0.1663 -0.7612
    5SAPS   C31  565   4.316   3.473  10.302  0.6707  0.3001  0.0228
    5SAPS   O32  566   4.383   3.406  10.226 -0.4976  0.4244 -0.6327
    5SAPS   C32  567   4.216   3.582  10.263  0.1656 -0.5929 -0.0437
    5SAPS   H2X  568   4.235   3.662  10.337  0.2664 -0.6791  0.0240
    5SAPS   H2Y  569   4.109   3.551  10.268  0.6075 -2.4327 -1.0546
    5SAPS   C23  570   4.174   2.972  10.333  0.1398  0.5327 -0.2876
    5SAPS   H3R  571   4.080   2.951  10.388  0.4656  2.4784  1.0925
    5SAPS   H3S  572   4.250   2.912  10.387  1.1926 -1.1121 -3.3041
    5SAPS   C24  573   4.166   2.903  10.193  0.5533  0.1251 -0.0519
    5SAPS   H4R  574   4.269   2.916  10.152  1.5504 -0.0507  2.2312
    5SAPS   H4S  575   4.092   2.964  10.138 -1.5671 -1.5922  0.7415
    5SAPS   C25  576   4.140   2.754  10.188 -0.2495  0.4073  0.5784
    5SAPS   H5R  577   4.182   2.693  10.270 -0.8611  0.0049  0.6001
    5SAPS   C26  578   4.075   2.693  10.089 -0.7726 -0.3656  0.1270
    5SAPS   H6R  579   4.067   2.586  10.110 -3.2342 -0.1819  0.4025
    5SAPS   C27  580   4.015   2.746   9.964 -0.0280 -0.6330  0.1710
    5SAPS   H7R  581   3.931   2.807  10.006  2.3806  1.8101  1.8244
    5SAPS   H7S  582   3.983   2.654   9.912  3.6357 -1.7764 -0.3342
    5SAPS   C28  583   4.100   2.817   9.862  0.7042 -0.0578  0.0457
    5SAPS   H8R  584   4.188   2.864   9.908 -0.7934  3.3990 -0.2809
    5SAPS   C29  585   4.059   2.841   9.733 -0.1435 -0.2300  0.4566
    5SAPS   H9R  586   4.111   2.903   9.658 -0.9025 -0.0152  0.0965
    5SAPS  C210  587   3.924   2.806   9.684  0.8044  0.0811  0.2748
    5SAPS  H10R  588   3.857   2.757   9.757  0.5672  1.5380  1.0930
    5SAPS  H10S  589   3.913   2.744   9.593  0.8844 -0.1230  0.4023
    5SAPS  C211  590   3.854   2.939   9.644 -0.5311  0.5176  0.8629
    5SAPS  H11R  591   3.911   3.029   9.668  0.9464 -0.1015 -0.1675
    5SAPS  C212  592   3.753   2.949   9.557  0.3450  0.0634  0.4975
    5SAPS  H12R  593   3.720   3.050   9.527  1.3068 -0.0210 -0.9522
    5SAPS  C213  594   3.671   2.838   9.487 -0.3607  0.4506 -0.4359
    5SAPS  H13R  595   3.564   2.862   9.503 -0.1188  0.7192  0.8728
    5SAPS  H13S  596   3.686   2.755   9.558  1.4229  1.1352  0.0423
    5SAPS  C214  597   3.713   2.799   9.344  1.0754 -0.0561  0.5175
    5SAPS  H14R  598   3.799   2.732   9.329  2.1100  1.6189 -1.4144
    5SAPS  C215  599   3.652   2.824   9.229  0.1679 -0.7546 -0.2647
    5SAPS  H15R  600   3.693   2.776   9.138  2.1197 -0.9818  0.6768
    5SAPS  C216  601   3.529   2.909   9.209 -0.1786  0.0562 -0.7859
    5SAPS  H16R  602   3.519   2.965   9.304 -0.7407 -2.8482  1.0137
    5SAPS  H16S  603   3.442   2.842   9.190 -1.9043  1.2169  2.4000
    5SAPS  C217  604   3.539   3.016   9.096 -0.0329 -0.5525  0.4252
    5SAPS  H17R  605   3.637   3.069   9.098  0.9095 -2.0758 -1.4238
    5SAPS  H17S  606   3.462   3.094   9.113  0.1800 -0.2443  0.0383
    5SAPS  C218  607   3.532   2.958   8.951  0.6172  0.4932  0.0743
    5SAPS  H18R  608   3.612   2.883   8.934  1.6176  1.3529  0.8562
    5SAPS  H18S  609   3.434   2.906   8.943  0.6163  0.3710  0.7932
    5SAPS  C219  610   3.555   3.062   8.836 -0.6168 -0.1261  0.0841
    5SAPS  H19R  611   3.590   3.013   8.743  1.1434 -0.5072  0.9035
    5SAPS  H19S  612   3.640   3.127   8.866 -1.3708  0.9207 -0.0036
    5SAPS  C220  613   3.423   3.147   8.822 -1.0765  0.0679 -0.1448
    5SAPS  H20R  614   3.350   3.071   8.787 -0.1263 -0.9574  0.0547
    5SAPS  H20S  615   3.420   3.232   8.750 -3.7274 -0.1383 -0.3917
    5SAPS  H20T  616   3.393   3.199   8.916 -0.3239 -0.0488  0.1622
    5SAPS   C33  617   4.232   3.634  10.121  0.1477  0.4430 -0.4556
    5SAPS   H3X  618   4.140   3.687  10.088 -0.2389  0.7264  1.0366
    5SAPS   H3Y  619   4.258   3.551  10.052  0.6921 -0.3786  0.7098
    5SAPS   C34  620   4.338   3.742  10.108  0.6777  0.4684 -0.2812
    5SAPS   H4X  621   4.431   3.693  10.144 -0.4261 -1.2321  0.4292
    5SAPS   H4Y  622   4.326   3.835  10.167 -2.3062 -0.5542  0.9483
    5SAPS   C35  623   4.349   3.807   9.965  0.1678 -0.2356  0.4118
    5SAPS   H5X  624   4.423   3.890   9.966 -2.7003  2.5279  1.9233
    5SAPS   H5Y  625   4.251   3.854   9.943  0.7006  1.0676  0.7521
    5SAPS   C36  626   4.373   3.711   9.847  0.1118 -0.7897 -0.0493
    5SAPS   H6X  627   4.288   3.641   9.830 -0.4557  0.1226 -1.1681
    5SAPS   H6Y  628   4.458   3.644   9.872  1.6604  0.8679 -0.6353
    5SAPS   C37  629   4.408   3.772   9.715 -0.2464  0.4598  0.2246
    5SAPS   H7X  630   4.472   3.706   9.652  0.8215  2.7470 -1.2560
    5SAPS   H7Y  631   4.477   3.858   9.733  0.4204  0.0648 -0.3819
    5SAPS   C38  632   4.282   3.809   9.629 -0.8093  0.5862  0.0768
    5SAPS   H8X  633   4.195   3.848   9.687 -2.0420 -0.4734 -1.0043
    5SAPS   H8Y  634   4.239   3.718   9.583  1.5061 -1.1816  1.1877
    5SAPS   C39  635   4.332   3.913   9.524 -0.5622  0.1613 -0.8062
    5SAPS   H9X  636   4.430   3.874   9.490  0.3392  0.5863  1.1455
    5SAPS   H9Y  637   4.344   4.014   9.569 -2.6449  0.2228 -0.2680
    5SAPS  C310  638   4.240   3.935   9.403 -0.3115 -0.0509 -0.1729
    5SAPS  H10X  639   4.273   4.020   9.340  1.7915 -0.5904  0.1173
    5SAPS  H10Y  640   4.138   3.954   9.441 -0.5564  1.1685 -1.3813
    5SAPS  C311  641   4.216   3.811   9.305 -0.3471 -0.1710 -0.0237
    5SAPS  H11X  642   4.154   3.742   9.365  0.2841 -1.0583 -0.3749
    5SAPS  H11Y  643   4.307   3.750   9.286  2.1494  3.0388  0.7103
    5SAPS  C312  644   4.134   3.863   9.185 -0.2198  0.5894  0.6422
    5SAPS  H12X  645   4.049   3.929   9.214 -0.3244  0.0292  1.6411
    5SAPS  H12Y  646   4.082   3.772   9.149  0.1754  0.5230  0.2361
    5SAPS  C313  647   4.226   3.929   9.088 -0.8217 -0.8280  1.1984
    5SAPS  H13X  648   4.283   3.852   9.033  1.6801  0.3607  1.9817
    5SAPS  H13Y  649   4.296   4.000   9.137 -0.5192  0.4748 -1.0266
    5SAPS  C314  650   4.150   4.007   8.973  0.1718 -1.2601  0.1172
    5SAPS  H14X  651   4.113   4.104   9.012 -1.2168 -1.7551  0.1116
    5SAPS  H14Y  652   4.058   3.958   8.933 -3.3994  2.8835  2.3434
    5SAPS  C315  653   4.247   4.032   8.851 -0.1213  0.4942 -0.1452
    5SAPS  H15X  654   4.305   3.940   8.827 -0.4637  0.3997 -0.6159
    5SAPS  H15Y  655   4.319   4.110   8.884  0.7678 -0.5068  0.3237
    5SAPS  C316  656   4.159   4.073   8.739 -0.0754  0.7885  0.4960
    5SAPS  H16X  657   4.093   4.159   8.763 -0.1880  1.0828 -0.7753
    5SAPS  H16Y  658   4.087   3.994   8.708  1.6402 -1.3409  1.6811
    5SAPS  C317  659   4.251   4.110   8.612  0.0247  0.7998 -0.0670
    5SAPS  H17X  660   4.319   4.190   8.648 -2.5978  3.0244  0.2846
    5SAPS  H17Y  661   4.190   4.157   8.532  0.3964  0.5668 -0.4881
    5SAPS  C318  662   4.321   3.993   8.537  0.9119 -0.0621  0.6557
    5SAPS  H18X  663   4.242   3.928   8.493 -0.2816  0.5522  1.7987
    5SAPS  H18Y  664   4.388   3.936   8.605 -0.8227 -1.1406  1.5539
    5SAPS  H18Z  665   4.383   4.034   8.455 -0.3931  0.2706 -0.1798
    6SAPS     N  666   0.006   1.007  10.956 -0.7730 -0.9070  0.6871
    6SAPS   HN1  667   0.028   1.058  11.044  0.5867 -0.8631  0.3427
    6SAPS   HN2  668   0.094   1.010  10.902 -0.3583  3.1470  1.3107
    6SAPS   HN3  669  -0.071   1.060  10.911 -0.0468  0.8190  1.3816
    6SAPS   C12  670  -0.034   0.867  10.983 -0.6161 -0.6132  0.2769
    6SAPS  H12A  671  -0.066   0.823  10.889 -0.8094  1.7585 -0.8438
    6SAPS   C13  672   0.087   0.776  11.033 -0.0050 -0.6899 -0.2784
    6SAPS  O13A  673   0.202   0.822  11.037  0.3353  0.6820 -0.4442
    6SAPS  O13B  674   0.068   0.653  11.048  0.0515  0.2579  0.1819
    6SAPS   C11  675  -0.153   0.877  11.085 -0.0557 -0.1008  0.7328
    6SAPS  H11A  676  -0.114   0.928  11.175  0.1073  0.4083  0.3776
    6SAPS  H11B  677  -0.190   0.780  11.125 -1.4965  0.6394  1.2241
    6SAPS     P  678  -0.376   0.889  10.940  0.2461 -0.3232  0.2917
    6SAPS   O13  679  -0.459   0.801  11.019 -0.3311 -0.1880 -0.6298
    6SAPS   O14  680  -0.436   0.997  10.862  0.3766 -0.0426 -0.1275
    6SAPS   O12  681  -0.261   0.944  11.027  0.1992  0.1177  0.2290
    6SAPS   O11  682  -0.298   0.797  10.842  0.9535 -0.5485 -0.0097
    6SAPS    C1  683  -0.303   0.655  10.818 -0.3514  0.2742  0.5288
    6SAPS    HA  684  -0.202   0.609  10.820  1.0194  3.1259  1.8501
    6SAPS    HB  685  -0.351   0.600  10.903 -0.2036  1.6647  1.5436
    6SAPS    C2  686  -0.367   0.621  10.680  0.0931  0.0195  0.4280
    6SAPS    HS  687  -0.361   0.511  10.663  4.1853  0.1221  0.2305
    6SAPS   O21  688  -0.297   0.699  10.581  0.0355 -0.1165  0.3352
    6SAPS   C21  689  -0.194   0.642  10.535 -0.1977  0.0510 -0.5219
    6SAPS   O22  690  -0.143   0.531  10.571  0.3342 -0.0427  0.1199
    6SAPS   C22  691  -0.133   0.724  10.416 -0.3453  1.0330 -0.0252
    6SAPS   H2R  692  -0.195   0.810  10.384  1.5150  2.0326 -1.1881
    6SAPS   H2S  693  -0.035   0.759  10.456  1.0676 -0.7446 -1.7325
    6SAPS    C3  694  -0.520   0.667  10.663  0.1375  1.3354  0.5717
    6SAPS    HX  695  -0.527   0.777  10.655  0.2261  1.2240 -1.7865
    6SAPS    HY  696  -0.572   0.632  10.754 -0.0258  0.5136  0.1774
    6SAPS   O31  697  -0.600   0.596  10.564  0.2734 -0.4512  0.1907
    6SAPS   C31  698  -0.614   0.647  10.448 -0.0646 -0.0691 -0.6542
    6SAPS   O32  699  -0.563   0.747  10.401  0.5260  0.0958  0.3330
    6SAPS   C32  700  -0.698   0.551  10.368 -0.1903  0.1703 -0.1591
    6SAPS   H2X  701  -0.790   0.537  10.429 -1.6935  1.0073 -2.1333
    6SAPS   H2Y  702  -0.648   0.452  10.363  0.4020  0.3299  1.7495
    6SAPS   C23  703  -0.085   0.631  10.301 -0.6242  0.4111 -0.5422
    6SAPS   H3R  704  -0.010   0.560  10.340  0.2640  1.9073  0.5795
    6SAPS   H3S  705  -0.020   0.683  10.228  1.4047 -1.0661  0.1386
    6SAPS   C24  706  -0.210   0.559  10.244 -0.2453 -0.0120  0.0886
    6SAPS   H4R  707  -0.273   0.638  10.198 -0.4694 -0.8582 -1.0991
    6SAPS   H4S  708  -0.262   0.523  10.336  0.1738  0.1924  0.4056
    6SAPS   C25  709  -0.162   0.448  10.153 -0.8375  0.5559 -0.0868
    6SAPS   H5R  710  -0.098   0.373  10.202  1.5902  1.7592 -1.2181
    6SAPS   C26  711  -0.185   0.429  10.020  0.3102  0.3823  0.5566
    6SAPS   H6R  712  -0.150   0.334   9.976  0.3633  1.3267 -1.5594
    6SAPS   C27  713  -0.260   0.524   9.926 -0.0129 -0.1509 -0.6455
    6SAPS   H7R  714  -0.305   0.606   9.986 -0.6489 -0.1703 -1.0840
    6SAPS   H7S  715  -0.341   0.462   9.881  0.1004  0.2619 -1.4298
    6SAPS   C28  716  -0.173   0.597   9.827 -0.1455  0.0057 -0.5461
    6SAPS   H8R  717  -0.142   0.696   9.861 -0.5789  0.8682 -2.5297
    6SAPS   C29  718  -0.147   0.556   9.701  0.4356  0.2364  0.1710
    6SAPS   H9R  719  -0.097   0.629   9.636  1.1698  0.4110  0.9116
    6SAPS  C210  720  -0.195   0.430   9.648  0.0994  0.4090 -0.2233
    6SAPS  H10R  721  -0.179   0.344   9.717 -1.6921  0.8577  0.7949
    6SAPS  H10S  722  -0.140   0.405   9.554 -1.7072 -2.6793 -0.5938
    6SAPS  C211  723  -0.352   0.434   9.612 -0.1398  0.4046  0.3747
    6SAPS  H11R  724  -0.414   0.480   9.690  1.4046  0.6375  1.5044
    6SAPS  C212  725  -0.413   0.387   9.501 -0.0401 -0.4606  0.2373
    6SAPS  H12R  726  -0.521   0.403   9.493 -0.2904 -2.1347  0.0395
    6SAPS  C213  727  -0.347   0.333   9.373 -1.0669  0.0964 -0.0489
    6SAPS  H13R  728  -0.420   0.261   9.330 -0.3989 -0.5413 -0.1345
    6SAPS  H13S  729  -0.270   0.263   9.411  1.4420  2.0042 -1.3306
    6SAPS  C214  730  -0.295   0.445   9.285  0.2178 -0.8177 -0.3898
    6SAPS  H14R  731  -0.231   0.523   9.326 -1.3505 -0.0934  0.7890
    6SAPS  C215  732  -0.307   0.448   9.154  0.2448 -0.4389 -0.8753
    6SAPS  H15R  733  -0.263   0.533   9.101  0.0219  0.1860 -0.0829
    6SAPS  C216  734  -0.370   0.347   9.060 -0.5252 -0.1102 -0.3769
    6SAPS  H16R  735  -0.472   0.383   9.031 -1.4005 -1.0596  1.3787
    6SAPS  H16S  736  -0.374   0.249   9.111  1.3716 -1.0130 -1.8258
    6SAPS  C217  737  -0.299   0.316   8.928  0.2277 -1.0034  0.2898
    6SAPS  H17R  738  -0.213   0.255   8.964  1.9635  0.4638 -1.1749
    6SAPS  H17S  739  -0.258   0.411   8.888 -2.2719 -0.9297 -2.4324
    6SAPS  C218  740  -0.380   0.242   8.831 -0.6215  0.1098 -0.6821
    6SAPS  H18R  741  -0.325   0.225   8.736 -1.2849 -0.2120 -1.0247
    6SAPS  H18S  742  -0.474   0.298   8.809  1.0865  3.3940 -0.1770
    6SAPS  C219  743  -0.429   0.111   8.897 -0.4213 -0.6046 -0.6731
    6SAPS  H19R  744  -0.522   0.129   8.955 -0.5756 -3.3123  0.0755
    6SAPS  H19S  745  -0.358   0.078   8.976 -0.8624  2.5745  1.2223
    6SAPS  C220  746  -0.452  -0.006   8.810 -0.8135 -0.2859  0.4481
    6SAPS  H20R  747  -0.451  -0.099   8.871 -2.5272 -0.5287  0.1736
    6SAPS  H20S  748  -0.379  -0.014   8.727 -0.7999 -0.0677  0.4393
    6SAPS  H20T  749  -0.549   0.004   8.756 -0.9457  0.9044  0.8745
    6SAPS   C33  750  -0.741   0.588  10.221 -0.8334 -0.0899 -0.3246
    6SAPS   H3X  751  -0.790   0.688  10.214  2.6257  1.6955 -1.8581
    6SAPS   H3Y  752  -0.825   0.519  10.201 -0.8056 -0.7931  1.7373
    6SAPS   C34  753  -0.640   0.569  10.111 -0.4669 -0.3199 -0.2572
    6SAPS   H4X  754  -0.611   0.463  10.095  1.5623  0.6249 -3.8070
    6SAPS   H4Y  755  -0.554   0.632  10.143 -0.2500 -0.3835 -0.7164
    6SAPS   C35  756  -0.663   0.620   9.972  0.1755  0.1012 -0.2680
    6SAPS   H5X  757  -0.564   0.625   9.922 -0.1957  2.3107 -0.9205
    6SAPS   H5Y  758  -0.701   0.724   9.968  0.4248  0.3485  2.2637
    6SAPS   C36  759  -0.749   0.520   9.887 -0.2667 -0.2290  0.0058
    6SAPS   H6X  760  -0.849   0.512   9.936 -0.7285  1.0655 -0.6828
    6SAPS   H6Y  761  -0.702   0.419   9.888  0.9891  0.2811  2.8676
    6SAPS   C37  762  -0.757   0.554   9.740  0.0619  0.0241  0.2413
    6SAPS   H7X  763  -0.653   0.582   9.710 -0.1596  2.2693  1.3459
    6SAPS   H7Y  764  -0.827   0.638   9.722  1.0058  0.2630 -2.7994
    6SAPS   C38  765  -0.798   0.440   9.650 -1.0018 -0.1945 -0.1314
    6SAPS   H8X  766  -0.902   0.417   9.681 -0.7096  0.0406  1.0829
    6SAPS   H8Y  767  -0.723   0.360   9.666  1.8756  1.9639 -1.7812
    6SAPS   C39  768  -0.796   0.490   9.510  0.4642 -0.8172 -0.8646
    6SAPS   H9X  769  -0.693   0.524   9.485  0.4205 -0.2282 -0.2674
    6SAPS   H9Y  770  -0.865   0.576   9.501 -1.2884 -1.9856  0.8728
    6SAPS  C310  771  -0.842   0.385   9.411 -0.4123  0.1579  0.3539
    6SAPS  H10X  772  -0.953   0.376   9.415 -0.4199 -2.1877 -2.1163
    6SAPS  H10Y  773  -0.786   0.291   9.431  0.2213  0.2937 -0.7183
    6SAPS  C311  774  -0.822   0.436   9.264 -0.5037  1.2859  0.1777
    6SAPS  H11X  775  -0.714   0.440   9.239 -0.5183  0.9438  0.0648
    6SAPS  H11Y  776  -0.873   0.534   9.246 -0.7389  1.0570 -0.4297
    6SAPS  C312  777  -0.877   0.329   9.174 -0.1476  0.1473  0.1008
    6SAPS  H12X  778  -0.970   0.374   9.134 -0.0490  0.2004 -0.0681
    6SAPS  H12Y  779  -0.919   0.239   9.223 -1.8769  1.6782  1.5825
    6SAPS  C313  780  -0.774   0.281   9.065  0.1093  0.4495  0.3679
    6SAPS  H13X  781  -0.689   0.252   9.131 -1.2209  1.0834  2.4594
    6SAPS  H13Y  782  -0.742   0.376   9.016  0.4311  0.2517  0.1919
    6SAPS  C314  783  -0.828   0.192   8.948  1.0718  0.1165 -0.6853
    6SAPS  H14X  784  -0.735   0.183   8.888  3.3693 -0.6735  2.6769
    6SAPS  H14Y  785  -0.909   0.244   8.893  1.3037  1.3087  0.0756
    6SAPS  C315  786  -0.872   0.053   8.987 -0.1432  0.0833 -0.6385
    6SAPS  H15X  787  -0.904  -0.009   8.900  0.0796 -0.9559 -0.0024
    6SAPS  H15Y  788  -0.959   0.066   9.055  0.2076 -1.7281  0.2284
    6SAPS  C316  789  -0.755  -0.023   9.062 -0.1980 -0.4768 -0.2549
    6SAPS  H16X  790  -0.706   0.044   9.135  1.0872 -0.8471 -0.7508
    6SAPS  H16Y  791  -0.674  -0.032   8.987 -0.2578 -0.5922 -0.3067
    6SAPS  C317  792  -0.796  -0.156   9.128  0.1021  0.3221 -0.0647
    6SAPS  H17X  793  -0.891  -0.151   9.186 -0.2565  0.5614 -0.6551
    6SAPS  H17Y  794  -0.718  -0.186   9.201  1.7845  0.5825 -1.6838
    6SAPS  C318  795  -0.815  -0.269   9.022  0.9961 -0.3523 -0.5427
    6SAPS  H18X  796  -0.720  -0.303   8.975  0.5600 -2.8782  0.2717
    6SAPS  H18Y  797  -0.868  -0.241   8.929  0.7712  0.3201 -0.2197
    6SAPS  H18Z  798  -0.874  -0.354   9.063  2.3585 -0.6011  1.0330
    7SAPS     N  799   1.757   0.847  10.703  0.0351  0.2061 -0.3852
    7SAPS   HN1  800   1.705   0.927  10.743  2.3920  1.1029  1.0798
    7SAPS   HN2  801   1.855   0.877  10.684  0.1923 -0.0118  0.0593
    7SAPS   HN3  802   1.720   0.816  10.611  0.8806  0.7916 -0.9383
    7SAPS   C12  803   1.756   0.731  10.801 -0.7267 -0.3692 -0.3715
    7SAPS  H12A  804   1.827   0.655  10.773 -2.4699 -2.3901  0.4299
    7SAPS   C13  805   1.786   0.768  10.950 -0.4790  0.2844  0.4141
    7SAPS  O13A  806   1.806   0.892  10.969 -0.4973 -0.1877 -0.4000
    7SAPS  O13B  807   1.813   0.679  11.035 -0.4597  0.3674  0.5790
    7SAPS   C11  808   1.615   0.675  10.799 -0.1438 -0.7747  0.3378
    7SAPS  H11A  809   1.539   0.756  10.800  1.4594  0.8272 -1.1553
    7SAPS  H11B  810   1.602   0.612  10.890  1.4107 -0.8892  0.5138
    7SAPS     P  811   1.513   0.617  10.564 -0.4267 -0.0746 -0.2238
    7SAPS   O13  812   1.468   0.494  10.494 -0.5906 -0.1855  0.0248
    7SAPS   O14  813   1.404   0.710  10.606 -0.3788 -0.0969  0.1147
    7SAPS   O12  814   1.603   0.591  10.688 -0.7495 -0.0046 -0.5504
    7SAPS   O11  815   1.621   0.703  10.473  0.1626  0.3953  0.0053
    7SAPS    C1  816   1.753   0.635  10.451 -0.2067 -0.0514 -0.2254
    7SAPS    HA  817   1.838   0.703  10.477  1.4558 -1.8312 -0.7933
    7SAPS    HB  818   1.770   0.550  10.520 -0.9243 -0.4158 -0.4919
    7SAPS    C2  819   1.777   0.591  10.302 -0.1806  0.1882 -0.2106
    7SAPS    HS  820   1.698   0.521  10.266  2.1119 -2.0703 -1.1244
    7SAPS   O21  821   1.916   0.562  10.282  0.3965 -0.7912  0.1517
    7SAPS   C21  822   1.941   0.433  10.290  0.3117 -0.0415  0.1777
    7SAPS   O22  823   1.863   0.345  10.319  0.5754 -0.3221 -0.9400
    7SAPS   C22  824   2.085   0.404  10.264 -0.1989  0.2614  0.5570
    7SAPS   H2R  825   2.140   0.493  10.300  0.7464 -0.4250  0.8442
    7SAPS   H2S  826   2.127   0.317  10.319  1.4488  0.8049  0.2004
    7SAPS    C3  827   1.741   0.719  10.211 -0.4257  0.7555 -0.2765
    7SAPS    HX  828   1.818   0.794  10.239  0.8142 -0.1932 -1.0260
    7SAPS    HY  829   1.635   0.745  10.227 -0.5414 -0.5304  1.2784
    7SAPS   O31  830   1.757   0.670  10.074  0.5383  0.2093  0.0187
    7SAPS   C31  831   1.714   0.757   9.986  0.2279  0.4828 -0.2394
    7SAPS   O32  832   1.661   0.856  10.017  0.6716 -0.3846 -0.3137
    7SAPS   C32  833   1.712   0.688   9.850  0.1129  0.0070 -0.7536
    7SAPS   H2X  834   1.650   0.596   9.859  2.8064 -1.7753  1.0157
    7SAPS   H2Y  835   1.814   0.652   9.824 -1.1117 -4.1568 -0.4212
    7SAPS   C23  836   2.109   0.370  10.113  0.1114 -0.1929 -0.1255
    7SAPS   H3R  837   2.055   0.451  10.060 -0.4874 -1.2757 -1.2312
    7SAPS   H3S  838   2.060   0.275  10.083 -0.0469 -0.4882  1.0096
    7SAPS   C24  839   2.258   0.386  10.071  0.6342  0.1199  0.5257
    7SAPS   H4R  840   2.302   0.476  10.120  1.6175  1.0637 -1.9356
    7SAPS   H4S  841   2.267   0.392   9.960 -0.5076  1.3704  0.4739
    7SAPS   C25  842   2.325   0.267  10.123  0.3851  0.2471 -1.2908
    7SAPS   H5R  843   2.355   0.272  10.229  1.2989  1.1873 -1.5787
    7SAPS   C26  844   2.334   0.151  10.060 -0.0368  0.2447  0.6991
    7SAPS   H6R  845   2.367   0.057  10.107 -0.5140 -0.4096 -0.2440
    7SAPS   C27  846   2.277   0.129   9.918  0.0896 -0.3783 -0.0642
    7SAPS   H7R  847   2.329   0.185   9.837 -0.2579  0.9673  0.6236
    7SAPS   H7S  848   2.174   0.171   9.914  0.1080 -0.3269  0.0049
    7SAPS   C28  849   2.261  -0.015   9.893  0.2776 -0.1502 -0.5262
    7SAPS   H8R  850   2.306  -0.085   9.965 -0.4038 -1.0914 -0.9802
    7SAPS   C29  851   2.191  -0.067   9.789  0.5740 -0.3648  0.0965
    7SAPS   H9R  852   2.195  -0.175   9.769 -1.9560 -0.0092 -3.1248
    7SAPS  C210  853   2.118   0.006   9.673  0.1044  0.3868  0.4029
    7SAPS  H10R  854   2.167   0.105   9.658 -4.2796  2.5400 -1.4778
    7SAPS  H10S  855   2.016   0.026   9.710 -0.5344 -2.6043  0.4924
    7SAPS  C211  856   2.113  -0.074   9.543 -0.4708  0.1338  0.3955
    7SAPS  H11R  857   2.138  -0.180   9.558 -1.1590 -0.5576 -2.6686
    7SAPS  C212  858   2.059  -0.034   9.427 -0.3912  0.3213 -0.3446
    7SAPS  H12R  859   2.067  -0.099   9.339  0.2772 -0.1770  0.0745
    7SAPS  C213  860   1.993   0.100   9.395  0.2825  0.8215  0.3908
    7SAPS  H13R  861   2.080   0.164   9.367  0.5994 -0.1454 -0.9814
    7SAPS  H13S  862   1.948   0.133   9.491  1.4596  0.0394  1.2310
    7SAPS  C214  863   1.893   0.102   9.284  0.9266 -0.2568  0.8545
    7SAPS  H14R  864   1.797   0.060   9.317  0.7209 -0.6075 -0.1636
    7SAPS  C215  865   1.892   0.168   9.173  0.3131 -0.3635  0.2984
    7SAPS  H15R  866   1.808   0.158   9.102 -0.6453  1.0025  1.2018
    7SAPS  C216  867   2.007   0.255   9.108  0.8472  0.9836  0.7230
    7SAPS  H16R  868   2.075   0.177   9.067  0.0336  0.2881  0.6753
    7SAPS  H16S  869   2.064   0.308   9.186 -0.8125  0.2055  2.5455
    7SAPS  C217  870   1.956   0.356   9.008 -0.5663  0.4140  0.3995
    7SAPS  H17R  871   2.050   0.406   8.977 -0.6938  0.8839  0.7418
    7SAPS  H17S  872   1.896   0.434   9.059  0.0887  1.6248 -0.6260
    7SAPS  C218  873   1.883   0.299   8.888 -0.1782 -0.7235 -0.8370
    7SAPS  H18R  874   1.785   0.259   8.921  0.3163 -0.4439  1.0782
    7SAPS  H18S  875   1.949   0.222   8.843  1.6077 -0.2080  0.7690
    7SAPS  C219  876   1.861   0.400   8.779  0.6009  0.2602  0.0537
    7SAPS  H19R  877   1.954   0.413   8.720 -0.1224 -1.6995 -1.6146
    7SAPS  H19S  878   1.835   0.503   8.813 -2.9369 -0.5636  0.2019
    7SAPS  C220  879   1.755   0.352   8.677 -0.2621  0.9750  1.1315
    7SAPS  H20R  880   1.778   0.244   8.661 -1.3303  0.8929  0.0203
    7SAPS  H20S  881   1.760   0.404   8.579 -1.4591 -2.3083 -0.8347
    7SAPS  H20T  882   1.650   0.359   8.713 -0.4916  3.2612  0.1897
    7SAPS   C33  883   1.651   0.785   9.748  0.1615 -0.9552 -0.7377
    7SAPS   H3X  884   1.575   0.855   9.789  3.3965  1.5427  1.4264
    7SAPS   H3Y  885   1.596   0.729   9.669  0.7874  0.6929 -2.4113
    7SAPS   C34  886   1.761   0.869   9.685 -0.8123  0.0741  0.2584
    7SAPS   H4X  887   1.841   0.803   9.647  0.3724  0.4018  2.0334
    7SAPS   H4Y  888   1.805   0.941   9.758 -1.7510  2.7642 -1.6772
    7SAPS   C35  889   1.716   0.944   9.564  0.6871 -0.0875  0.1301
    7SAPS   H5X  890   1.631   1.013   9.581  2.1074  1.5886  0.7201
    7SAPS   H5Y  891   1.691   0.863   9.492  0.2636 -2.7421  3.0445
    7SAPS   C36  892   1.822   1.030   9.496 -0.1864  0.0986 -0.1310
    7SAPS   H6X  893   1.915   0.969   9.497  0.5353  1.1015 -1.6339
    7SAPS   H6Y  894   1.841   1.122   9.556 -0.4601 -0.9335  1.6059
    7SAPS   C37  895   1.790   1.073   9.358 -0.3207  0.1573  0.2359
    7SAPS   H7X  896   1.688   1.116   9.350  0.5776  2.4086  0.0694
    7SAPS   H7Y  897   1.796   0.990   9.285 -3.0430  1.2639 -1.3871
    7SAPS   C38  898   1.883   1.192   9.333 -0.2119  0.0291 -0.2606
    7SAPS   H8X  899   1.987   1.161   9.358 -0.1129  1.0241  0.5908
    7SAPS   H8Y  900   1.862   1.269   9.410 -2.8928 -0.2093 -0.6497
    7SAPS   C39  901   1.875   1.248   9.189  0.6651  0.5808 -0.1177
    7SAPS   H9X  902   1.856   1.357   9.202  4.9077  1.2592  2.3334
    7SAPS   H9Y  903   1.790   1.204   9.133 -1.4747 -0.4824  3.6066
    7SAPS  C310  904   1.992   1.212   9.109  0.0997 -0.0566 -0.1778
    7SAPS  H10X  905   1.957   1.193   9.005 -0.7296 -2.7374  0.5209
    7SAPS  H10Y  906   2.035   1.120   9.153 -0.2541  0.2049  0.7317
    7SAPS  C311  907   2.099   1.320   9.111 -0.5687  0.4351  0.7212
    7SAPS  H11X  908   2.145   1.328   9.212 -0.4992 -0.1052  0.7349
    7SAPS  H11Y  909   2.050   1.414   9.077  0.0522 -0.3042 -2.5347
    7SAPS  C312  910   2.221   1.290   9.016  0.3293  0.2373 -0.6788
    7SAPS  H12X  911   2.283   1.205   9.051 -0.2437 -0.3365 -1.0134
    7SAPS  H12Y  912   2.277   1.385   9.027  0.9776 -0.2681  0.5334
    7SAPS  C313  913   2.188   1.260   8.870 -0.7673  0.4891  0.8212
    7SAPS  H13X  914   2.124   1.346   8.840 -0.5876  0.8559  1.4786
    7SAPS  H13Y  915   2.127   1.168   8.854  1.4722 -1.1609  1.3400
    7SAPS  C314  916   2.311   1.255   8.772 -0.3797 -0.2063  0.1820
    7SAPS  H14X  917   2.378   1.173   8.805 -0.9502  0.6848  3.9996
    7SAPS  H14Y  918   2.370   1.348   8.789  1.2771 -1.5568  2.2496
    7SAPS  C315  919   2.287   1.236   8.625  0.4894  0.0478 -0.1966
    7SAPS  H15X  920   2.258   1.130   8.614 -0.1004  0.0130  1.3278
    7SAPS  H15Y  921   2.376   1.248   8.560 -1.2821 -0.0724 -2.8118
    7SAPS  C316  922   2.191   1.332   8.564 -0.3034 -0.3215  0.3393
    7SAPS  H16X  923   2.227   1.436   8.580  3.5684 -1.6358  1.4258
    7SAPS  H16Y  924   2.099   1.321   8.625  0.8658 -0.3202  2.2102
    7SAPS  C317  925   2.174   1.314   8.418  0.2308  0.5388 -0.2918
    7SAPS  H17X  926   2.135   1.211   8.401 -0.0395  0.5001  0.4959
    7SAPS  H17Y  927   2.275   1.338   8.377  0.6993 -1.1058 -0.1982
    7SAPS  C318  928   2.069   1.406   8.354  0.3312 -0.9823  0.0438
    7SAPS  H18X  929   2.077   1.405   8.243  1.7503  1.2620  0.0581
    7SAPS  H18Y  930   2.097   1.509   8.387 -0.4930 -1.1755  1.4450
    7SAPS  H18Z  931   1.968   1.382   8.393 -0.0751 -0.1991 -0.4996
    8SAPS     N  932   6.739   2.006  11.438  0.5006 -0.7161  0.2611
    8SAPS   HN1  933   6.746   2.030  11.539 -2.0520 -2.2807  0.9061
    8SAPS   HN2  934   6.720   1.905  11.423 -0.4427 -0.8823  2.2194
    8SAPS   HN3  935   6.816   2.022  11.370 -0.2683  0.1685 -0.4288
    8SAPS   C12  936   6.625   2.082  11.386 -0.4205  0.0024  0.3933
    8SAPS  H12A  937   6.544   2.053  11.451  1.6578 -0.1232  3.1278
    8SAPS   C13  938   6.635   2.239  11.373 -0.0456 -0.1497  0.4009
    8SAPS  O13A  939   6.728   2.304  11.418  0.3577  0.1895 -0.3116
    8SAPS  O13B  940   6.524   2.284  11.332 -0.4157  0.6427 -0.1561
    8SAPS   C11  941   6.594   2.017  11.250 -0.3520 -0.1971  0.1312
    8SAPS  H11A  942   6.658   2.064  11.172 -2.0620 -0.1653 -1.3314
    8SAPS  H11B  943   6.491   2.046  11.222 -0.6042 -2.0144 -1.0157
    8SAPS     P  944   6.611   1.787  11.122 -0.0426  0.2471 -0.1874
    8SAPS   O13  945   6.741   1.828  11.060 -0.2124  0.4068 -0.4140
    8SAPS   O14  946   6.596   1.639  11.149  0.4488  0.1318 -0.8007
    8SAPS   O12  947   6.593   1.875  11.253  0.6786 -0.5425 -0.1288
    8SAPS   O11  948   6.490   1.834  11.029 -0.5100  0.1501  0.6191
    8SAPS    C1  949   6.487   1.771  10.894 -0.5050  0.4596  0.2547
    8SAPS    HA  950   6.560   1.687  10.886  0.2209  1.0361  0.7789
    8SAPS    HB  951   6.387   1.726  10.876 -1.1953  0.7424  2.9632
    8SAPS    C2  952   6.513   1.874  10.784  0.0993  0.3580 -0.3147
    8SAPS    HS  953   6.424   1.880  10.718 -0.4747 -1.4221  0.2687
    8SAPS   O21  954   6.630   1.826  10.711 -0.2962 -0.1301 -0.4360
    8SAPS   C21  955   6.590   1.722  10.637 -0.1986  0.3380  0.7064
    8SAPS   O22  956   6.474   1.696  10.609 -0.4933  0.5880 -0.2285
    8SAPS   C22  957   6.714   1.659  10.569  0.2685  0.5071  0.6764
    8SAPS   H2R  958   6.785   1.740  10.542  0.3455  1.6088  3.7542
    8SAPS   H2S  959   6.757   1.589  10.644 -0.8194 -1.8892 -0.8119
    8SAPS    C3  960   6.551   2.008  10.832 -0.4733 -0.8703  0.3131
    8SAPS    HX  961   6.635   1.998  10.904  0.2513  0.6475 -0.2669
    8SAPS    HY  962   6.471   2.053  10.893  0.6917 -2.6390  3.4008
    8SAPS   O31  963   6.586   2.098  10.719 -0.0849 -0.9562  0.5440
    8SAPS   C31  964   6.619   2.217  10.763  0.8422  0.2104 -0.8231
    8SAPS   O32  965   6.641   2.246  10.883 -0.2488  0.0831 -0.3016
    8SAPS   C32  966   6.625   2.316  10.653  0.2276 -0.0682 -0.6301
    8SAPS   H2X  967   6.629   2.419  10.694 -0.4917  0.8277 -2.7074
    8SAPS   H2Y  968   6.531   2.309  10.593 -1.5361  0.9243  1.8500
    8SAPS   C23  969   6.671   1.570  10.445  0.2042 -0.1929 -0.0893
    8SAPS   H3R  970   6.597   1.491  10.470  0.8640 -1.3868 -1.7504
    8SAPS   H3S  971   6.758   1.511  10.411  0.8293  0.7350 -0.1313
    8SAPS   C24  972   6.621   1.652  10.319 -0.1033  0.1999  0.1337
    8SAPS   H4R  973   6.554   1.725  10.368  0.9587 -0.2722  2.4222
    8SAPS   H4S  974   6.568   1.579  10.254  0.1908 -1.8650  2.0916
    8SAPS   C25  975   6.742   1.717  10.260 -0.4464  0.3722 -0.0003
    8SAPS   H5R  976   6.778   1.805  10.315 -0.8802  1.5328 -1.5349
    8SAPS   C26  977   6.801   1.680  10.148  0.3207  0.1175  0.1899
    8SAPS   H6R  978   6.891   1.731  10.110 -0.4252  2.7150  1.6037
    8SAPS   C27  979   6.763   1.572  10.061 -0.2117 -0.6502  0.2382
    8SAPS   H7R  980   6.687   1.604   9.985 -0.5134  0.2792  0.9038
    8SAPS   H7S  981   6.717   1.492  10.123 -0.0711 -0.0043  1.1974
    8SAPS   C28  982   6.877   1.512   9.973 -0.3848 -0.0874  0.3860
    8SAPS   H8R  983   6.931   1.421  10.004  0.0097 -0.5393 -1.4849
    8SAPS   C29  984   6.908   1.573   9.854 -0.4943  0.4383 -0.9093
    8SAPS   H9R  985   6.988   1.532   9.791 -0.1772 -1.4274  0.6098
    8SAPS  C210  986   6.856   1.707   9.808  0.8007 -0.1030 -0.1453
    8SAPS  H10R  987   6.814   1.769   9.890  3.0505  0.3405  0.7634
    8SAPS  H10S  988   6.773   1.695   9.735  1.6445 -1.1409 -0.9777
    8SAPS  C211  989   6.964   1.787   9.750 -0.8945  0.2096  0.7908
    8SAPS  H11R  990   7.020   1.839   9.829  1.1187 -0.8204  0.1108
    8SAPS  C212  991   7.004   1.782   9.620  0.3639 -0.3981 -0.0785
    8SAPS  H12R  992   7.089   1.849   9.598  0.6184 -0.3430  1.0012
    8SAPS  C213  993   6.932   1.700   9.517  0.1861 -0.2701  0.2806
    8SAPS  H13R  994   6.857   1.626   9.553 -0.6085 -0.4912 -1.7116
    8SAPS  H13S  995   7.009   1.640   9.464 -0.3181 -0.1693 -0.5849
    8SAPS  C214  996   6.852   1.797   9.427 -0.1727  0.0084 -0.1108
    8SAPS  H14R  997   6.775   1.857   9.477  0.6210  1.9206 -1.0717
    8SAPS  C215  998   6.876   1.824   9.296  0.7312  0.1773 -0.4526
    8SAPS  H15R  999   6.807   1.894   9.247  1.0174  0.9063  0.1632
    8SAPS  C216 1000   6.977   1.761   9.210 -0.0478 -0.8885  0.2333
    8SAPS  H16R 1001   7.023   1.668   9.249  2.5572  0.6680  1.1080
    8SAPS  H16S 1002   7.065   1.827   9.194 -0.0850 -0.6552  0.9793
    8SAPS  C217 1003   6.921   1.728   9.071  0.0174  0.1597 -0.2284
    8SAPS  H17R 1004   6.849   1.810   9.049  0.3227  0.1839 -1.1707
    8SAPS  H17S 1005   6.867   1.631   9.077 -2.3270  1.4636  0.9234
    8SAPS  C218 1006   7.022   1.724   8.954 -0.0840  0.1457 -0.0987
    8SAPS  H18R 1007   7.111   1.662   8.980 -1.5892 -1.3969  1.5828
    8SAPS  H18S 1008   7.043   1.833   8.945  0.4524  0.1094  0.6238
    8SAPS  C219 1009   6.957   1.662   8.829 -0.0064 -0.1087  0.2770
    8SAPS  H19R 1010   6.945   1.552   8.840 -1.5240  0.0789  0.7766
    8SAPS  H19S 1011   7.036   1.674   8.752 -0.7293  1.0538 -0.3095
    8SAPS  C220 1012   6.826   1.724   8.786 -0.0843  0.4315  0.4326
    8SAPS  H20R 1013   6.803   1.703   8.680  2.7266 -3.0018  0.3024
    8SAPS  H20S 1014   6.831   1.832   8.813  1.4062  0.2301  1.0913
    8SAPS  H20T 1015   6.743   1.682   8.848 -1.8256  1.2125 -1.2728
    8SAPS   C33 1016   6.755   2.304  10.570  0.4123  0.2134 -0.2781
    8SAPS   H3X 1017   6.850   2.305  10.627  0.9039 -0.3384 -1.0602
    8SAPS   H3Y 1018   6.764   2.397  10.509  1.4117 -0.1717 -0.7467
    8SAPS   C34 1019   6.757   2.184  10.464  0.1197 -0.4936 -0.0548
    8SAPS   H4X 1020   6.736   2.090  10.518 -0.4465 -0.9390 -1.0152
    8SAPS   H4Y 1021   6.857   2.172  10.417 -0.2889 -1.4483 -0.7149
    8SAPS   C35 1022   6.657   2.185  10.343 -0.1944 -0.0466  0.3744
    8SAPS   H5X 1023   6.682   2.275  10.283  0.7828 -1.8259 -2.0527
    8SAPS   H5Y 1024   6.552   2.203  10.374 -0.5778 -0.0117 -0.9190
    8SAPS   C36 1025   6.672   2.064  10.251 -0.1654  0.4841  0.4563
    8SAPS   H6X 1026   6.618   1.985  10.308  0.3740 -1.0932 -1.1245
    8SAPS   H6Y 1027   6.779   2.036  10.257 -0.2356 -0.1460 -0.9769
    8SAPS   C37 1028   6.639   2.095  10.107  0.1823  0.4685 -1.2607
    8SAPS   H7X 1029   6.709   2.178  10.081  3.5181 -2.2263 -1.5228
    8SAPS   H7Y 1030   6.532   2.125  10.103  0.6940  3.2860  1.7513
    8SAPS   C38 1031   6.658   1.979  10.004 -0.4127 -0.0204 -0.1560
    8SAPS   H8X 1032   6.576   1.904  10.018 -1.0640  0.8833  1.0725
    8SAPS   H8Y 1033   6.750   1.923  10.030  0.4711  0.2502 -2.4716
    8SAPS   C39 1034   6.661   2.017   9.854  0.2641  0.1583  0.2559
    8SAPS   H9X 1035   6.669   1.919   9.803  2.9447  0.4081  0.0700
    8SAPS   H9Y 1036   6.762   2.058   9.832  0.9377 -1.2771  0.5728
    8SAPS  C310 1037   6.553   2.116   9.802 -1.1169  0.1067  0.6633
    8SAPS  H10X 1038   6.589   2.209   9.851  0.7515 -0.1365 -0.1641
    8SAPS  H10Y 1039   6.453   2.087   9.840 -1.4051  2.4244  1.8651
    8SAPS  C311 1040   6.548   2.130   9.654 -0.6648  0.0816 -0.0937
    8SAPS  H11X 1041   6.648   2.154   9.610 -1.0752  2.0814 -0.0133
    8SAPS  H11Y 1042   6.491   2.224   9.644 -0.9449  0.0651  1.2109
    8SAPS  C312 1043   6.477   2.018   9.581 -0.3522 -0.3937  0.1035
    8SAPS  H12X 1044   6.391   1.974   9.635 -1.8473  3.0154  0.7512
    8SAPS  H12Y 1045   6.549   1.938   9.555 -0.6907 -1.3892  1.9960
    8SAPS  C313 1046   6.431   2.073   9.448  0.5752 -0.1990  0.6298
    8SAPS  H13X 1047   6.369   2.165   9.455 -2.2939 -1.9727  0.3183
    8SAPS  H13Y 1048   6.364   1.992   9.411  0.7229 -0.2434  0.4573
    8SAPS  C314 1049   6.542   2.089   9.349 -0.1703 -0.1571  0.6860
    8SAPS  H14X 1050   6.585   1.989   9.327 -0.3082 -0.1593  0.4187
    8SAPS  H14Y 1051   6.615   2.156   9.400  1.6825  0.0139 -1.9737
    8SAPS  C315 1052   6.494   2.146   9.217  0.7632 -0.1675 -0.2149
    8SAPS  H15X 1053   6.455   2.244   9.252 -2.0106 -1.6421  1.1403
    8SAPS  H15Y 1054   6.414   2.094   9.162 -0.9894  0.0936  1.9306
    8SAPS  C316 1055   6.604   2.169   9.118 -0.3144  0.1233  0.1501
    8SAPS  H16X 1056   6.642   2.072   9.079 -0.9067 -0.7315  1.6150
    8SAPS  H16Y 1057   6.694   2.213   9.166 -1.0674  0.2079  1.5224
    8SAPS  C317 1058   6.576   2.265   9.000 -0.5508  0.0850 -0.3690
    8SAPS  H17X 1059   6.667   2.307   8.953 -0.2669 -0.2835 -0.1511
    8SAPS  H17Y 1060   6.522   2.354   9.038  0.4535  0.0865  1.1232
    8SAPS  C318 1061   6.499   2.200   8.890  0.3194  0.1247 -0.2422
    8SAPS  H18X 1062   6.471   2.267   8.806 -0.2735 -2.0726 -1.8975
    8SAPS  H18Y 1063   6.404   2.157   8.929  0.2062 -0.0114 -0.6587
    8SAPS  H18Z 1064   6.564   2.122   8.844  0.8391  0.1460  0.4460
    9SAPS     N 1065   1.859   2.022   6.422 -0.9039  0.9182  0.4857
    9SAPS   HN1 1066   1.771   2.014   6.476  0.1792 -0.3034  2.2054
    9SAPS   HN2 1067   1.870   1.925   6.387 -3.2280  1.0678 -0.8306
    9SAPS   HN3 1068   1.925   2.063   6.492  0.6708  1.4240 -1.2268
    9SAPS   C12 1069   1.837   2.103   6.297  0.6004  0.0575 -0.2181
    9SAPS  H12A 1070   1.926   2.111   6.236  0.3873 -0.4350 -0.5983
    9SAPS   C13 1071   1.723   2.053   6.206 -0.5093 -0.6703  0.4214
    9SAPS  O13A 1072   1.658   1.951   6.234 -0.1485  0.2311  1.1213
    9SAPS  O13B 1073   1.733   2.088   6.085 -0.2196 -0.3295  0.5530
    9SAPS   C11 1074   1.806   2.244   6.345  0.2204  0.0524 -0.7252
    9SAPS  H11A 1075   1.705   2.248   6.390  0.5903 -2.2707  0.4418
    9SAPS  H11B 1076   1.811   2.319   6.263 -0.0566  1.4223  0.4568
    9SAPS     P 1077   1.977   2.416   6.444 -0.3173 -0.2948  0.3046
    9SAPS   O13 1078   2.039   2.440   6.308 -0.1765 -0.0110 -0.2990
    9SAPS   O14 1079   1.882   2.511   6.497  0.2137 -0.3804  0.3114
    9SAPS   O12 1080   1.906   2.277   6.441  0.6961 -0.0671  0.2179
    9SAPS   O11 1081   2.095   2.394   6.544  0.7041 -0.0502  0.1961
    9SAPS    C1 1082   2.078   2.416   6.686  0.3418 -0.3127  0.5712
    9SAPS    HA 1083   2.038   2.519   6.694  1.4654  0.0585  1.9050
    9SAPS    HB 1084   1.996   2.355   6.729  0.0967 -0.5281 -0.1902
    9SAPS    C2 1085   2.210   2.395   6.756 -0.3803  0.7433  0.0647
    9SAPS    HS 1086   2.257   2.300   6.720  2.0276  1.1520  1.8758
    9SAPS   O21 1087   2.185   2.375   6.893 -0.3163  0.4359  0.4721
    9SAPS   C21 1088   2.272   2.298   6.961 -0.7874 -0.0347  0.9753
    9SAPS   O22 1089   2.342   2.208   6.917  0.3317 -0.1488  0.0742
    9SAPS   C22 1090   2.264   2.330   7.108 -0.1312 -0.1385  0.5916
    9SAPS   H2R 1091   2.170   2.286   7.150  1.2439 -2.2918  1.6077
    9SAPS   H2S 1092   2.350   2.284   7.161 -0.3372  0.7066  1.7032
    9SAPS    C3 1093   2.325   2.489   6.714 -0.8072  0.0025  0.6506
    9SAPS    HX 1094   2.276   2.588   6.706 -1.1947 -0.2028  0.4653
    9SAPS    HY 1095   2.362   2.454   6.615  0.1177  2.2397  0.1295
    9SAPS   O31 1096   2.431   2.481   6.813  0.3146 -0.2730 -0.2685
    9SAPS   C31 1097   2.541   2.543   6.776 -0.2105  0.3351  0.9835
    9SAPS   O32 1098   2.560   2.588   6.668 -1.0617 -0.2983  0.1443
    9SAPS   C32 1099   2.620   2.579   6.901  0.3066 -0.5233  0.2174
    9SAPS   H2X 1100   2.560   2.545   6.989  2.2735 -1.9419  1.0743
    9SAPS   H2Y 1101   2.621   2.690   6.905  1.3398 -0.3596 -2.6057
    9SAPS   C23 1102   2.267   2.475   7.143  0.2231 -0.0264 -0.1939
    9SAPS   H3R 1103   2.181   2.525   7.092  1.0277  1.0989 -0.4832
    9SAPS   H3S 1104   2.360   2.524   7.108  0.0777  0.9681  0.7523
    9SAPS   C24 1105   2.243   2.512   7.295  0.2405 -0.5961 -0.0240
    9SAPS   H4R 1106   2.150   2.470   7.341 -0.4591 -1.0098 -1.7495
    9SAPS   H4S 1107   2.230   2.622   7.300 -0.1521 -0.6833  2.1620
    9SAPS   C25 1108   2.360   2.457   7.369  0.1269 -0.1690 -0.2075
    9SAPS   H5R 1109   2.429   2.389   7.318 -0.9389 -0.6727 -1.0204
    9SAPS   C26 1110   2.370   2.502   7.493  0.3076  0.5154 -0.7081
    9SAPS   H6R 1111   2.459   2.462   7.544 -0.1716  1.9253  1.3457
    9SAPS   C27 1112   2.280   2.595   7.575  0.3868  0.5308 -0.2701
    9SAPS   H7R 1113   2.210   2.523   7.624 -0.3639  1.9141  0.7620
    9SAPS   H7S 1114   2.218   2.674   7.528  1.0803  0.8941 -0.5917
    9SAPS   C28 1115   2.358   2.666   7.683  0.3714  0.2994 -0.3038
    9SAPS   H8R 1116   2.371   2.773   7.659 -0.0706  0.5002  0.3172
    9SAPS   C29 1117   2.404   2.621   7.803  0.3898 -0.1406 -0.1658
    9SAPS   H9R 1118   2.434   2.700   7.873  1.4220  0.0842 -0.8590
    9SAPS  C210 1119   2.383   2.476   7.853  0.6616 -0.6921  0.0275
    9SAPS  H10R 1120   2.479   2.422   7.859 -0.2736 -2.5065 -0.6017
    9SAPS  H10S 1121   2.335   2.422   7.769 -0.5754  1.7380 -0.9498
    9SAPS  C211 1122   2.297   2.477   7.979 -0.3332  0.1752  0.7540
    9SAPS  H11R 1123   2.189   2.472   7.959 -0.1521 -3.5363 -0.0020
    9SAPS  C212 1124   2.341   2.471   8.108 -0.9422  0.2220  0.1766
    9SAPS  H12R 1125   2.264   2.455   8.186 -0.5120 -1.7122  0.2418
    9SAPS  C213 1126   2.482   2.459   8.157  0.2708  0.2290  0.3426
    9SAPS  H13R 1127   2.552   2.497   8.079  1.3122 -0.0386  1.1258
    9SAPS  H13S 1128   2.506   2.350   8.157  0.5824  0.2820 -0.8746
    9SAPS  C214 1129   2.504   2.531   8.289 -0.6410 -0.1190  0.0988
    9SAPS  H14R 1130   2.526   2.637   8.270 -1.1875  0.1859  1.0621
    9SAPS  C215 1131   2.504   2.491   8.416 -0.0006  0.1524 -0.1105
    9SAPS  H15R 1132   2.527   2.565   8.494  1.2155  0.6566 -0.9246
    9SAPS  C216 1133   2.472   2.350   8.463  0.7692 -0.1624 -0.4991
    9SAPS  H16R 1134   2.543   2.318   8.543 -0.6265 -1.1211  0.4093
    9SAPS  H16S 1135   2.468   2.270   8.386 -1.2625 -0.2178 -0.3919
    9SAPS  C217 1136   2.336   2.353   8.539 -0.0037 -1.0165 -0.5548
    9SAPS  H17R 1137   2.337   2.429   8.620  1.1698 -2.2584  0.6739
    9SAPS  H17S 1138   2.328   2.257   8.595  1.7287  0.3400  2.2510
    9SAPS  C218 1139   2.216   2.365   8.457 -0.2678  0.1328  0.0068
    9SAPS  H18R 1140   2.208   2.278   8.388  2.1280 -1.0085  1.0528
    9SAPS  H18S 1141   2.218   2.456   8.393  0.2723 -0.1110 -0.3276
    9SAPS  C219 1142   2.094   2.365   8.544 -0.2642  0.4960 -0.9388
    9SAPS  H19R 1143   2.095   2.424   8.639 -1.7702  0.7523 -1.0418
    9SAPS  H19S 1144   2.070   2.262   8.579 -0.5046  1.0512  0.6142
    9SAPS  C220 1145   1.974   2.402   8.460 -0.0544 -0.3770  0.8220
    9SAPS  H20R 1146   2.007   2.467   8.377  0.4554  0.3465  1.5800
    9SAPS  H20S 1147   1.888   2.449   8.512 -1.6849 -1.9529 -0.3082
    9SAPS  H20T 1148   1.919   2.317   8.413  0.1200  0.3151 -0.6946
    9SAPS   C33 1149   2.770   2.521   6.908  0.1506 -0.1688 -0.2169
    9SAPS   H3X 1150   2.827   2.553   6.818 -1.0593  0.4658 -0.7922
    9SAPS   H3Y 1151   2.752   2.411   6.915 -3.6756  0.3259  0.1332
    9SAPS   C34 1152   2.841   2.560   7.039 -0.1141 -0.3432  0.0251
    9SAPS   H4X 1153   2.865   2.668   7.032  0.6395 -0.6175 -2.8415
    9SAPS   H4Y 1154   2.930   2.496   7.056 -0.6789 -0.9482  0.7986
    9SAPS   C35 1155   2.768   2.521   7.176  0.4417  0.4010  0.2694
    9SAPS   H5X 1156   2.759   2.411   7.168 -1.6577  0.6480 -1.8217
    9SAPS   H5Y 1157   2.662   2.554   7.181  0.6449  0.9559  1.5058
    9SAPS   C36 1158   2.845   2.562   7.297  0.1747 -0.1102 -0.3685
    9SAPS   H6X 1159   2.862   2.671   7.289  2.3381 -0.3760 -0.0404
    9SAPS   H6Y 1160   2.936   2.498   7.301  0.6582  0.5890  0.0458
    9SAPS   C37 1161   2.772   2.551   7.438  0.6924  0.0111  0.2888
    9SAPS   H7X 1162   2.766   2.444   7.467  0.8122 -0.2267 -0.5350
    9SAPS   H7Y 1163   2.665   2.575   7.422  0.4937  0.0912  1.6111
    9SAPS   C38 1164   2.841   2.626   7.555  1.0525  0.3363 -0.6466
    9SAPS   H8X 1165   2.837   2.732   7.524 -2.0057  0.2933 -0.6568
    9SAPS   H8Y 1166   2.946   2.594   7.574  0.5787 -0.4192  0.8709
    9SAPS   C39 1167   2.761   2.604   7.690 -0.2296  0.2499  0.1915
    9SAPS   H9X 1168   2.764   2.494   7.703 -1.5582  0.3604  1.7809
    9SAPS   H9Y 1169   2.655   2.637   7.679 -0.9922 -1.3712  2.1159
    9SAPS  C310 1170   2.822   2.662   7.819  0.2501 -0.1110 -0.1398
    9SAPS  H10X 1171   2.801   2.771   7.828 -1.7235 -0.4584 -0.0233
    9SAPS  H10Y 1172   2.931   2.642   7.816  0.3733  0.4396  0.3926
    9SAPS  C311 1173   2.766   2.588   7.938  0.0480 -0.8313 -0.1031
    9SAPS  H11X 1174   2.798   2.483   7.926  0.8210 -0.6718  0.4730
    9SAPS  H11Y 1175   2.656   2.586   7.918 -0.0428 -0.1032  0.2534
    9SAPS  C312 1176   2.811   2.647   8.068 -0.0322 -0.3150  0.4785
    9SAPS  H12X 1177   2.751   2.594   8.145  0.4630  0.1952  1.2373
    9SAPS  H12Y 1178   2.790   2.755   8.082 -0.5091 -0.3485  0.0731
    9SAPS  C313 1179   2.955   2.618   8.104  0.4706 -0.5624  0.6159
    9SAPS  H13X 1180   3.019   2.693   8.053 -0.7227  0.4540  0.5629
    9SAPS  H13Y 1181   2.980   2.516   8.066 -0.9319  0.0540 -2.2643
    9SAPS  C314 1182   2.982   2.627   8.251 -0.2303 -0.0379  0.2339
    9SAPS  H14X 1183   2.935   2.721   8.286 -0.6899 -0.4709  0.8120
    9SAPS  H14Y 1184   3.092   2.631   8.262 -0.2817 -0.7247  1.1841
    9SAPS  C315 1185   2.929   2.511   8.340  0.9536  0.6008  0.0757
    9SAPS  H15X 1186   2.930   2.416   8.282  1.9134 -2.3292  4.4094
    9SAPS  H15Y 1187   2.823   2.529   8.367  0.6440 -0.0115 -0.6876
    9SAPS  C316 1188   3.023   2.501   8.459  0.0030  0.4936  0.0827
    9SAPS  H16X 1189   2.992   2.576   8.535  2.7081  0.5028  1.2911
    9SAPS  H16Y 1190   3.130   2.518   8.434  0.1936 -4.0950 -3.6372
    9SAPS  C317 1191   3.015   2.364   8.525 -0.3665  0.0611 -0.8120
    9SAPS  H17X 1192   3.120   2.331   8.538  1.2700  3.9627 -2.4946
    9SAPS  H17Y 1193   2.972   2.276   8.474  1.1771 -3.1639  2.9094
    9SAPS  C318 1194   2.952   2.375   8.670 -0.8553 -0.1458  0.3574
    9SAPS  H18X 1195   2.980   2.289   8.735 -0.5403  0.1255  0.5824
    9SAPS  H18Y 1196   2.842   2.389   8.662 -1.0063 -0.6204  1.4620
    9SAPS  H18Z 1197   2.995   2.469   8.709 -1.3425  0.8642 -1.4132
   10SAPS     N 1198   3.969   4.520   6.140 -0.5158  0.4175  0.4324
   10SAPS   HN1 1199   3.967   4.448   6.214 -0.2280 -1.0043 -0.8917
   10SAPS   HN2 1200   3.949   4.616   6.174 -1.0948  0.9894 -1.3635
   10SAPS   HN3 1201   3.893   4.500   6.072  2.6024  0.9461 -3.6985
   10SAPS   C12 1202   4.087   4.517   6.057 -0.1640 -0.1417 -0.1580
   10SAPS  H12A 1203   4.106   4.413   6.035 -1.2264 -0.3349 -0.2304
   10SAPS   C13 1204   4.059   4.587   5.923  0.5935 -0.9257 -0.0653
   10SAPS  O13A 1205   3.947   4.634   5.898 -0.2055  0.3768  0.3516
   10SAPS  O13B 1206   4.152   4.598   5.834 -0.0152 -0.3690 -0.2327
   10SAPS   C11 1207   4.212   4.582   6.122  0.4727  0.1925  0.8321
   10SAPS  H11A 1208   4.298   4.554   6.057  0.1802  2.6563 -0.7261
   10SAPS  H11B 1209   4.228   4.534   6.221  0.1132  0.0062  0.8049
   10SAPS     P 1210   4.174   4.797   6.276  0.1403  0.0696  0.2011
   10SAPS   O13 1211   4.219   4.939   6.271 -0.5864  0.1511  0.6941
   10SAPS   O14 1212   4.030   4.758   6.301 -0.6150 -0.1839 -0.3622
   10SAPS   O12 1213   4.219   4.730   6.142 -0.6002 -0.5364  0.5389
   10SAPS   O11 1214   4.267   4.716   6.374  0.4407 -0.0633  0.5896
   10SAPS    C1 1215   4.406   4.742   6.353 -0.8654 -0.7622 -0.7099
   10SAPS    HA 1216   4.449   4.674   6.276 -1.0068  0.2654 -1.7105
   10SAPS    HB 1217   4.431   4.844   6.316  2.9599 -0.1357  2.8233
   10SAPS    C2 1218   4.483   4.708   6.481 -0.3764  0.6755 -0.2137
   10SAPS    HS 1219   4.437   4.613   6.514 -0.3782  0.4305 -0.9057
   10SAPS   O21 1220   4.463   4.818   6.574 -0.4074  0.0180  0.6341
   10SAPS   C21 1221   4.446   4.789   6.691  0.5443  0.4114  0.2931
   10SAPS   O22 1222   4.450   4.678   6.737  0.3018  0.3167 -0.0847
   10SAPS   C22 1223   4.417   4.913   6.780 -0.0270 -0.0153 -0.0399
   10SAPS   H2R 1224   4.494   4.990   6.758  2.3436 -2.0061  0.8666
   10SAPS   H2S 1225   4.317   4.943   6.742 -0.4770 -1.7348 -0.2863
   10SAPS    C3 1226   4.633   4.692   6.459  0.1475 -0.1301  0.2212
   10SAPS    HX 1227   4.660   4.797   6.434  0.9960  0.2317  2.4345
   10SAPS    HY 1228   4.655   4.627   6.371 -0.3302  0.9648 -0.7314
   10SAPS   O31 1229   4.713   4.651   6.572  0.4649 -0.6498 -0.2306
   10SAPS   C31 1230   4.698   4.525   6.609  0.4406  0.3280  0.0780
   10SAPS   O32 1231   4.627   4.441   6.559 -0.2339  0.3668 -0.3327
   10SAPS   C32 1232   4.774   4.496   6.728 -0.0793 -0.4175  0.3987
   10SAPS   H2X 1233   4.730   4.553   6.812  1.3764 -0.6276  1.3492
   10SAPS   H2Y 1234   4.878   4.533   6.711  0.1718 -1.3307 -0.1028
   10SAPS   C23 1235   4.425   4.867   6.929  0.1868 -0.1431 -0.4691
   10SAPS   H3R 1236   4.520   4.810   6.935  1.0426  1.3669  1.3070
   10SAPS   H3S 1237   4.334   4.814   6.966 -1.4148  2.7420 -0.0048
   10SAPS   C24 1238   4.437   4.998   7.026 -0.5457 -0.7874  0.5629
   10SAPS   H4R 1239   4.523   5.065   7.004 -1.9092  0.5802 -0.7597
   10SAPS   H4S 1240   4.451   4.958   7.129  1.1304 -3.2771 -0.5119
   10SAPS   C25 1241   4.321   5.086   7.005 -0.3989  0.3540  0.5488
   10SAPS   H5R 1242   4.313   5.141   6.910 -2.5788 -0.6256  0.0990
   10SAPS   C26 1243   4.226   5.102   7.093  1.0317  0.5291  0.4526
   10SAPS   H6R 1244   4.151   5.182   7.080 -1.1278 -1.5502 -0.6880
   10SAPS   C27 1245   4.217   5.039   7.231 -0.0473  0.0995 -0.4881
   10SAPS   H7R 1246   4.224   4.929   7.222  0.4915  0.3026 -3.4104
   10SAPS   H7S 1247   4.121   5.058   7.285 -0.0538  0.0303 -0.4748
   10SAPS   C28 1248   4.321   5.090   7.330 -0.1988 -0.0509 -0.0264
   10SAPS   H8R 1249   4.359   5.191   7.312  1.1179 -0.9784 -3.2796
   10SAPS   C29 1250   4.384   5.025   7.424 -0.2313 -0.4404  0.0411
   10SAPS   H9R 1251   4.454   5.084   7.485 -0.0008 -0.0413 -0.5962
   10SAPS  C210 1252   4.360   4.881   7.469  0.1780 -0.2269 -0.3149
   10SAPS  H10R 1253   4.446   4.825   7.426  1.9136  1.1122  1.2108
   10SAPS  H10S 1254   4.274   4.835   7.416  0.7307 -0.7033 -0.8106
   10SAPS  C211 1255   4.353   4.841   7.614  0.8546  0.0279 -0.4844
   10SAPS  H11R 1256   4.441   4.790   7.657 -0.7872 -1.5777  1.1265
   10SAPS  C212 1257   4.241   4.858   7.698  0.4420  0.6897  0.5460
   10SAPS  H12R 1258   4.252   4.845   7.806 -3.8684 -0.6445  1.0015
   10SAPS  C213 1259   4.114   4.928   7.661  0.1263  0.3053  0.0043
   10SAPS  H13R 1260   4.029   4.878   7.713 -0.4371  1.8887  0.6693
   10SAPS  H13S 1261   4.094   4.905   7.554  2.1421 -1.0790 -0.1304
   10SAPS  C214 1262   4.100   5.074   7.691  0.1060  0.7144  0.1508
   10SAPS  H14R 1263   4.126   5.130   7.600 -2.0447  1.2497 -0.1899
   10SAPS  C215 1264   4.077   5.131   7.817  0.0446 -0.3602 -0.7259
   10SAPS  H15R 1265   4.067   5.239   7.834  0.7241 -0.8125  3.7350
   10SAPS  C216 1266   4.056   5.045   7.944  0.5135  0.3461 -0.0970
   10SAPS  H16R 1267   4.150   5.045   8.003 -0.1960  1.4472  1.0791
   10SAPS  H16S 1268   4.030   4.939   7.923 -3.7192  1.3474 -0.7705
   10SAPS  C217 1269   3.945   5.099   8.042 -0.5608 -0.0973  0.3352
   10SAPS  H17R 1270   3.925   5.022   8.118  0.0992  1.3853  2.0940
   10SAPS  H17S 1271   3.859   5.124   7.976  0.9515  0.2378 -1.6331
   10SAPS  C218 1272   3.989   5.228   8.110 -0.6145  0.3137  0.0446
   10SAPS  H18R 1273   3.899   5.263   8.166 -0.7504  2.0229 -1.1575
   10SAPS  H18S 1274   4.004   5.305   8.031 -0.7241 -0.4999 -0.7857
   10SAPS  C219 1275   4.103   5.213   8.220  0.6618  0.7842  0.8614
   10SAPS  H19R 1276   4.197   5.170   8.179  1.1367  1.0272  1.6762
   10SAPS  H19S 1277   4.056   5.141   8.291 -0.8622  1.2448  0.3672
   10SAPS  C220 1278   4.127   5.342   8.299  0.2345  1.0248  0.0787
   10SAPS  H20R 1279   4.033   5.392   8.333 -1.4205 -2.2262  0.6419
   10SAPS  H20S 1280   4.177   5.415   8.231  1.6119 -0.0657 -0.1168
   10SAPS  H20T 1281   4.185   5.318   8.391 -2.5981 -0.2831  1.6760
   10SAPS   C33 1282   4.779   4.345   6.757 -0.7242 -0.6215 -0.1625
   10SAPS   H3X 1283   4.817   4.290   6.668 -0.9013 -0.8522 -0.0968
   10SAPS   H3Y 1284   4.688   4.312   6.812  1.1505  0.0850  3.6956
   10SAPS   C34 1285   4.894   4.322   6.862  0.3825 -0.3191  0.2028
   10SAPS   H4X 1286   4.995   4.334   6.817  0.3987  1.3555  0.6296
   10SAPS   H4Y 1287   4.880   4.213   6.876 -0.3074 -0.2001  0.4963
   10SAPS   C35 1288   4.900   4.416   6.981 -0.0833  0.9793  1.0611
   10SAPS   H5X 1289   4.801   4.430   7.030 -0.7830 -2.5173  0.9233
   10SAPS   H5Y 1290   4.936   4.518   6.957 -3.0130  1.5984 -1.3225
   10SAPS   C36 1291   4.990   4.355   7.085 -0.1320  0.0205  0.1219
   10SAPS   H6X 1292   5.094   4.358   7.046  0.1147  2.0553  0.8283
   10SAPS   H6Y 1293   4.967   4.249   7.110  0.0937 -0.4392 -1.5329
   10SAPS   C37 1294   5.016   4.440   7.217  0.4293 -0.3141  0.2641
   10SAPS   H7X 1295   4.920   4.448   7.272  0.1195 -0.3787 -0.2606
   10SAPS   H7Y 1296   5.039   4.548   7.202 -0.2620 -0.2538 -0.4537
   10SAPS   C38 1297   5.119   4.377   7.307 -0.1763  0.0503 -0.7093
   10SAPS   H8X 1298   5.217   4.376   7.254  0.5942 -0.9105  0.6666
   10SAPS   H8Y 1299   5.094   4.273   7.334 -1.6808  0.8874  1.3580
   10SAPS   C39 1300   5.121   4.449   7.439 -0.2070  0.4097 -0.4990
   10SAPS   H9X 1301   5.031   4.432   7.502 -0.7435  0.6995 -1.1872
   10SAPS   H9Y 1302   5.126   4.560   7.434  2.1117  0.4846  1.3239
   10SAPS  C310 1303   5.248   4.412   7.520  0.8876  0.8785  0.4058
   10SAPS  H10X 1304   5.244   4.474   7.612 -0.0611  0.8682  0.3847
   10SAPS  H10Y 1305   5.329   4.438   7.449  1.0498 -3.4653 -1.2974
   10SAPS  C311 1306   5.251   4.264   7.559 -0.5836  0.0506 -0.5603
   10SAPS  H11X 1307   5.261   4.200   7.468  0.1045  0.4842 -0.7971
   10SAPS  H11Y 1308   5.153   4.241   7.607 -0.7823  1.9811  0.0189
   10SAPS  C312 1309   5.363   4.232   7.669  0.1837 -0.3281  0.1949
   10SAPS  H12X 1310   5.378   4.317   7.739  2.3911 -0.6442  0.1562
   10SAPS  H12Y 1311   5.459   4.229   7.613 -0.3604 -2.2918 -0.7523
   10SAPS  C313 1312   5.352   4.099   7.743  0.1643  0.4842 -0.9277
   10SAPS  H13X 1313   5.298   4.027   7.677  2.6512 -0.4849 -2.0428
   10SAPS  H13Y 1314   5.287   4.112   7.832  0.0981  0.0081 -0.9027
   10SAPS  C314 1315   5.484   4.033   7.793 -0.9582  0.0942  0.5678
   10SAPS  H14X 1316   5.558   4.041   7.711 -1.3890  0.5428  0.2191
   10SAPS  H14Y 1317   5.480   3.925   7.819 -1.9064 -0.4794 -1.7768
   10SAPS  C315 1318   5.553   4.114   7.905  0.8341  0.1412 -0.1881
   10SAPS  H15X 1319   5.523   4.219   7.884 -1.4403  0.4682  3.6277
   10SAPS  H15Y 1320   5.663   4.104   7.899  0.6861 -1.2935 -0.7729
   10SAPS  C316 1321   5.513   4.082   8.048  0.4080  0.4827  0.8937
   10SAPS  H16X 1322   5.404   4.096   8.064  0.4426  3.0313 -0.6056
   10SAPS  H16Y 1323   5.558   4.154   8.119 -1.1927  0.3717  2.0776
   10SAPS  C317 1324   5.547   3.942   8.098  0.3998  1.0056 -0.3098
   10SAPS  H17X 1325   5.657   3.926   8.099  0.3297 -0.1589 -2.8145
   10SAPS  H17Y 1326   5.506   3.860   8.035  1.6752  0.1650 -0.0926
   10SAPS  C318 1327   5.498   3.923   8.242  0.4099 -0.1176  0.4321
   10SAPS  H18X 1328   5.526   3.822   8.278 -0.2814 -0.0607  1.1461
   10SAPS  H18Y 1329   5.390   3.941   8.257 -0.4397 -4.6732  1.2521
   10SAPS  H18Z 1330   5.554   3.994   8.307  0.4205  1.6204 -1.3674
   11SAPS     N 1331   4.136   2.013   5.774 -0.1281 -0.4915 -0.2544
   11SAPS   HN1 1332   4.065   2.073   5.728  0.1890  0.1805  0.1210
   11SAPS   HN2 1333   4.096   1.917   5.780  2.0687 -1.4950 -0.6537
   11SAPS   HN3 1334   4.162   2.043   5.870  3.8888 -2.9196 -0.3237
   11SAPS   C12 1335   4.261   1.996   5.699 -0.1566 -0.5945  0.5954
   11SAPS  H12A 1336   4.238   1.923   5.623 -0.1897 -1.1241  1.1067
   11SAPS   C13 1337   4.326   2.124   5.645  0.8089 -0.2474  0.0541
   11SAPS  O13A 1338   4.265   2.235   5.647 -0.0400  0.3454  0.1149
   11SAPS  O13B 1339   4.443   2.115   5.608 -0.5549  0.1751 -0.0743
   11SAPS   C11 1340   4.361   1.924   5.789  0.1266 -0.2652  0.0881
   11SAPS  H11A 1341   4.400   1.999   5.860 -0.1804 -0.2679  0.2642
   11SAPS  H11B 1342   4.450   1.896   5.729  0.1777  1.5586 -0.7407
   11SAPS     P 1343   4.356   1.758   5.986 -0.0363 -0.0077 -0.4100
   11SAPS   O13 1344   4.234   1.690   6.041  0.5657  0.1420  0.0449
   11SAPS   O14 1345   4.478   1.675   5.969  0.5218  0.3162  0.1348
   11SAPS   O12 1346   4.304   1.804   5.850 -0.1760 -0.3920  0.1468
   11SAPS   O11 1347   4.379   1.888   6.056  0.5834 -0.5381 -0.4125
   11SAPS    C1 1348   4.476   1.910   6.156 -0.7713  0.7094 -0.3895
   11SAPS    HA 1349   4.577   1.890   6.114 -0.6400  1.6800 -0.5600
   11SAPS    HB 1350   4.473   2.017   6.184  0.2587  0.6404  0.0146
   11SAPS    C2 1351   4.464   1.831   6.291 -0.6794 -0.1714  0.3641
   11SAPS    HS 1352   4.465   1.724   6.261  0.1268 -0.0978  0.1026
   11SAPS   O21 1353   4.352   1.880   6.369 -0.5341  0.1178 -0.1031
   11SAPS   C21 1354   4.258   1.802   6.397  0.3363  0.0299 -0.2770
   11SAPS   O22 1355   4.251   1.687   6.354 -0.2149  0.3943 -0.5839
   11SAPS   C22 1356   4.150   1.868   6.479  0.3539  0.8784 -0.3587
   11SAPS   H2R 1357   4.183   1.964   6.523  1.3469  0.3460  0.0724
   11SAPS   H2S 1358   4.065   1.894   6.412  0.1397  0.2069 -0.3520
   11SAPS    C3 1359   4.598   1.847   6.377  0.0526 -0.4471 -0.1171
   11SAPS    HX 1360   4.589   1.949   6.421 -0.6465  0.5195 -2.3386
   11SAPS    HY 1361   4.685   1.852   6.308 -1.1642 -1.5953 -1.8134
   11SAPS   O31 1362   4.617   1.734   6.464  0.1678  0.1396  0.1724
   11SAPS   C31 1363   4.656   1.619   6.401 -0.0668  0.0864  0.6596
   11SAPS   O32 1364   4.701   1.615   6.287  0.4242 -0.0526  0.1429
   11SAPS   C32 1365   4.638   1.501   6.492 -0.1066  0.1578  0.9147
   11SAPS   H2X 1366   4.538   1.458   6.471  0.3810 -1.1113  1.1219
   11SAPS   H2Y 1367   4.652   1.522   6.600 -0.9703 -2.9339  1.7166
   11SAPS   C23 1368   4.108   1.769   6.593  0.1236 -0.7760  0.5280
   11SAPS   H3R 1369   4.203   1.764   6.651  0.2417  0.1489  0.4297
   11SAPS   H3S 1370   4.077   1.672   6.548  0.9003 -0.7626 -0.0635
   11SAPS   C24 1371   3.998   1.817   6.683  0.0716  0.6189  0.0073
   11SAPS   H4R 1372   3.993   1.746   6.768 -3.2854  0.4217 -0.2076
   11SAPS   H4S 1373   3.907   1.801   6.620  0.1594 -0.0656  0.0377
   11SAPS   C25 1374   4.011   1.966   6.717  0.2255 -0.1172 -0.7074
   11SAPS   H5R 1375   3.974   2.034   6.639 -1.7906 -1.4378 -0.9892
   11SAPS   C26 1376   4.046   2.010   6.842  0.2658  0.3726  0.0189
   11SAPS   H6R 1377   4.059   2.118   6.858  0.8941  0.3294 -0.1844
   11SAPS   C27 1378   4.083   1.916   6.965 -0.1308  0.4865  0.1807
   11SAPS   H7R 1379   4.185   1.947   6.998  0.1752 -2.1356  1.9801
   11SAPS   H7S 1380   4.101   1.811   6.934  0.7095  0.6337  0.1433
   11SAPS   C28 1381   4.002   1.935   7.091 -0.3945  0.4233 -0.4557
   11SAPS   H8R 1382   3.929   1.856   7.114  0.0183  0.1816  0.0393
   11SAPS   C29 1383   4.003   2.043   7.178 -0.4369  0.5225  0.9391
   11SAPS   H9R 1384   3.943   2.036   7.270 -3.1070  2.4705 -0.5006
   11SAPS  C210 1385   4.094   2.162   7.158 -0.2999  0.0734 -0.1932
   11SAPS  H10R 1386   4.126   2.165   7.052  0.1737 -1.8148 -0.1480
   11SAPS  H10S 1387   4.183   2.154   7.224  0.0871  1.8199 -0.4553
   11SAPS  C211 1388   4.022   2.291   7.188 -0.1790 -0.1250 -0.2676
   11SAPS  H11R 1389   3.938   2.309   7.118  0.3084 -1.1718 -1.1524
   11SAPS  C212 1390   4.050   2.381   7.286  0.4092 -0.0788 -0.1735
   11SAPS  H12R 1391   3.981   2.460   7.318  1.9370  1.4627 -0.4969
   11SAPS  C213 1392   4.170   2.380   7.380 -0.5906  0.1012  0.0523
   11SAPS  H13R 1393   4.206   2.276   7.395 -3.3596 -0.7231  1.6695
   11SAPS  H13S 1394   4.134   2.415   7.478 -2.0061  1.2465 -0.8465
   11SAPS  C214 1395   4.282   2.465   7.333 -0.0626 -0.4905  0.3609
   11SAPS  H14R 1396   4.315   2.434   7.233 -1.2500  0.6384 -0.4011
   11SAPS  C215 1397   4.347   2.573   7.386 -0.8004 -0.4510 -0.0362
   11SAPS  H15R 1398   4.430   2.603   7.320  0.0305 -0.6647  0.8842
   11SAPS  C216 1399   4.326   2.645   7.511  0.3103  0.6498  0.4618
   11SAPS  H16R 1400   4.254   2.594   7.578 -0.9327 -1.8578 -2.5153
   11SAPS  H16S 1401   4.300   2.753   7.501 -2.6924  0.2122  2.3764
   11SAPS  C217 1402   4.452   2.615   7.600  0.6356 -0.2053 -0.4446
   11SAPS  H17R 1403   4.541   2.668   7.562 -0.3937  0.3111 -2.2421
   11SAPS  H17S 1404   4.478   2.507   7.605  0.2609 -0.2962 -0.3595
   11SAPS  C218 1405   4.444   2.655   7.746  0.8858 -0.5033  0.1103
   11SAPS  H18R 1406   4.349   2.619   7.792  0.7284 -1.4723 -0.9032
   11SAPS  H18S 1407   4.441   2.765   7.757 -1.5593 -0.6105  1.2994
   11SAPS  C219 1408   4.559   2.612   7.837  0.4239  0.2428  1.2845
   11SAPS  H19R 1409   4.648   2.651   7.784  0.1568 -0.0425  0.6222
   11SAPS  H19S 1410   4.566   2.503   7.819 -1.4103  0.5014 -1.6418
   11SAPS  C220 1411   4.548   2.659   7.982  1.0146  0.1650  0.3762
   11SAPS  H20R 1412   4.643   2.653   8.039 -0.4331  1.2504  3.0760
   11SAPS  H20S 1413   4.469   2.599   8.032  1.5500  0.3381  1.4540
   11SAPS  H20T 1414   4.509   2.764   7.987 -3.1693 -1.2163  0.7767
   11SAPS   C33 1415   4.740   1.395   6.443  0.5027 -0.1981 -0.3773
   11SAPS   H3X 1416   4.845   1.423   6.464 -0.1354  0.1224  2.9559
   11SAPS   H3Y 1417   4.727   1.378   6.334 -0.0112  0.4127 -0.4209
   11SAPS   C34 1418   4.720   1.255   6.517  0.2642  0.0835 -0.1818
   11SAPS   H4X 1419   4.762   1.167   6.465 -1.9077 -1.9562  1.3104
   11SAPS   H4Y 1420   4.612   1.231   6.530  0.1084  1.0319  0.3521
   11SAPS   C35 1421   4.793   1.272   6.650 -0.3599  1.1030 -0.7272
   11SAPS   H5X 1422   4.783   1.369   6.702  0.5693  1.0601 -0.4368
   11SAPS   H5Y 1423   4.902   1.262   6.631 -0.1110  1.5711  0.3870
   11SAPS   C36 1424   4.753   1.164   6.755  1.2680 -0.1964  0.3638
   11SAPS   H6X 1425   4.773   1.068   6.703  0.3266 -0.3850  0.3298
   11SAPS   H6Y 1426   4.644   1.157   6.775  0.7765  2.9483 -0.6315
   11SAPS   C37 1427   4.829   1.164   6.887  0.2389  0.0003  1.0308
   11SAPS   H7X 1428   4.831   1.270   6.921 -0.5571  0.2809  0.2450
   11SAPS   H7Y 1429   4.931   1.136   6.854  0.2479  1.0488  0.0652
   11SAPS   C38 1430   4.772   1.069   6.994  0.2751 -0.8309 -0.1935
   11SAPS   H8X 1431   4.849   1.085   7.073  0.7093 -0.5358 -0.6759
   11SAPS   H8Y 1432   4.765   0.963   6.959 -0.4153 -0.0297 -2.6439
   11SAPS   C39 1433   4.634   1.108   7.045  0.3467  0.0558  0.3359
   11SAPS   H9X 1434   4.561   1.077   6.968 -0.1828  0.9733  0.4537
   11SAPS   H9Y 1435   4.641   1.218   7.059 -2.4867  0.1181  2.0325
   11SAPS  C310 1436   4.587   1.031   7.172 -0.4733  0.2017 -0.0644
   11SAPS  H10X 1437   4.605   0.921   7.171  0.8298  0.3958 -0.9269
   11SAPS  H10Y 1438   4.482   1.056   7.198 -0.9707 -1.2248 -0.5673
   11SAPS  C311 1439   4.662   1.070   7.299 -0.0725  0.2626 -0.2438
   11SAPS  H11X 1440   4.659   1.181   7.298  0.0747  0.2715  0.2406
   11SAPS  H11Y 1441   4.772   1.061   7.286  0.3512  2.4663  1.2756
   11SAPS  C312 1442   4.605   1.021   7.430  0.6663  0.1281 -0.0847
   11SAPS  H12X 1443   4.598   0.912   7.408  1.1218  0.2237 -0.7086
   11SAPS  H12Y 1444   4.504   1.064   7.448 -0.5705 -2.7432  0.3962
   11SAPS  C313 1445   4.696   1.042   7.554 -0.3330 -0.3689 -0.1686
   11SAPS  H13X 1446   4.698   1.151   7.570 -1.3110 -0.6597  2.3729
   11SAPS  H13Y 1447   4.791   0.993   7.522 -0.9154 -0.4796 -1.8553
   11SAPS  C314 1448   4.659   0.970   7.689 -0.0122 -0.6329  0.1115
   11SAPS  H14X 1449   4.667   0.863   7.658  1.1353 -1.0220  1.6242
   11SAPS  H14Y 1450   4.557   0.998   7.723  0.2782  2.0064 -0.9636
   11SAPS  C315 1451   4.755   1.002   7.800  0.0142 -0.2411  0.3928
   11SAPS  H15X 1452   4.796   1.103   7.777 -0.3566 -0.5053 -1.6345
   11SAPS  H15Y 1453   4.843   0.935   7.794  1.3356  1.5316 -2.0167
   11SAPS  C316 1454   4.711   0.988   7.945 -0.4166 -1.3404 -0.2862
   11SAPS  H16X 1455   4.692   0.881   7.965 -1.7264 -1.2510 -0.9268
   11SAPS  H16Y 1456   4.615   1.041   7.964  0.2577 -0.2139  0.0718
   11SAPS  C317 1457   4.806   1.051   8.042  0.0061  0.3154 -0.3277
   11SAPS  H17X 1458   4.842   1.154   8.016 -0.0096  1.1396  2.5753
   11SAPS  H17Y 1459   4.893   0.981   8.041 -0.2703 -0.0309 -1.0879
   11SAPS  C318 1460   4.742   1.052   8.185 -0.1224 -0.5030 -0.3568
   11SAPS  H18X 1461   4.798   0.980   8.249 -0.0870  2.1009  2.8481
   11SAPS  H18Y 1462   4.633   1.035   8.194  0.0347 -1.4408 -0.1002
   11SAPS  H18Z 1463   4.757   1.153   8.229  2.9754 -1.1810  0.3741
   12SAPS     N 1464   4.435   3.762   6.382  0.0331  0.8215 -0.2293
   12SAPS   HN1 1465   4.492   3.814   6.453  0.0976  1.7155 -0.9222
   12SAPS   HN2 1466   4.383   3.842   6.340 -1.9061  0.2089  0.8612
   12SAPS   HN3 1467   4.374   3.690   6.426  1.1712 -1.6289 -2.4397
   12SAPS   C12 1468   4.524   3.697   6.272  0.1052  0.1597  0.3366
   12SAPS  H12A 1469   4.598   3.640   6.326 -0.0143 -1.4448 -1.0906
   12SAPS   C13 1470   4.443   3.601   6.179 -0.1506  0.2546  0.7496
   12SAPS  O13A 1471   4.505   3.540   6.088 -0.0251  0.2230 -0.8582
   12SAPS  O13B 1472   4.325   3.576   6.199 -0.1791  0.1953  0.6276
   12SAPS   C11 1473   4.582   3.801   6.183 -0.0059 -0.0727 -0.1932
   12SAPS  H11A 1474   4.501   3.855   6.130  0.1060  1.7175  1.3849
   12SAPS  H11B 1475   4.647   3.743   6.114  0.2704 -2.2788  1.7968
   12SAPS     P 1476   4.759   3.989   6.202 -0.2038  0.0389  0.1304
   12SAPS   O13 1477   4.865   3.895   6.161 -0.1241 -0.4790 -0.7795
   12SAPS   O14 1478   4.690   4.081   6.108  0.0642 -0.0757  0.2120
   12SAPS   O12 1479   4.650   3.897   6.270  0.1601 -0.1015 -0.1275
   12SAPS   O11 1480   4.821   4.077   6.321  0.4891  0.2722  0.5742
   12SAPS    C1 1481   4.758   4.067   6.449 -0.9608 -0.0731 -0.1773
   12SAPS    HA 1482   4.795   4.158   6.501 -0.8592 -1.1975  1.7964
   12SAPS    HB 1483   4.647   4.071   6.442 -0.8510  1.8745 -2.2984
   12SAPS    C2 1484   4.812   3.949   6.547 -0.1075  0.1788 -0.0982
   12SAPS    HS 1485   4.784   3.847   6.511 -0.7721 -0.8841  3.1270
   12SAPS   O21 1486   4.764   3.969   6.678 -0.1962 -0.1140  0.3720
   12SAPS   C21 1487   4.641   3.933   6.691 -0.0001  0.1717 -0.0192
   12SAPS   O22 1488   4.576   3.874   6.603 -0.2539 -0.1810  0.1458
   12SAPS   C22 1489   4.595   3.958   6.835  0.2073  0.1066  0.5947
   12SAPS   H2R 1490   4.582   4.068   6.839  3.1891  0.6423 -1.1400
   12SAPS   H2S 1491   4.495   3.915   6.858  0.7531 -0.6842  1.5650
   12SAPS    C3 1492   4.966   3.940   6.543 -0.7976 -0.7299 -0.3841
   12SAPS    HX 1493   5.010   4.022   6.604 -0.0663 -0.3655 -1.3750
   12SAPS    HY 1494   5.003   3.948   6.439  1.2290  1.5653  0.4173
   12SAPS   O31 1495   4.991   3.813   6.617  0.2086 -0.1692 -0.5223
   12SAPS   C31 1496   5.090   3.738   6.570  0.1608 -0.8291  0.6272
   12SAPS   O32 1497   5.159   3.768   6.473 -0.4123  0.1178 -0.1837
   12SAPS   C32 1498   5.090   3.606   6.650 -0.4346 -0.2090 -0.1458
   12SAPS   H2X 1499   5.171   3.541   6.611 -0.6527 -0.2518 -0.5343
   12SAPS   H2Y 1500   4.989   3.560   6.640 -0.6235  0.5140 -1.9015
   12SAPS   C23 1501   4.686   3.924   6.956  0.1435 -0.1668 -0.1682
   12SAPS   H3R 1502   4.792   3.932   6.923  0.5129 -1.1097  0.7249
   12SAPS   H3S 1503   4.675   3.815   6.978  0.0994  0.0418  0.9018
   12SAPS   C24 1504   4.653   4.007   7.080 -0.3334  0.0781  0.1136
   12SAPS   H4R 1505   4.550   4.047   7.083 -0.6788 -0.7693 -0.0015
   12SAPS   H4S 1506   4.723   4.093   7.086 -1.8267  1.3580 -0.1494
   12SAPS   C25 1507   4.676   3.917   7.196  0.2824  0.5650 -0.3117
   12SAPS   H5R 1508   4.588   3.853   7.208 -0.5350  1.9145  1.5199
   12SAPS   C26 1509   4.769   3.917   7.296  0.3758 -0.3051  0.1907
   12SAPS   H6R 1510   4.769   3.835   7.369 -1.1473 -1.7147 -1.2828
   12SAPS   C27 1511   4.877   4.020   7.315 -0.2573 -0.6271 -0.0728
   12SAPS   H7R 1512   4.874   4.102   7.240  0.9296 -0.3411  0.1726
   12SAPS   H7S 1513   4.967   3.960   7.290 -0.0861 -1.6143  2.6168
   12SAPS   C28 1514   4.877   4.091   7.448  0.6657 -0.7279  0.4911
   12SAPS   H8R 1515   4.815   4.181   7.452 -1.1657 -1.7851 -1.6726
   12SAPS   C29 1516   4.929   4.045   7.563  0.4514  0.7680 -0.8351
   12SAPS   H9R 1517   4.924   4.105   7.655  0.3538 -2.1534  1.2074
   12SAPS  C210 1518   4.989   3.909   7.581 -0.4862  0.1161  0.3066
   12SAPS  H10R 1519   5.097   3.924   7.599  0.0118 -2.2184 -0.4102
   12SAPS  H10S 1520   4.981   3.855   7.484 -0.6298 -1.4921  1.1853
   12SAPS  C211 1521   4.943   3.814   7.690 -0.6518  0.5217  0.1168
   12SAPS  H11R 1522   4.834   3.811   7.702 -0.7624  0.1648 -0.8527
   12SAPS  C212 1523   5.021   3.727   7.757 -0.1166  0.3580  0.2952
   12SAPS  H12R 1524   4.970   3.675   7.839  0.2518  0.7218  0.7630
   12SAPS  C213 1525   5.168   3.701   7.752 -0.1057 -0.2464 -0.0944
   12SAPS  H13R 1526   5.221   3.786   7.704 -0.7766 -0.6121 -1.5573
   12SAPS  H13S 1527   5.164   3.613   7.683  0.2775  0.4846 -1.0748
   12SAPS  C214 1528   5.239   3.658   7.879 -0.3309  0.5819  0.1090
   12SAPS  H14R 1529   5.302   3.570   7.857 -2.8365 -1.8388  1.8561
   12SAPS  C215 1530   5.222   3.705   8.005  0.0999 -0.4890 -0.8939
   12SAPS  H15R 1531   5.282   3.664   8.087 -1.2622  0.3470  0.5586
   12SAPS  C216 1532   5.141   3.827   8.045  0.7552 -0.2543 -0.4664
   12SAPS  H16R 1533   5.114   3.895   7.961 -1.4639  1.2840  1.3600
   12SAPS  H16S 1534   5.204   3.895   8.105  0.7321  0.5082 -1.2899
   12SAPS  C217 1535   5.001   3.795   8.114 -0.5602  0.3419 -0.5226
   12SAPS  H17R 1536   4.949   3.718   8.052  2.8732 -2.3085 -0.4305
   12SAPS  H17S 1537   4.938   3.885   8.130 -1.4240 -0.5532  1.5386
   12SAPS  C218 1538   5.020   3.731   8.257  0.7998 -0.3621 -0.5324
   12SAPS  H18R 1539   5.088   3.798   8.314  0.3823 -0.3052 -0.0960
   12SAPS  H18S 1540   5.059   3.628   8.243  0.0256 -0.7251 -0.0344
   12SAPS  C219 1541   4.892   3.720   8.333 -0.7185  0.0451  0.4652
   12SAPS  H19R 1542   4.809   3.674   8.276 -2.2166  2.0629  0.9233
   12SAPS  H19S 1543   4.863   3.825   8.351  1.3326  0.3788  2.1871
   12SAPS  C220 1544   4.899   3.638   8.462 -0.1129 -0.4054  0.5005
   12SAPS  H20R 1545   4.986   3.663   8.527  0.7066  1.2457 -1.1622
   12SAPS  H20S 1546   4.910   3.528   8.448 -0.6043 -0.1644 -2.3705
   12SAPS  H20T 1547   4.802   3.653   8.513 -1.4603 -1.0257 -1.7514
   12SAPS   C33 1548   5.110   3.619   6.804 -0.5403 -0.4406 -0.3607
   12SAPS   H3X 1549   5.143   3.723   6.824  1.8112 -1.3430  0.8684
   12SAPS   H3Y 1550   5.199   3.562   6.837  1.5741  2.0632 -1.3678
   12SAPS   C34 1551   4.985   3.579   6.881 -0.2793 -0.1882 -0.5543
   12SAPS   H4X 1552   4.958   3.473   6.861  0.2970 -0.8815  2.0146
   12SAPS   H4Y 1553   4.892   3.628   6.843 -1.1714 -1.1202  0.3590
   12SAPS   C35 1554   5.001   3.593   7.036  0.2340  0.6362 -0.3536
   12SAPS   H5X 1555   5.018   3.701   7.057 -3.9159  1.0978  1.5145
   12SAPS   H5Y 1556   5.090   3.532   7.063  0.3660  0.2145 -1.6673
   12SAPS   C36 1557   4.879   3.541   7.120 -0.7023  1.0550 -0.2757
   12SAPS   H6X 1558   4.880   3.434   7.090  1.9594  1.3690 -1.5408
   12SAPS   H6Y 1559   4.785   3.570   7.068 -0.9668 -4.4924 -3.6816
   12SAPS   C37 1560   4.891   3.565   7.268 -0.1487 -0.2124 -0.4212
   12SAPS   H7X 1561   4.910   3.673   7.287  1.6682 -1.1423  4.4586
   12SAPS   H7Y 1562   4.980   3.517   7.313  0.2261  0.5228 -0.3576
   12SAPS   C38 1563   4.761   3.519   7.335 -0.6432  0.3878  0.3677
   12SAPS   H8X 1564   4.746   3.409   7.326  0.6275 -0.1135  2.9857
   12SAPS   H8Y 1565   4.677   3.555   7.274  1.6906  0.0821 -3.3131
   12SAPS   C39 1566   4.755   3.562   7.479  0.2244 -0.2637  0.4998
   12SAPS   H9X 1567   4.709   3.663   7.486  0.7622  0.0771 -0.6419
   12SAPS   H9Y 1568   4.862   3.569   7.508  0.9736 -2.5348 -1.3526
   12SAPS  C310 1569   4.682   3.460   7.563 -0.4534  0.0817  0.2744
   12SAPS  H10X 1570   4.734   3.363   7.544 -1.6431 -0.6988  0.8814
   12SAPS  H10Y 1571   4.575   3.442   7.540 -0.2054 -2.7668  0.9120
   12SAPS  C311 1572   4.711   3.503   7.711 -0.1005  0.2786  0.0964
   12SAPS  H11X 1573   4.663   3.603   7.717 -0.1550  0.3596 -1.3665
   12SAPS  H11Y 1574   4.822   3.506   7.716 -0.1501  0.8533  1.3162
   12SAPS  C312 1575   4.646   3.410   7.818  0.2200 -0.1778  0.3981
   12SAPS  H12X 1576   4.673   3.306   7.790  2.1137  0.8025 -1.6204
   12SAPS  H12Y 1577   4.537   3.434   7.825 -0.6455 -3.7190  1.2413
   12SAPS  C313 1578   4.699   3.430   7.961  0.0898 -0.1825  0.3796
   12SAPS  H13X 1579   4.617   3.423   8.034 -1.4585  1.6212 -1.0783
   12SAPS  H13Y 1580   4.737   3.534   7.971 -2.1732  1.1085 -2.8256
   12SAPS  C314 1581   4.820   3.344   7.988 -0.3479 -0.0124 -0.1495
   12SAPS  H14X 1582   4.899   3.375   7.916  0.1957 -0.3002  0.3187
   12SAPS  H14Y 1583   4.810   3.235   7.971  3.4564 -0.3862 -0.8593
   12SAPS  C315 1584   4.870   3.357   8.132 -0.7859  0.6584 -0.3641
   12SAPS  H15X 1585   4.801   3.308   8.205  1.0780 -0.5834  0.6370
   12SAPS  H15Y 1586   4.870   3.466   8.157 -0.1480  0.0622  2.6213
   12SAPS  C316 1587   5.011   3.297   8.162  0.1911 -0.4222  0.6507
   12SAPS  H16X 1588   5.091   3.356   8.114 -1.9342  1.8730 -0.2983
   12SAPS  H16Y 1589   5.015   3.195   8.118 -1.0921 -0.7692  1.2806
   12SAPS  C317 1590   5.039   3.286   8.310  0.1428 -0.1161 -0.4110
   12SAPS  H17X 1591   4.973   3.209   8.357  1.6595 -1.8117 -0.9294
   12SAPS  H17Y 1592   5.026   3.391   8.343 -1.3837 -0.4487  0.1063
   12SAPS  C318 1593   5.191   3.246   8.329  0.6419  0.0844 -0.6027
   12SAPS  H18X 1594   5.258   3.303   8.261  1.1866  0.1829  0.0080
   12SAPS  H18Y 1595   5.200   3.140   8.297 -3.2176 -0.7595  0.5464
   12SAPS  H18Z 1596   5.235   3.258   8.430 -0.5683 -2.1369  0.2645
   13SAPS     N 1597   4.982   5.359   6.077 -0.1138  0.6213  0.0505
   13SAPS   HN1 1598   5.079   5.322   6.077  0.3167  1.7056 -1.0209
   13SAPS   HN2 1599   4.996   5.459   6.055 -0.6725  1.0303  1.4487
   13SAPS   HN3 1600   4.925   5.355   6.164 -1.2222 -2.1846 -0.6954
   13SAPS   C12 1601   4.910   5.283   5.973  0.0263  0.7587  0.3559
   13SAPS  H12A 1602   4.818   5.336   5.952 -0.8448 -0.2557  1.4477
   13SAPS   C13 1603   4.992   5.285   5.847 -0.5452  0.5509 -0.5040
   13SAPS  O13A 1604   5.115   5.322   5.843 -0.6408 -0.0822 -0.0847
   13SAPS  O13B 1605   4.934   5.238   5.749 -0.0366  0.5580  0.2480
   13SAPS   C11 1606   4.874   5.144   6.023  0.3216 -0.1040 -0.2320
   13SAPS  H11A 1607   4.958   5.091   6.073  0.6679  0.4571 -0.2017
   13SAPS  H11B 1608   4.834   5.073   5.948 -1.3270 -0.2200  0.7116
   13SAPS     P 1609   4.670   5.070   6.183  0.3053 -0.1775 -0.2091
   13SAPS   O13 1610   4.538   5.098   6.128  0.3435 -0.1758  0.7596
   13SAPS   O14 1611   4.730   4.939   6.163 -0.2590  0.3433 -0.6536
   13SAPS   O12 1612   4.781   5.167   6.127  0.2052 -0.2777 -0.5791
   13SAPS   O11 1613   4.666   5.112   6.340 -0.3954  0.4480  0.3473
   13SAPS    C1 1614   4.776   5.173   6.408  0.2936  0.5232  0.1861
   13SAPS    HA 1615   4.851   5.225   6.344  1.0852 -0.8148 -0.0209
   13SAPS    HB 1616   4.734   5.249   6.478  0.3613 -0.1826  1.0107
   13SAPS    C2 1617   4.862   5.065   6.482  0.0349 -0.7783  0.1986
   13SAPS    HS 1618   4.861   4.979   6.411  1.5048 -0.9035  0.3040
   13SAPS   O21 1619   4.804   5.034   6.612 -0.0848 -1.0493 -0.1282
   13SAPS   C21 1620   4.851   4.924   6.657  0.4856  0.4091  0.0155
   13SAPS   O22 1621   4.925   4.847   6.597  0.3793  0.0932 -0.1624
   13SAPS   C22 1622   4.793   4.916   6.790 -0.4408 -0.0793  0.4790
   13SAPS   H2R 1623   4.762   5.011   6.838  2.3418 -0.1991  2.7796
   13SAPS   H2S 1624   4.706   4.848   6.775 -0.5501  0.5793 -2.7833
   13SAPS    C3 1625   5.006   5.109   6.490 -0.6828  0.7571 -0.1307
   13SAPS    HX 1626   5.047   5.097   6.387  0.4073  0.4481  0.3319
   13SAPS    HY 1627   5.067   5.039   6.550 -0.9552  0.0356 -0.6644
   13SAPS   O31 1628   5.026   5.244   6.523 -0.0905 -0.1657 -0.0312
   13SAPS   C31 1629   5.057   5.275   6.651  0.1093  0.1652  0.4122
   13SAPS   O32 1630   5.073   5.202   6.743  0.4688 -0.3065  0.9840
   13SAPS   C32 1631   5.073   5.427   6.668 -0.8389  0.1136  1.3127
   13SAPS   H2X 1632   5.006   5.474   6.592  0.6397  2.8331  1.5652
   13SAPS   H2Y 1633   5.179   5.435   6.633 -1.2529  2.1072  0.3286
   13SAPS   C23 1634   4.883   4.851   6.900 -0.4738 -0.6727 -0.9392
   13SAPS   H3R 1635   4.921   4.757   6.854  1.1501  0.0974 -1.2293
   13SAPS   H3S 1636   4.826   4.830   6.993  0.6948  1.7713  0.4328
   13SAPS   C24 1637   4.999   4.936   6.945 -0.2845 -0.0458  0.2969
   13SAPS   H4R 1638   5.069   4.959   6.862  0.9120 -0.6035  1.1241
   13SAPS   H4S 1639   5.052   4.867   7.015 -0.8792  0.3761  1.1860
   13SAPS   C25 1640   4.957   5.051   7.024  0.1454 -0.2667  0.3219
   13SAPS   H5R 1641   4.946   5.144   6.967  0.0115 -2.1942 -3.0746
   13SAPS   C26 1642   4.921   5.045   7.157 -0.3833  0.3040  0.7034
   13SAPS   H6R 1643   4.872   5.130   7.207 -0.4032 -0.6670  2.4258
   13SAPS   C27 1644   4.913   4.918   7.240 -0.3892 -0.4364  0.6836
   13SAPS   H7R 1645   4.977   4.837   7.198  1.7531  0.6088  1.7745
   13SAPS   H7S 1646   4.807   4.883   7.247  0.1082 -1.7218  2.7039
   13SAPS   C28 1647   4.979   4.945   7.373 -0.2169  0.0212 -0.1614
   13SAPS   H8R 1648   5.086   4.969   7.378 -0.7429  2.7454  0.0919
   13SAPS   C29 1649   4.911   4.959   7.490 -0.4298 -0.5945  0.0080
   13SAPS   H9R 1650   4.973   4.995   7.573  0.3527 -0.0602 -0.7927
   13SAPS  C210 1651   4.768   4.935   7.511  0.5764  0.5313 -0.9613
   13SAPS  H10R 1652   4.705   4.935   7.419 -1.3642 -0.6801  0.2722
   13SAPS  H10S 1653   4.728   5.014   7.578  1.4915 -2.8147  4.1265
   13SAPS  C211 1654   4.738   4.808   7.590 -0.4434  0.2174 -0.7863
   13SAPS  H11R 1655   4.721   4.716   7.532  0.5095 -0.9827  0.7372
   13SAPS  C212 1656   4.722   4.801   7.727  0.2801  0.7984 -0.4264
   13SAPS  H12R 1657   4.737   4.704   7.776  1.8288  1.5648  0.7182
   13SAPS  C213 1658   4.733   4.910   7.828  0.7134  0.0251 -0.4525
   13SAPS  H13R 1659   4.812   4.983   7.803  1.5507 -0.6664  0.1159
   13SAPS  H13S 1660   4.750   4.852   7.922 -1.4004  1.1341  0.7047
   13SAPS  C214 1661   4.598   4.979   7.847  0.1001  0.4388  0.1508
   13SAPS  H14R 1662   4.566   5.032   7.756  0.6506  0.7168  0.1132
   13SAPS  C215 1663   4.514   4.979   7.955 -0.0985  0.0394  0.6539
   13SAPS  H15R 1664   4.421   5.036   7.944 -0.1168  0.1479  1.3237
   13SAPS  C216 1665   4.534   4.909   8.088 -0.4125 -0.5539  0.4789
   13SAPS  H16R 1666   4.505   4.983   8.166  2.4280 -1.0070  2.0939
   13SAPS  H16S 1667   4.642   4.886   8.100  0.0977  0.9226 -0.8844
   13SAPS  C217 1668   4.451   4.780   8.084  0.1103 -0.0787 -0.0762
   13SAPS  H17R 1669   4.483   4.713   8.167 -2.3531 -0.0064  1.0034
   13SAPS  H17S 1670   4.461   4.722   7.990  0.0918  0.1713 -0.2317
   13SAPS  C218 1671   4.309   4.813   8.120 -0.1712  1.1220 -0.2122
   13SAPS  H18R 1672   4.256   4.866   8.039 -3.0824  2.6665  2.4648
   13SAPS  H18S 1673   4.301   4.875   8.212 -0.6897 -2.8967  2.7444
   13SAPS  C219 1674   4.229   4.690   8.134 -0.0087  0.6151 -0.4605
   13SAPS  H19R 1675   4.234   4.650   8.238 -1.8780  1.6905  0.0880
   13SAPS  H19S 1676   4.271   4.603   8.078  0.8750  1.1425 -0.6385
   13SAPS  C220 1677   4.083   4.704   8.104  1.0958  0.4473 -0.9616
   13SAPS  H20R 1678   4.063   4.743   8.002  0.6982  1.9477 -0.3425
   13SAPS  H20S 1679   4.042   4.779   8.176  1.9100  0.4475 -0.4915
   13SAPS  H20T 1680   4.026   4.612   8.129  1.3275  0.8452  1.2209
   13SAPS   C33 1681   5.060   5.485   6.812  0.4051  0.8506  0.4740
   13SAPS   H3X 1682   5.112   5.583   6.813  1.5267  0.2669  0.5469
   13SAPS   H3Y 1683   5.124   5.421   6.876 -0.1953  0.5696  0.8022
   13SAPS   C34 1684   4.910   5.499   6.862  0.7983 -0.0210  0.2658
   13SAPS   H4X 1685   4.870   5.396   6.847 -0.7992  0.8361 -1.6847
   13SAPS   H4Y 1686   4.857   5.567   6.793 -0.1348 -1.8853 -0.9391
   13SAPS   C35 1687   4.888   5.541   7.003  0.2383 -0.0869 -0.2082
   13SAPS   H5X 1688   4.778   5.549   7.016  0.2986 -0.7304  0.8393
   13SAPS   H5Y 1689   4.939   5.629   7.048 -0.2287 -0.4499  1.0862
   13SAPS   C36 1690   4.919   5.434   7.106  0.3905  0.0634  0.4429
   13SAPS   H6X 1691   5.028   5.410   7.100  0.4986  0.8801 -2.3571
   13SAPS   H6Y 1692   4.867   5.345   7.064  1.1065  1.4336 -3.8965
   13SAPS   C37 1693   4.876   5.477   7.239  0.4160 -0.2389 -0.1578
   13SAPS   H7X 1694   4.787   5.539   7.216  0.8219  0.4970  0.2266
   13SAPS   H7Y 1695   4.957   5.543   7.277  0.6098 -1.1452  1.0856
   13SAPS   C38 1696   4.841   5.373   7.343  0.4864  0.2847 -0.2155
   13SAPS   H8X 1697   4.918   5.293   7.346  0.4490  0.2799  2.0454
   13SAPS   H8Y 1698   4.745   5.321   7.323  0.1569  0.9950 -0.5244
   13SAPS   C39 1699   4.832   5.442   7.478  0.2446  0.0484 -0.4451
   13SAPS   H9X 1700   4.755   5.522   7.480  0.5297  0.3205 -0.1844
   13SAPS   H9Y 1701   4.929   5.494   7.491  0.4305 -0.8889  2.7749
   13SAPS  C310 1702   4.811   5.347   7.597 -0.0332  0.0530  0.0806
   13SAPS  H10X 1703   4.879   5.259   7.606  1.9323  1.6556  2.2580
   13SAPS  H10Y 1704   4.708   5.305   7.597  0.2015 -0.5265 -0.0196
   13SAPS  C311 1705   4.825   5.430   7.725 -0.2871 -0.2829  0.3180
   13SAPS  H11X 1706   4.772   5.527   7.711 -0.6118 -0.4177  0.6092
   13SAPS  H11Y 1707   4.935   5.448   7.727  0.2786 -3.2925  0.1656
   13SAPS  C312 1708   4.803   5.344   7.856  0.4378 -0.8239  0.4705
   13SAPS  H12X 1709   4.713   5.284   7.831 -0.5973  1.2200 -0.9469
   13SAPS  H12Y 1710   4.793   5.419   7.937  3.6728 -1.4803  1.6447
   13SAPS  C313 1711   4.923   5.248   7.893 -0.2166 -0.1038  0.6249
   13SAPS  H13X 1712   5.009   5.318   7.904  0.6635 -1.2898  1.6829
   13SAPS  H13Y 1713   4.957   5.178   7.814 -1.4333 -1.2553  1.0873
   13SAPS  C314 1714   4.910   5.168   8.027 -0.3537 -0.3832  0.2729
   13SAPS  H14X 1715   4.853   5.072   8.018 -0.9580 -0.4068  3.3841
   13SAPS  H14Y 1716   4.842   5.229   8.090 -3.3848 -1.2657 -1.8892
   13SAPS  C315 1717   5.047   5.122   8.089 -0.2528 -0.1984  0.3377
   13SAPS  H15X 1718   5.108   5.214   8.097 -1.9979  1.3540 -2.5903
   13SAPS  H15Y 1719   5.097   5.061   8.012  0.5425 -0.1632  0.8127
   13SAPS  C316 1720   5.032   5.035   8.210  0.4174  0.0546  0.4897
   13SAPS  H16X 1721   4.978   4.939   8.195 -0.2758  0.0610  2.5950
   13SAPS  H16Y 1722   4.971   5.088   8.286  0.2561  0.1097  0.3238
   13SAPS  C317 1723   5.158   4.982   8.273  0.0701  0.1631  0.2700
   13SAPS  H17X 1724   5.201   4.924   8.188 -1.0879  0.9563 -0.8996
   13SAPS  H17Y 1725   5.127   4.902   8.343 -0.8828  0.0752 -0.2250
   13SAPS  C318 1726   5.249   5.088   8.333 -0.0625 -0.1281  0.7780
   13SAPS  H18X 1727   5.351   5.054   8.362  0.4756  0.4933 -0.3301
   13SAPS  H18Y 1728   5.202   5.133   8.423 -1.8180 -0.6716  0.1650
   13SAPS  H18Z 1729   5.268   5.163   8.253 -0.7838 -2.1628 -1.4147
   14SAPS     N 1730   2.648   2.732   6.363  0.4727  0.2231 -0.1416
   14SAPS   HN1 1731   2.584   2.751   6.443  1.7126  0.6300  0.7946
   14SAPS   HN2 1732   2.740   2.706   6.406  0.1704  0.1330  0.4702
   14SAPS   HN3 1733   2.663   2.821   6.312  1.5820 -0.3377 -0.8173
   14SAPS   C12 1734   2.602   2.627   6.283 -0.4556  0.0702  0.3407
   14SAPS  H12A 1735   2.585   2.537   6.340 -1.0794  0.4409  0.7496
   14SAPS   C13 1736   2.475   2.642   6.195 -0.0089  0.8277  1.0522
   14SAPS  O13A 1737   2.402   2.744   6.199 -0.2341  0.0872 -0.2236
   14SAPS  O13B 1738   2.447   2.548   6.115  0.1074  0.2234 -0.4418
   14SAPS   C11 1739   2.717   2.594   6.185 -0.3548  0.1506  0.2530
   14SAPS  H11A 1740   2.736   2.682   6.119 -0.8002 -1.0034 -1.5027
   14SAPS  H11B 1741   2.688   2.512   6.116  1.4395  0.4828 -0.9771
   14SAPS     P 1742   2.970   2.480   6.206  0.2722 -0.3780 -0.3950
   14SAPS   O13 1743   2.942   2.421   6.072  0.3064  0.0087 -0.4571
   14SAPS   O14 1744   3.089   2.563   6.219 -0.8391 -0.4392 -0.1635
   14SAPS   O12 1745   2.844   2.567   6.254  0.0104  0.3403  0.2443
   14SAPS   O11 1746   2.981   2.369   6.317 -0.6093 -0.2513 -0.2825
   14SAPS    C1 1747   2.866   2.305   6.367  0.2817  0.2141 -0.2813
   14SAPS    HA 1748   2.783   2.340   6.301  2.5049  1.7968 -2.4308
   14SAPS    HB 1749   2.887   2.196   6.360  0.3596  0.2882 -1.5834
   14SAPS    C2 1750   2.842   2.339   6.512  0.5674 -0.5321 -0.3128
   14SAPS    HS 1751   2.818   2.447   6.516  1.7993 -0.2521 -0.2093
   14SAPS   O21 1752   2.957   2.301   6.575  0.2592  0.5159 -0.2488
   14SAPS   C21 1753   3.054   2.384   6.600 -0.3440  0.3926  0.1243
   14SAPS   O22 1754   3.058   2.505   6.587  0.0099  0.6499  0.3586
   14SAPS   C22 1755   3.165   2.299   6.654 -0.0845 -0.6041 -0.8401
   14SAPS   H2R 1756   3.127   2.198   6.678 -0.4504 -0.1885  0.4201
   14SAPS   H2S 1757   3.252   2.293   6.586 -0.8162 -3.3252 -1.6628
   14SAPS    C3 1758   2.715   2.261   6.560 -0.0746 -0.0042  0.6212
   14SAPS    HX 1759   2.725   2.157   6.522 -2.3849 -0.5709  1.3934
   14SAPS    HY 1760   2.621   2.300   6.515  0.7952  1.1070 -0.2691
   14SAPS   O31 1761   2.703   2.244   6.708  0.1908 -0.2460 -0.1945
   14SAPS   C31 1762   2.634   2.134   6.752 -0.1510 -0.7083 -0.1330
   14SAPS   O32 1763   2.557   2.063   6.689  0.2108  0.1481 -0.4880
   14SAPS   C32 1764   2.667   2.118   6.897  0.0375  0.0012 -0.8534
   14SAPS   H2X 1765   2.611   2.194   6.956  1.1182  0.6016 -0.5667
   14SAPS   H2Y 1766   2.776   2.140   6.893  0.0612 -0.2815 -2.5038
   14SAPS   C23 1767   3.222   2.360   6.789 -0.3854  0.0766  0.6369
   14SAPS   H3R 1768   3.191   2.466   6.798  0.3193  0.6367 -2.4483
   14SAPS   H3S 1769   3.332   2.354   6.777 -0.2364 -0.2882  2.0013
   14SAPS   C24 1770   3.171   2.285   6.914  0.6412 -0.1741  0.6629
   14SAPS   H4R 1771   3.192   2.176   6.909 -0.2709 -0.6118  4.0723
   14SAPS   H4S 1772   3.062   2.299   6.924  0.9959  2.1713  1.7812
   14SAPS   C25 1773   3.227   2.360   7.027  0.6008  0.0677 -0.0163
   14SAPS   H5R 1774   3.312   2.426   7.007  1.9494 -0.8569  2.3223
   14SAPS   C26 1775   3.188   2.334   7.151 -0.2473  0.0942 -0.3290
   14SAPS   H6R 1776   3.227   2.396   7.232 -0.5059  1.4251 -1.1942
   14SAPS   C27 1777   3.076   2.241   7.196 -0.3453 -0.9402 -0.0949
   14SAPS   H7R 1778   3.016   2.202   7.110  1.4499  1.3687 -2.5725
   14SAPS   H7S 1779   3.009   2.311   7.250  0.6033 -0.6033  0.6709
   14SAPS   C28 1780   3.149   2.135   7.286 -0.4663 -1.1519 -0.0769
   14SAPS   H8R 1781   3.245   2.092   7.255 -0.3694  0.1244 -1.6540
   14SAPS   C29 1782   3.106   2.106   7.408  0.2760  0.4022  0.4734
   14SAPS   H9R 1783   3.164   2.029   7.461 -0.4723 -0.0626  0.6405
   14SAPS  C210 1784   2.981   2.172   7.474 -0.1315  0.0719 -0.7303
   14SAPS  H10R 1785   2.899   2.098   7.490 -0.6067  0.8506  0.6215
   14SAPS  H10S 1786   2.947   2.248   7.401  0.4614  0.3209 -0.7476
   14SAPS  C211 1787   3.003   2.265   7.593 -0.1376  0.3344 -0.2147
   14SAPS  H11R 1788   3.075   2.345   7.572  0.4470 -0.1206  0.0296
   14SAPS  C212 1789   2.948   2.254   7.717  0.4915 -0.2184 -0.0046
   14SAPS  H12R 1790   2.983   2.320   7.798  3.6747 -2.2683  0.4731
   14SAPS  C213 1791   2.854   2.149   7.766 -0.2575  0.1777 -0.4419
   14SAPS  H13R 1792   2.815   2.075   7.693  0.2168 -0.5574  0.0447
   14SAPS  H13S 1793   2.763   2.210   7.785 -0.2235  0.0942 -0.0137
   14SAPS  C214 1794   2.904   2.091   7.891  0.4001  0.7956  0.8360
   14SAPS  H14R 1795   2.967   2.006   7.860 -0.7651 -1.0698  3.2529
   14SAPS  C215 1796   2.873   2.119   8.023  0.1751 -0.9915  0.3275
   14SAPS  H15R 1797   2.900   2.046   8.101 -0.8097  0.0547  1.7135
   14SAPS  C216 1798   2.777   2.227   8.079 -0.0039  0.3651  0.0850
   14SAPS  H16R 1799   2.668   2.210   8.061  0.5087 -0.9112 -2.1532
   14SAPS  H16S 1800   2.812   2.325   8.042 -1.5444  0.5180 -1.0568
   14SAPS  C217 1801   2.791   2.221   8.229  0.0177 -0.3937 -0.1660
   14SAPS  H17R 1802   2.750   2.314   8.274 -1.5000 -1.2698  0.3323
   14SAPS  H17S 1803   2.899   2.216   8.255  0.0400  1.3203  0.2283
   14SAPS  C218 1804   2.703   2.113   8.300  0.2595 -0.2040  0.8999
   14SAPS  H18R 1805   2.722   2.013   8.256 -1.8586  0.4906 -1.8939
   14SAPS  H18S 1806   2.594   2.126   8.285  0.4208  1.1218  0.7897
   14SAPS  C219 1807   2.737   2.107   8.452  0.3435  0.1134 -0.6818
   14SAPS  H19R 1808   2.724   2.211   8.488  1.2576 -0.8333  2.8371
   14SAPS  H19S 1809   2.840   2.073   8.478 -0.3805 -1.3473  0.4723
   14SAPS  C220 1810   2.628   2.034   8.536 -0.5651  0.1053 -0.3867
   14SAPS  H20R 1811   2.642   2.029   8.646 -0.6148  1.8051 -0.2787
   14SAPS  H20S 1812   2.630   1.926   8.509 -1.5571 -0.1400  0.4824
   14SAPS  H20T 1813   2.533   2.084   8.506 -2.1048 -1.1095  2.1765
   14SAPS   C33 1814   2.635   1.969   6.940  0.2061  0.4996 -0.4053
   14SAPS   H3X 1815   2.671   1.905   6.857  0.5960 -0.2106  0.2960
   14SAPS   H3Y 1816   2.526   1.949   6.944  0.2798  0.1207 -0.3095
   14SAPS   C34 1817   2.690   1.905   7.074 -0.5615 -0.1840  0.4282
   14SAPS   H4X 1818   2.796   1.930   7.092 -1.1392  1.1143  2.4077
   14SAPS   H4Y 1819   2.677   1.796   7.059  0.4344 -0.1755 -0.6310
   14SAPS   C35 1820   2.617   1.951   7.198  0.6226 -0.5638  0.1535
   14SAPS   H5X 1821   2.609   1.867   7.271 -3.0370 -1.8760 -1.5218
   14SAPS   H5Y 1822   2.514   1.960   7.157  0.1769 -1.2314  1.0975
   14SAPS   C36 1823   2.674   2.077   7.259 -0.1500  0.4770 -0.6390
   14SAPS   H6X 1824   2.683   2.153   7.178  0.5015 -0.9777 -1.9895
   14SAPS   H6Y 1825   2.778   2.056   7.292  0.0181  1.0177 -0.8212
   14SAPS   C37 1826   2.595   2.139   7.374  0.4832  0.2838  0.7953
   14SAPS   H7X 1827   2.497   2.174   7.333 -0.0063 -0.0098  1.6939
   14SAPS   H7Y 1828   2.645   2.231   7.412 -1.7572  1.6816  0.5588
   14SAPS   C38 1829   2.577   2.056   7.502  0.4164 -0.1818 -0.3033
   14SAPS   H8X 1830   2.664   1.997   7.537 -0.5394 -1.2118  0.4128
   14SAPS   H8Y 1831   2.501   1.983   7.466 -0.8917  0.8951  0.1780
   14SAPS   C39 1832   2.521   2.137   7.621  0.1655 -0.4670 -0.2357
   14SAPS   H9X 1833   2.420   2.181   7.606 -0.0726 -0.4987  1.0838
   14SAPS   H9Y 1834   2.594   2.215   7.651  1.2136 -0.5035 -2.5444
   14SAPS  C310 1835   2.498   2.038   7.731  0.4477  0.3941 -0.1848
   14SAPS  H10X 1836   2.591   1.984   7.756 -0.4014 -1.6057 -1.0837
   14SAPS  H10Y 1837   2.427   1.959   7.696  0.8419 -0.2774  0.5008
   14SAPS  C311 1838   2.454   2.099   7.864  0.2763  1.0149 -0.6984
   14SAPS  H11X 1839   2.350   2.136   7.853  0.8359  2.7187 -0.5475
   14SAPS  H11Y 1840   2.524   2.182   7.889  0.6637 -0.0148  2.0101
   14SAPS  C312 1841   2.454   1.993   7.974 -0.4812  0.4599  0.2235
   14SAPS  H12X 1842   2.556   1.975   8.013  0.2745  4.3298  0.3726
   14SAPS  H12Y 1843   2.421   1.900   7.923  0.4294  1.6660 -2.7772
   14SAPS  C313 1844   2.359   2.037   8.090 -0.7551 -0.1635  0.1363
   14SAPS  H13X 1845   2.258   2.035   8.043 -0.6136  0.4817 -0.2071
   14SAPS  H13Y 1846   2.373   2.142   8.123 -1.6270  0.0870 -0.2710
   14SAPS  C314 1847   2.366   1.932   8.195 -0.2642 -0.4145  0.6238
   14SAPS  H14X 1848   2.470   1.928   8.236  0.4477  0.8433 -0.9636
   14SAPS  H14Y 1849   2.328   1.839   8.149 -2.5822  1.0382 -0.5907
   14SAPS  C315 1850   2.277   1.970   8.308 -0.0207 -0.3395  0.3115
   14SAPS  H15X 1851   2.180   1.997   8.259 -0.8973 -0.6392  1.8357
   14SAPS  H15Y 1852   2.331   2.049   8.364 -0.6691 -0.0399  0.5307
   14SAPS  C316 1853   2.262   1.843   8.399  0.3121 -0.7333 -0.5613
   14SAPS  H16X 1854   2.354   1.786   8.425  2.2974  1.5582 -2.0907
   14SAPS  H16Y 1855   2.189   1.774   8.351  0.4765 -2.7177  1.8413
   14SAPS  C317 1856   2.194   1.892   8.534 -0.2651  0.4614  0.8754
   14SAPS  H17X 1857   2.266   1.948   8.598  2.5762 -0.1794 -1.5428
   14SAPS  H17Y 1858   2.176   1.796   8.585  2.9890 -1.2583 -0.8608
   14SAPS  C318 1859   2.060   1.961   8.515  0.0976  0.6952  0.9044
   14SAPS  H18X 1860   2.009   1.964   8.614 -1.2159  2.4353  0.2256
   14SAPS  H18Y 1861   1.988   1.905   8.451 -0.8162  1.3233  1.3712
   14SAPS  H18Z 1862   2.063   2.067   8.483 -2.2255  0.6942  0.5174
   15SAPS     N 1863   5.209   3.428   5.967 -0.2872 -0.2454  0.2534
   15SAPS   HN1 1864   5.194   3.432   6.070  0.2315  0.3583  0.3161
   15SAPS   HN2 1865   5.293   3.366   5.963 -0.4090 -0.4400  0.6633
   15SAPS   HN3 1866   5.241   3.524   5.944 -0.3823 -0.2815 -0.0326
   15SAPS   C12 1867   5.087   3.372   5.908  0.1783  0.3868 -0.0872
   15SAPS  H12A 1868   5.021   3.455   5.885 -1.2866 -0.0295  2.2848
   15SAPS   C13 1869   5.112   3.289   5.776  0.0297  0.2496 -0.1947
   15SAPS  O13A 1870   5.229   3.255   5.741 -0.4843 -0.4576  0.2096
   15SAPS  O13B 1871   5.013   3.250   5.709  0.2417 -0.0087  0.3218
   15SAPS   C11 1872   5.018   3.285   6.013  0.0219  0.2747  0.2452
   15SAPS  H11A 1873   4.921   3.257   5.967  0.0126 -1.4793  1.2580
   15SAPS  H11B 1874   5.013   3.349   6.104 -0.6355  1.3020 -0.4986
   15SAPS     P 1875   5.031   3.040   6.088  0.1170  0.1630  0.1713
   15SAPS   O13 1876   4.947   2.997   5.971 -0.0362  0.4124 -0.6391
   15SAPS   O14 1877   5.140   2.954   6.136 -0.8192  0.0563 -0.3365
   15SAPS   O12 1878   5.108   3.169   6.040  0.7710  0.3695  0.2559
   15SAPS   O11 1879   4.937   3.080   6.208  0.2998  0.3030  0.0412
   15SAPS    C1 1880   4.993   3.164   6.311 -0.3549 -0.3365 -0.8321
   15SAPS    HA 1881   5.104   3.164   6.312 -0.3431 -0.3170 -1.6923
   15SAPS    HB 1882   4.971   3.272   6.300 -0.6269 -0.0829  1.6270
   15SAPS    C2 1883   4.940   3.116   6.449  0.4617  0.4278 -0.2187
   15SAPS    HS 1884   4.995   3.170   6.529  0.7628 -0.4378  0.1596
   15SAPS   O21 1885   4.965   2.975   6.463 -0.0091  0.4679 -0.3514
   15SAPS   C21 1886   5.087   2.937   6.494 -0.7148 -0.4448  0.3429
   15SAPS   O22 1887   5.174   3.015   6.543 -0.0496 -0.4097  0.0983
   15SAPS   C22 1888   5.110   2.792   6.468  0.4899  0.2038  0.2802
   15SAPS   H2R 1889   5.052   2.760   6.379  0.2080  2.5028 -0.4244
   15SAPS   H2S 1890   5.218   2.777   6.448  0.0405 -0.8287 -1.6442
   15SAPS    C3 1891   4.788   3.152   6.466 -0.0154 -0.6345 -0.6932
   15SAPS    HX 1892   4.733   3.077   6.404 -0.2386  0.1635 -1.4718
   15SAPS    HY 1893   4.768   3.252   6.424 -2.3431 -0.5304  0.4777
   15SAPS   O31 1894   4.738   3.142   6.609 -0.1103 -0.2067  0.3150
   15SAPS   C31 1895   4.753   3.247   6.682  0.6540 -0.2836 -0.2691
   15SAPS   O32 1896   4.817   3.354   6.656 -1.1959 -0.2507 -0.3817
   15SAPS   C32 1897   4.679   3.221   6.814  0.0023  0.0388  0.3456
   15SAPS   H2X 1898   4.631   3.121   6.809  1.2450 -0.5384 -0.3984
   15SAPS   H2Y 1899   4.610   3.304   6.839 -0.2617  0.0280 -0.3428
   15SAPS   C23 1900   5.053   2.698   6.578 -0.0641  0.0639 -0.0705
   15SAPS   H3R 1901   4.956   2.740   6.610 -0.5884 -0.6377 -0.6897
   15SAPS   H3S 1902   5.126   2.704   6.661 -1.1860  2.5783  0.8265
   15SAPS   C24 1903   5.040   2.550   6.525 -0.1589 -0.3014  0.4568
   15SAPS   H4R 1904   5.109   2.556   6.438  1.4981  0.7030  1.7773
   15SAPS   H4S 1905   4.935   2.537   6.492 -0.2740 -0.9963  1.0566
   15SAPS   C25 1906   5.098   2.448   6.615 -0.5176 -0.4012 -0.5411
   15SAPS   H5R 1907   5.162   2.372   6.567 -0.1703 -0.8064  0.5161
   15SAPS   C26 1908   5.091   2.434   6.753  0.3165  0.1643 -0.0581
   15SAPS   H6R 1909   5.147   2.350   6.798 -0.2636 -0.5563 -0.6628
   15SAPS   C27 1910   5.018   2.518   6.855 -0.4165 -0.9030  0.0577
   15SAPS   H7R 1911   5.050   2.624   6.841 -0.1083 -1.3037 -2.8566
   15SAPS   H7S 1912   5.055   2.497   6.958 -1.8980 -1.8791  0.4057
   15SAPS   C28 1913   4.869   2.494   6.842  0.0180 -0.2370  1.0957
   15SAPS   H8R 1914   4.830   2.525   6.743 -2.9641 -2.9826  1.2763
   15SAPS   C29 1915   4.785   2.432   6.927  0.3141 -1.0440  0.0775
   15SAPS   H9R 1916   4.680   2.417   6.897  1.4478 -3.3788 -3.3079
   15SAPS  C210 1917   4.821   2.379   7.061 -0.4247  0.2346  0.0239
   15SAPS  H10R 1918   4.762   2.436   7.136 -0.2481 -0.8524  1.0340
   15SAPS  H10S 1919   4.927   2.396   7.089 -1.3235  0.8530  3.6734
   15SAPS  C211 1920   4.798   2.228   7.076 -0.2670 -0.5018  0.1516
   15SAPS  H11R 1921   4.876   2.160   7.039 -0.6032 -1.0788  0.4781
   15SAPS  C212 1922   4.694   2.165   7.135  0.2338  1.0765 -0.3345
   15SAPS  H12R 1923   4.685   2.056   7.122  0.0902  1.1886 -1.2837
   15SAPS  C213 1924   4.575   2.236   7.193  0.6245  0.0025 -0.1409
   15SAPS  H13R 1925   4.518   2.313   7.137 -0.0462  0.1396  0.7053
   15SAPS  H13S 1926   4.613   2.281   7.287  2.0447 -0.4418 -0.4770
   15SAPS  C214 1927   4.475   2.128   7.228  0.9767 -0.1596 -0.2589
   15SAPS  H14R 1928   4.417   2.093   7.141  0.3222 -1.7620  0.7644
   15SAPS  C215 1929   4.446   2.070   7.346  0.3299 -0.5659 -0.8029
   15SAPS  H15R 1930   4.354   2.009   7.353 -0.0383  0.0027 -0.5776
   15SAPS  C216 1931   4.521   2.107   7.473  0.7266  0.4630 -0.4647
   15SAPS  H16R 1932   4.569   2.207   7.467  0.6004  0.5882  0.4673
   15SAPS  H16S 1933   4.597   2.027   7.485 -1.4735 -1.6211  0.3942
   15SAPS  C217 1934   4.425   2.106   7.593 -0.3653 -0.3032  0.1397
   15SAPS  H17R 1935   4.404   1.997   7.603  3.0054 -1.1066 -0.0968
   15SAPS  H17S 1936   4.334   2.161   7.560 -1.9066 -3.7094 -1.8654
   15SAPS  C218 1937   4.470   2.166   7.723  0.4936 -0.2556  0.3133
   15SAPS  H18R 1938   4.499   2.270   7.696 -1.5045  0.1509 -0.4781
   15SAPS  H18S 1939   4.554   2.108   7.767  1.0343  0.7180  0.5997
   15SAPS  C219 1940   4.359   2.174   7.832  0.0981  0.1212 -0.0334
   15SAPS  H19R 1941   4.347   2.073   7.878 -2.5914  0.5445  0.3664
   15SAPS  H19S 1942   4.256   2.187   7.793  0.3869  0.6145 -0.6433
   15SAPS  C220 1943   4.390   2.282   7.932 -0.1323 -0.3816 -0.2546
   15SAPS  H20R 1944   4.407   2.381   7.885  0.2068  0.2677  1.1784
   15SAPS  H20S 1945   4.489   2.273   7.983 -1.2284  1.0231  2.2627
   15SAPS  H20T 1946   4.318   2.297   8.015  1.5561 -1.4274  1.5171
   15SAPS   C33 1947   4.773   3.208   6.938  0.0388  0.3451  0.3824
   15SAPS   H3X 1948   4.844   3.293   6.952  1.0586 -0.2407 -1.0251
   15SAPS   H3Y 1949   4.828   3.113   6.925 -0.3526  0.2480 -0.6474
   15SAPS   C34 1950   4.692   3.189   7.065  0.0223 -0.0457  0.5879
   15SAPS   H4X 1951   4.608   3.117   7.055 -0.5924  0.5891  1.0368
   15SAPS   H4Y 1952   4.633   3.282   7.082  0.2854  0.3314 -0.5117
   15SAPS   C35 1953   4.783   3.156   7.180 -0.3186  0.7851  0.7323
   15SAPS   H5X 1954   4.862   3.233   7.192 -1.3615  2.1648 -0.7722
   15SAPS   H5Y 1955   4.834   3.064   7.144 -0.3199  0.6243  1.1370
   15SAPS   C36 1956   4.719   3.117   7.316  0.1324  0.0479  0.9210
   15SAPS   H6X 1957   4.646   3.033   7.311 -0.4604  0.4931  1.8696
   15SAPS   H6Y 1958   4.663   3.205   7.355  2.1295  1.7450  0.1683
   15SAPS   C37 1959   4.826   3.083   7.422  0.4894  0.4575 -0.0034
   15SAPS   H7X 1960   4.902   3.163   7.433  0.8547 -0.1256  2.1769
   15SAPS   H7Y 1961   4.889   3.000   7.382  1.1950  1.9417 -2.1712
   15SAPS   C38 1962   4.771   3.031   7.558  0.3105  0.0487  0.3255
   15SAPS   H8X 1963   4.708   2.940   7.546 -0.8139  0.2484  3.7205
   15SAPS   H8Y 1964   4.696   3.099   7.605  0.5548  0.4652  0.1178
   15SAPS   C39 1965   4.878   2.997   7.656 -0.6514 -0.3318 -1.3722
   15SAPS   H9X 1966   4.950   3.080   7.666 -0.1185 -0.9307  0.0983
   15SAPS   H9Y 1967   4.930   2.900   7.639 -1.9361 -1.4044  0.4505
   15SAPS  C310 1968   4.825   2.973   7.795  0.1055 -0.1615  0.1556
   15SAPS  H10X 1969   4.755   2.888   7.784  0.5496 -0.4995 -0.0980
   15SAPS  H10Y 1970   4.764   3.058   7.832 -1.2217 -0.2175 -1.7432
   15SAPS  C311 1971   4.929   2.946   7.908  0.3943  0.0615  0.3675
   15SAPS  H11X 1972   4.984   3.038   7.935  1.2229 -0.0070 -0.9993
   15SAPS  H11Y 1973   5.002   2.868   7.876  0.0498  0.5171 -1.6668
   15SAPS  C312 1974   4.856   2.891   8.035  0.0459  0.8029 -0.1498
   15SAPS  H12X 1975   4.791   2.810   7.997 -2.5881  2.4259  0.6543
   15SAPS  H12Y 1976   4.793   2.967   8.085  1.1003  1.5742  0.0513
   15SAPS  C313 1977   4.954   2.854   8.140 -1.2578 -1.2024 -0.3603
   15SAPS  H13X 1978   5.022   2.938   8.165 -1.7531 -0.9376  0.1209
   15SAPS  H13Y 1979   5.026   2.776   8.110 -0.7563 -1.3873  1.2453
   15SAPS  C314 1980   4.906   2.807   8.278 -0.0313 -0.1929 -0.2739
   15SAPS  H14X 1981   4.878   2.702   8.256  0.8156 -0.0805 -2.1392
   15SAPS  H14Y 1982   4.807   2.853   8.301  0.1576 -1.3130  3.3621
   15SAPS  C315 1983   5.006   2.801   8.390 -0.6020  0.0008 -0.3598
   15SAPS  H15X 1984   4.968   2.734   8.470 -2.0673  1.2627  0.0501
   15SAPS  H15Y 1985   5.034   2.897   8.440  1.7685 -0.9447  0.2912
   15SAPS  C316 1986   5.140   2.735   8.352  0.6338  0.4065  0.4515
   15SAPS  H16X 1987   5.190   2.813   8.290  1.4883 -0.8208 -0.4471
   15SAPS  H16Y 1988   5.123   2.648   8.285 -0.6103  1.1513 -0.2527
   15SAPS  C317 1989   5.228   2.687   8.469  0.9231 -0.1524  0.5477
   15SAPS  H17X 1990   5.226   2.759   8.554 -1.4596 -0.7262  1.0342
   15SAPS  H17Y 1991   5.334   2.691   8.436  0.9350 -1.8494  0.3076
   15SAPS  C318 1992   5.187   2.539   8.513 -0.1602 -0.3729 -0.8885
   15SAPS  H18X 1993   5.250   2.526   8.604  1.7164  2.9833 -1.5326
   15SAPS  H18Y 1994   5.223   2.473   8.431 -0.3351 -0.2247 -1.0859
   15SAPS  H18Z 1995   5.081   2.531   8.544 -0.6505  1.0767 -2.0789
   16SAPS     N 1996   1.730   1.159   6.383 -0.1016  0.0407  1.1181
   16SAPS   HN1 1997   1.701   1.149   6.482 -3.2899 -0.3567  0.2728
   16SAPS   HN2 1998   1.828   1.128   6.370 -0.7897 -1.6021 -0.7462
   16SAPS   HN3 1999   1.729   1.262   6.366  2.5606 -0.0495  0.0217
   16SAPS   C12 2000   1.628   1.086   6.307  0.6905 -0.6129 -1.0428
   16SAPS  H12A 2001   1.653   1.099   6.203 -0.9762 -1.1292 -1.5412
   16SAPS   C13 2002   1.618   0.934   6.348  0.3774  0.2002 -0.4995
   16SAPS  O13A 2003   1.691   0.897   6.441  0.4000  0.0922  0.2866
   16SAPS  O13B 2004   1.544   0.858   6.278  0.2945  0.3777  0.2160
   16SAPS   C11 2005   1.486   1.154   6.336  0.1948 -0.0686  0.4581
   16SAPS  H11A 2006   1.411   1.093   6.281 -2.0286  2.0416  0.9991
   16SAPS  H11B 2007   1.482   1.251   6.281 -1.7878 -1.1530 -1.4818
   16SAPS     P 2008   1.318   1.194   6.530 -0.0390 -0.1921  0.3332
   16SAPS   O13 2009   1.257   1.295   6.442  0.1709  0.4101 -0.0936
   16SAPS   O14 2010   1.255   1.063   6.552 -0.0469 -0.2753 -0.2185
   16SAPS   O12 2011   1.458   1.164   6.480  0.4653  0.5197  0.4773
   16SAPS   O11 2012   1.350   1.260   6.666 -0.2086  0.3578 -0.3812
   16SAPS    C1 2013   1.409   1.194   6.773 -0.0464 -0.5506 -0.0502
   16SAPS    HA 2014   1.468   1.104   6.744  0.2390 -0.9951  1.7665
   16SAPS    HB 2015   1.487   1.256   6.822 -0.6802  1.7892 -1.8161
   16SAPS    C2 2016   1.311   1.152   6.883 -0.0502  0.4242  0.1898
   16SAPS    HS 2017   1.240   1.077   6.843  0.3067  0.0470  0.2615
   16SAPS   O21 2018   1.244   1.267   6.934  0.4202  0.5640 -0.2054
   16SAPS   C21 2019   1.111   1.265   6.937  0.2906 -0.3551 -0.4570
   16SAPS   O22 2020   1.036   1.195   6.868  0.0662 -0.2283  0.2497
   16SAPS   C22 2021   1.072   1.367   7.042 -0.7829 -0.1914 -0.1213
   16SAPS   H2R 2022   1.028   1.317   7.131 -0.1337  1.0763  0.9434
   16SAPS   H2S 2023   1.157   1.427   7.080 -0.6793 -0.4646  0.0774
   16SAPS    C3 2024   1.382   1.074   6.996 -1.2093 -0.2004  0.6640
   16SAPS    HX 2025   1.424   0.985   6.945 -2.0155  0.2358 -0.8307
   16SAPS    HY 2026   1.302   1.042   7.066 -0.2730 -1.3085  1.2534
   16SAPS   O31 2027   1.492   1.156   7.046  0.1492 -0.2529 -0.1559
   16SAPS   C31 2028   1.467   1.215   7.159  0.4388 -0.3063  0.0316
   16SAPS   O32 2029   1.358   1.219   7.212 -0.1926  0.2236 -0.0453
   16SAPS   C32 2030   1.594   1.291   7.198  0.3798 -0.3892 -0.1815
   16SAPS   H2X 2031   1.577   1.400   7.184  0.9425 -0.1559  0.8446
   16SAPS   H2Y 2032   1.683   1.256   7.140  1.0127 -0.8473  1.0389
   16SAPS   C23 2033   0.956   1.455   6.990 -0.2484 -0.2045  0.0212
   16SAPS   H3R 2034   0.891   1.393   6.926  1.6147 -1.3951 -0.7863
   16SAPS   H3S 2035   1.004   1.537   6.931  2.0492 -1.0594  0.5879
   16SAPS   C24 2036   0.873   1.509   7.112  0.2095  0.1849 -0.2503
   16SAPS   H4R 2037   0.809   1.595   7.085  0.0200  0.3328  0.6281
   16SAPS   H4S 2038   0.945   1.531   7.194  1.4311  0.7979 -1.4538
   16SAPS   C25 2039   0.771   1.403   7.165  0.5774  0.2822 -0.0818
   16SAPS   H5R 2040   0.736   1.329   7.091  2.8885 -0.4318 -0.5534
   16SAPS   C26 2041   0.737   1.376   7.293 -0.7058  0.0577 -0.6912
   16SAPS   H6R 2042   0.667   1.293   7.310  0.1624 -0.3319  1.1811
   16SAPS   C27 2043   0.778   1.439   7.427 -0.5024  0.3742 -0.2340
   16SAPS   H7R 2044   0.695   1.443   7.500  0.8242 -0.9005  1.4135
   16SAPS   H7S 2045   0.807   1.546   7.415  1.8531 -0.4410 -2.8245
   16SAPS   C28 2046   0.895   1.366   7.479  0.0619  0.3605 -0.5034
   16SAPS   H8R 2047   0.982   1.375   7.411 -0.8374 -0.3896 -1.7973
   16SAPS   C29 2048   0.918   1.308   7.604 -0.1176 -0.2058 -0.1758
   16SAPS   H9R 2049   1.007   1.246   7.621  0.6138  1.2790  1.7617
   16SAPS  C210 2050   0.828   1.324   7.725  0.4023 -1.0199 -0.4120
   16SAPS  H10R 2051   0.726   1.349   7.689  0.0489 -1.5118  0.2120
   16SAPS  H10S 2052   0.866   1.410   7.784 -0.4152  0.5179 -2.0420
   16SAPS  C211 2053   0.821   1.203   7.811  0.6546 -0.1378 -0.4838
   16SAPS  H11R 2054   0.723   1.153   7.801  0.4546  0.0459  0.4633
   16SAPS  C212 2055   0.901   1.173   7.918 -0.7194 -0.1993 -0.2337
   16SAPS  H12R 2056   0.872   1.084   7.974 -1.0718  0.2633  0.3264
   16SAPS  C213 2057   1.024   1.248   7.960 -0.4575 -0.5260 -0.4453
   16SAPS  H13R 2058   1.079   1.308   7.884  0.4921 -0.1578  0.5081
   16SAPS  H13S 2059   1.088   1.173   8.011 -1.7413 -1.6056 -0.3700
   16SAPS  C214 2060   0.980   1.353   8.060  0.8670 -0.4487 -0.3745
   16SAPS  H14R 2061   0.884   1.402   8.039 -1.4218 -2.7556  3.5734
   16SAPS  C215 2062   1.046   1.379   8.178  0.1487  0.0233  0.0930
   16SAPS  H15R 2063   1.006   1.454   8.248 -1.5413 -0.3962 -0.3894
   16SAPS  C216 2064   1.174   1.315   8.236  0.4443  0.2192  0.3376
   16SAPS  H16R 2065   1.244   1.294   8.152 -2.0297 -0.1304 -1.7553
   16SAPS  H16S 2066   1.156   1.214   8.277  0.4702 -0.9417 -2.3064
   16SAPS  C217 2067   1.236   1.409   8.340 -0.5614 -0.3652  0.1962
   16SAPS  H17R 2068   1.158   1.430   8.416  0.1850 -0.0525  0.8916
   16SAPS  H17S 2069   1.266   1.497   8.279 -2.5966 -1.0609 -1.9606
   16SAPS  C218 2070   1.346   1.332   8.417  0.0911  1.3083 -0.3610
   16SAPS  H18R 2071   1.412   1.281   8.343 -2.4483  0.3849 -2.1049
   16SAPS  H18S 2072   1.303   1.260   8.490  0.6628  1.3293  0.0046
   16SAPS  C219 2073   1.440   1.434   8.484  0.1264 -0.4787 -0.2127
   16SAPS  H19R 2074   1.468   1.507   8.406  0.9976 -1.0079 -0.4146
   16SAPS  H19S 2075   1.534   1.379   8.508 -0.7488 -1.4150  1.2349
   16SAPS  C220 2076   1.379   1.512   8.601 -0.0359  0.1073  0.6529
   16SAPS  H20R 2077   1.449   1.596   8.621  0.1818 -0.1746  1.0978
   16SAPS  H20S 2078   1.379   1.439   8.685 -2.5861 -1.4502 -0.5915
   16SAPS  H20T 2079   1.273   1.546   8.598 -0.3976 -0.9561  0.7909
   16SAPS   C33 2080   1.632   1.271   7.350  0.0496  0.7680 -0.2978
   16SAPS   H3X 2081   1.730   1.316   7.377  1.2240 -1.4157 -0.6741
   16SAPS   H3Y 2082   1.650   1.163   7.366  1.2472  0.6642 -2.1511
   16SAPS   C34 2083   1.534   1.330   7.458 -0.0456  0.2549 -0.4513
   16SAPS   H4X 2084   1.437   1.277   7.469 -0.1669  0.5349 -0.1683
   16SAPS   H4Y 2085   1.520   1.436   7.429  0.2658 -0.2005 -2.4636
   16SAPS   C35 2086   1.587   1.322   7.608 -0.2242 -0.1634  0.7296
   16SAPS   H5X 2087   1.692   1.360   7.610 -0.7388  1.4579 -0.8166
   16SAPS   H5Y 2088   1.570   1.222   7.653 -2.8526  0.0613  0.3626
   16SAPS   C36 2089   1.501   1.408   7.705 -0.0434 -0.7753 -0.0540
   16SAPS   H6X 2090   1.404   1.355   7.712 -0.6920  0.2688 -0.9227
   16SAPS   H6Y 2091   1.482   1.510   7.666 -6.3833 -1.6019 -0.1088
   16SAPS   C37 2092   1.552   1.409   7.842  0.3197  0.6687 -0.0918
   16SAPS   H7X 2093   1.480   1.478   7.893 -1.9426 -1.3678 -0.3613
   16SAPS   H7Y 2094   1.651   1.460   7.845 -0.6956  2.7400  2.3028
   16SAPS   C38 2095   1.568   1.277   7.921  0.1162  0.3257  0.5106
   16SAPS   H8X 2096   1.657   1.225   7.877 -0.5636 -1.2993  0.9821
   16SAPS   H8Y 2097   1.482   1.207   7.913  0.5716 -0.7056  3.5892
   16SAPS   C39 2098   1.595   1.299   8.071 -0.2289  0.0218 -0.1151
   16SAPS   H9X 2099   1.517   1.372   8.100 -0.4168  1.2593 -3.3587
   16SAPS   H9Y 2100   1.693   1.352   8.075 -1.2983  2.0541 -0.0745
   16SAPS  C310 2101   1.603   1.179   8.163 -0.4135  0.2109 -0.0414
   16SAPS  H10X 2102   1.513   1.115   8.156 -0.1241 -0.4150  1.6400
   16SAPS  H10Y 2103   1.616   1.205   8.270 -2.4597  2.2865 -0.2172
   16SAPS  C311 2104   1.726   1.097   8.122  0.0313 -0.7202  0.0550
   16SAPS  H11X 2105   1.816   1.162   8.113 -1.2294  0.9456 -1.1266
   16SAPS  H11Y 2106   1.708   1.062   8.018 -2.1433  1.6805 -0.4671
   16SAPS  C312 2107   1.754   0.981   8.223 -0.1209  0.6650  0.1937
   16SAPS  H12X 2108   1.802   0.907   8.156 -0.7479  0.9246 -0.5679
   16SAPS  H12Y 2109   1.656   0.945   8.262  0.3266  0.8767  1.5479
   16SAPS  C313 2110   1.855   1.024   8.332  0.5050  0.0182  0.6280
   16SAPS  H13X 2111   1.813   1.110   8.389  0.0084  1.4047 -1.7121
   16SAPS  H13Y 2112   1.945   1.061   8.279  0.0442  1.9184  1.0920
   16SAPS  C314 2113   1.876   0.906   8.427  0.5136 -0.6231 -0.6739
   16SAPS  H14X 2114   1.776   0.892   8.473 -0.9557  0.4976 -3.3347
   16SAPS  H14Y 2115   1.950   0.955   8.495 -1.0879  0.3092  0.4516
   16SAPS  C315 2116   1.948   0.782   8.371  0.1319 -0.2386 -0.1970
   16SAPS  H15X 2117   2.035   0.818   8.312 -1.0348  2.1262 -0.5835
   16SAPS  H15Y 2118   1.872   0.739   8.302 -1.6421 -0.5966  1.8763
   16SAPS  C316 2119   1.995   0.686   8.478 -0.3481  0.3022  0.2697
   16SAPS  H16X 2120   1.916   0.644   8.544  0.8880 -2.7327 -0.0269
   16SAPS  H16Y 2121   2.070   0.736   8.544 -0.3259 -2.2981  2.3979
   16SAPS  C317 2122   2.074   0.559   8.422  0.2152 -0.1812 -0.3440
   16SAPS  H17X 2123   2.113   0.494   8.503 -0.0929 -0.3457 -0.3274
   16SAPS  H17Y 2124   2.166   0.596   8.372  0.4733 -0.3343  0.0068
   16SAPS  C318 2125   1.989   0.481   8.320  0.5392 -0.4142 -0.5687
   16SAPS  H18X 2126   1.898   0.446   8.374  1.1267  0.0207  0.7278
   16SAPS  H18Y 2127   2.040   0.402   8.261 -1.4513 -1.0498 -1.5500
   16SAPS  H18Z 2128   1.952   0.556   8.247  0.1531  1.1082  1.1211
   17SAPC     N 2129   5.543   6.728  10.640  0.5874 -0.1212  0.1020
   17SAPC   C12 2130   5.692   6.751  10.662  0.0443  0.6414 -0.4285
   17SAPC  H12A 2131   5.736   6.652  10.657 -1.9383 -0.2762 -0.8513
   17SAPC  H12B 2132   5.711   6.762  10.768  0.4067  0.0060 -0.4223
   17SAPC   C13 2133   5.486   6.612  10.717 -0.2424  0.3409  0.6938
   17SAPC  H13A 2134   5.507   6.614  10.823 -1.5743  1.1788  0.9603
   17SAPC  H13B 2135   5.381   6.602  10.695 -0.1536  0.1615  0.3389
   17SAPC  H13C 2136   5.524   6.518  10.680 -0.3566  0.4879  0.1980
   17SAPC   C14 2137   5.462   6.847  10.695 -0.8801 -0.3338 -0.1234
   17SAPC  H14A 2138   5.495   6.929  10.632  1.7281 -2.0462 -1.1448
   17SAPC  H14B 2139   5.354   6.841  10.685 -1.2833  2.9403  1.0228
   17SAPC  H14C 2140   5.488   6.865  10.798 -3.5416  0.7212  0.4554
   17SAPC   C15 2141   5.511   6.707  10.500 -0.3988  0.6163  0.0678
   17SAPC  H15A 2142   5.563   6.623  10.458 -0.4253 -0.0367  1.2873
   17SAPC  H15B 2143   5.408   6.676  10.498  0.7773 -4.1580  1.5409
   17SAPC  H15C 2144   5.522   6.786  10.427 -2.4297 -0.6038 -1.6856
   17SAPC   C11 2145   5.765   6.863  10.584  0.1281  0.1949 -0.6191
   17SAPC  H11A 2146   5.761   6.852  10.474 -0.7729 -1.4740 -0.4547
   17SAPC  H11B 2147   5.873   6.865  10.611 -0.0188  1.0920 -0.0503
   17SAPC     P 2148   5.799   7.124  10.559  0.1775  0.2764 -0.0336
   17SAPC   O13 2149   5.719   7.202  10.465 -0.2348 -0.4245 -0.2273
   17SAPC   O14 2150   5.832   7.193  10.687 -0.2832 -0.1365 -0.3687
   17SAPC   O12 2151   5.711   6.994  10.596  0.4053 -0.5132 -0.4812
   17SAPC   O11 2152   5.928   7.066  10.498  0.2941  0.7335  0.0289
   17SAPC    C1 2153   5.939   7.019  10.365  0.2990 -0.0375  0.4082
   17SAPC    HA 2154   5.849   6.965  10.331 -0.2042  0.8179  0.3389
   17SAPC    HB 2155   5.947   7.108  10.299  0.8408  0.9841  1.7797
   17SAPC    C2 2156   6.053   6.914  10.339  1.0322  0.1394  0.3796
   17SAPC    HS 2157   6.040   6.849  10.428 -0.2533  1.5676  1.2876
   17SAPC   O21 2158   6.185   6.974  10.338  0.3691 -0.7405  0.1822
   17SAPC   C21 2159   6.288   6.901  10.336 -0.4076  0.2561 -0.2434
   17SAPC   O22 2160   6.295   6.783  10.362 -0.5234  0.7553  0.1306
   17SAPC   C22 2161   6.413   6.987  10.303 -0.9235 -0.1199 -0.4639
   17SAPC   H2R 2162   6.395   7.041  10.208 -2.7343  0.7295  0.3030
   17SAPC   H2S 2163   6.421   7.052  10.393 -0.0392 -1.7464  0.6770
   17SAPC    C3 2164   6.020   6.830  10.212  0.4793 -0.0155 -0.3452
   17SAPC    HX 2165   5.934   6.762  10.232  0.2813  0.9944  2.8348
   17SAPC    HY 2166   6.109   6.772  10.179  1.4951  1.5997 -0.5461
   17SAPC   O31 2167   6.000   6.924  10.107  0.6328  0.3098  0.1812
   17SAPC   C31 2168   5.900   6.906  10.024  0.3554  0.3916 -0.0517
   17SAPC   O32 2169   5.806   6.829  10.040  0.7913  0.2310  0.2920
   17SAPC   C32 2170   5.910   7.015   9.920 -0.3296 -0.1777  0.2817
   17SAPC   H2X 2171   6.011   7.009   9.874 -0.3417 -1.2092  0.3783
   17SAPC   H2Y 2172   5.890   7.108   9.977 -0.4657  0.2199 -0.4030
   17SAPC   C23 2173   6.548   6.910  10.292 -0.8115  0.6443  0.1040
   17SAPC   H3R 2174   6.543   6.819  10.355  1.7259 -1.0939 -2.0075
   17SAPC   H3S 2175   6.626   6.967  10.346 -0.5900 -2.1336  2.9727
   17SAPC   C24 2176   6.603   6.875  10.150  0.2010 -0.1708  0.0387
   17SAPC   H4R 2177   6.709   6.841  10.159 -0.8562 -3.4017  1.6322
   17SAPC   H4S 2178   6.605   6.964  10.082 -0.7240 -2.1116 -2.7042
   17SAPC   C25 2179   6.507   6.767  10.089 -0.1362 -0.1571 -0.1886
   17SAPC   H5R 2180   6.506   6.667  10.136 -4.8006 -0.4677 -0.4862
   17SAPC   C26 2181   6.428   6.772   9.984  0.3877 -0.5620  0.0887
   17SAPC   H6R 2182   6.373   6.680   9.958  0.8362 -0.0931 -2.9189
   17SAPC   C27 2183   6.417   6.891   9.889 -0.4135 -0.7202  0.4112
   17SAPC   H7R 2184   6.415   6.983   9.952  0.4515  0.9195 -1.8529
   17SAPC   H7S 2185   6.320   6.884   9.835 -0.6533 -0.5643  0.8154
   17SAPC   C28 2186   6.531   6.901   9.789  0.0696 -0.6374 -0.3327
   17SAPC   H8R 2187   6.613   6.963   9.829 -2.6566  0.4711  4.1565
   17SAPC   C29 2188   6.537   6.841   9.669 -0.5238  0.1403 -0.1363
   17SAPC   H9R 2189   6.623   6.870   9.606 -1.4318  3.3459 -0.0924
   17SAPC  C210 2190   6.432   6.753   9.609  0.2864 -0.0761 -0.2112
   17SAPC  H10R 2191   6.361   6.724   9.689 -1.1127 -2.6593 -2.2066
   17SAPC  H10S 2192   6.480   6.658   9.575 -1.0360 -0.8810  0.0861
   17SAPC  C211 2193   6.359   6.816   9.496  0.2462 -0.8030  0.1965
   17SAPC  H11R 2194   6.297   6.902   9.527  3.4958  0.9796  2.4316
   17SAPC  C212 2195   6.366   6.787   9.362  0.2181  0.3869 -0.9889
   17SAPC  H12R 2196   6.314   6.855   9.293 -3.4738 -2.0550 -0.8775
   17SAPC  C213 2197   6.432   6.662   9.304  0.5502  0.3920  0.4691
   17SAPC  H13R 2198   6.344   6.594   9.297  1.0372 -0.2270  0.3503
   17SAPC  H13S 2199   6.494   6.606   9.376  0.3029 -0.0916  0.3137
   17SAPC  C214 2200   6.510   6.683   9.184 -0.5608  0.1859 -0.3425
   17SAPC  H14R 2201   6.561   6.780   9.180 -0.4925  0.1175 -1.5564
   17SAPC  C215 2202   6.519   6.596   9.086  0.5004 -0.0205 -0.4433
   17SAPC  H15R 2203   6.571   6.628   8.995 -0.7872 -1.3487 -1.7032
   17SAPC  C216 2204   6.452   6.462   9.087  0.2703 -0.4293  0.8570
   17SAPC  H16R 2205   6.364   6.463   9.019  0.9533 -1.5357 -0.0560
   17SAPC  H16S 2206   6.417   6.430   9.188 -0.1232  0.1883  0.9238
   17SAPC  C217 2207   6.542   6.354   9.027 -0.3482  0.2418 -0.0698
   17SAPC  H17R 2208   6.631   6.345   9.092 -1.0198  0.5225  0.8950
   17SAPC  H17S 2209   6.583   6.378   8.926  0.5789  0.0591  0.2563
   17SAPC  C218 2210   6.478   6.217   9.028  0.0949  0.5426 -0.2815
   17SAPC  H18R 2211   6.378   6.220   8.980  0.8843 -0.3378 -2.1149
   17SAPC  H18S 2212   6.464   6.182   9.132 -1.9244  1.1981 -0.2838
   17SAPC  C219 2213   6.562   6.121   8.943  0.1311  0.8504  0.9157
   17SAPC  H19R 2214   6.662   6.109   8.990 -0.8294 -1.6661  2.5702
   17SAPC  H19S 2215   6.570   6.157   8.838 -1.7948  2.9772  1.4088
   17SAPC  C220 2216   6.495   5.981   8.928 -0.0492 -0.7316 -0.0520
   17SAPC  H20R 2217   6.477   5.944   9.031  0.9709 -2.1518 -0.3456
   17SAPC  H20S 2218   6.576   5.916   8.887  0.7586  0.1197  0.1490
   17SAPC  H20T 2219   6.408   5.983   8.859 -0.1282 -2.0415 -0.0176
   17SAPC   C33 2220   5.801   7.014   9.807 -0.3108 -0.2643 -0.1666
   17SAPC   H3X 2221   5.797   7.113   9.758 -0.3989 -1.0120 -1.7434
   17SAPC   H3Y 2222   5.697   6.992   9.841 -0.4462 -1.7028 -1.3718
   17SAPC   C34 2223   5.828   6.914   9.697  0.3480  0.2547 -0.5504
   17SAPC   H4X 2224   5.804   6.819   9.748 -0.9526  2.0672  2.5125
   17SAPC   H4Y 2225   5.934   6.915   9.665  0.8423  1.9495  0.9501
   17SAPC   C35 2226   5.744   6.956   9.581 -0.3767  0.4189  0.0757
   17SAPC   H5X 2227   5.756   7.063   9.553 -0.8165  0.1432 -1.2477
   17SAPC   H5Y 2228   5.639   6.956   9.617 -1.0292  0.6713 -1.6863
   17SAPC   C36 2229   5.756   6.866   9.454  0.7216  0.3324 -0.0351
   17SAPC   H6X 2230   5.775   6.762   9.487  1.5256  0.8797  1.3088
   17SAPC   H6Y 2231   5.846   6.891   9.394  0.7276 -2.0217 -1.1108
   17SAPC   C37 2232   5.637   6.895   9.364  0.5229  0.2848 -0.2719
   17SAPC   H7X 2233   5.646   6.999   9.324  3.0118  0.5192  0.6596
   17SAPC   H7Y 2234   5.543   6.886   9.422  0.7144 -2.1374 -0.2453
   17SAPC   C38 2235   5.625   6.799   9.246 -0.2099  0.0376 -0.1463
   17SAPC   H8X 2236   5.553   6.722   9.281  1.1024 -0.6695  1.1657
   17SAPC   H8Y 2237   5.720   6.745   9.225 -1.4806 -2.2018 -0.4878
   17SAPC   C39 2238   5.562   6.859   9.124  0.6312  0.4539  0.2899
   17SAPC   H9X 2239   5.608   6.950   9.080 -0.8765 -0.6073 -4.0134
   17SAPC   H9Y 2240   5.455   6.884   9.139 -0.2983 -3.6136  1.5301
   17SAPC  C310 2241   5.585   6.755   9.007  0.7363  0.1766 -0.5478
   17SAPC  H10X 2242   5.509   6.675   9.023  1.1992  0.0844  1.3070
   17SAPC  H10Y 2243   5.684   6.705   9.014  1.3028  1.0954 -1.5361
   17SAPC  C311 2244   5.567   6.812   8.867 -0.1825  0.3103  0.0745
   17SAPC  H11X 2245   5.666   6.853   8.839  0.6416 -1.6367 -0.0632
   17SAPC  H11Y 2246   5.487   6.889   8.863 -1.6258 -1.1625 -0.4546
   17SAPC  C312 2247   5.542   6.706   8.761 -0.0543  0.1218  0.1177
   17SAPC  H12X 2248   5.436   6.675   8.769 -0.0978  0.3775  0.5218
   17SAPC  H12Y 2249   5.605   6.622   8.798 -0.2462  0.5348  1.4242
   17SAPC  C313 2250   5.573   6.748   8.615  0.2059  0.2865 -0.2776
   17SAPC  H13X 2251   5.678   6.782   8.613  0.8965 -1.5795  1.3205
   17SAPC  H13Y 2252   5.496   6.825   8.589 -0.6409 -0.9000 -1.3994
   17SAPC  C314 2253   5.555   6.626   8.528 -0.5214 -0.5450 -0.1160
   17SAPC  H14X 2254   5.457   6.588   8.564 -0.7289 -1.5980 -1.7248
   17SAPC  H14Y 2255   5.635   6.554   8.554  0.7288  0.0252 -2.1451
   17SAPC  C315 2256   5.551   6.669   8.378  0.1974  0.1258 -0.1976
   17SAPC  H15X 2257   5.599   6.767   8.356 -2.9072  1.7656 -0.3506
   17SAPC  H15Y 2258   5.445   6.695   8.357  0.6009  1.7570 -0.3226
   17SAPC  C316 2259   5.588   6.553   8.285 -0.6295  0.4957  0.2114
   17SAPC  H16X 2260   5.691   6.517   8.307 -0.8622 -1.7348 -1.8561
   17SAPC  H16Y 2261   5.586   6.587   8.179 -0.1981 -0.9703 -0.3038
   17SAPC  C317 2262   5.483   6.439   8.287  0.4018 -0.3588 -0.2084
   17SAPC  H17X 2263   5.385   6.481   8.255 -0.6393 -2.4057  0.1560
   17SAPC  H17Y 2264   5.462   6.406   8.390 -2.1643  1.5957  0.0137
   17SAPC  C318 2265   5.512   6.319   8.196  0.2465  0.3221  0.7545
   17SAPC  H18X 2266   5.555   6.356   8.100  3.2196 -1.8701  1.1086
   17SAPC  H18Y 2267   5.588   6.248   8.234  0.2400 -1.9443 -2.9320
   17SAPC  H18Z 2268   5.422   6.260   8.169  1.9713 -3.4464  2.6431
   18SAPC     N 2269   5.346   0.574  10.320  0.0175  0.0243 -0.0880
   18SAPC   C12 2270   5.287   0.522  10.446  0.4318 -0.9256 -0.4239
   18SAPC  H12A 2271   5.184   0.494  10.431  1.0794 -2.8037 -1.8348
   18SAPC  H12B 2272   5.290   0.602  10.518 -0.4779  0.1606 -1.5459
   18SAPC   C13 2273   5.487   0.628  10.343 -0.2569  0.4293 -0.1973
   18SAPC  H13A 2274   5.541   0.552  10.396 -1.7064 -1.2612 -1.0528
   18SAPC  H13B 2275   5.530   0.661  10.250  1.6626  1.2970  0.9390
   18SAPC  H13C 2276   5.492   0.720  10.401  1.7289  0.1341  0.1485
   18SAPC   C14 2277   5.345   0.470  10.221  1.0699 -0.3213  0.8863
   18SAPC  H14A 2278   5.247   0.424  10.216 -0.7044  3.0918  1.0264
   18SAPC  H14B 2279   5.366   0.506  10.121  0.7894  0.1869  1.0101
   18SAPC  H14C 2280   5.415   0.394  10.251  2.1600  0.7403  1.1103
   18SAPC   C15 2281   5.264   0.691  10.272  0.0469 -0.6627  0.1067
   18SAPC  H15A 2282   5.308   0.731  10.181 -0.1062  1.9088  1.0863
   18SAPC  H15B 2283   5.167   0.654  10.244  1.0144 -0.6313 -3.9846
   18SAPC  H15C 2284   5.258   0.769  10.346 -0.3155 -1.2650  0.7223
   18SAPC   C11 2285   5.360   0.402  10.503 -0.6811  0.3503 -0.3348
   18SAPC  H11A 2286   5.464   0.433  10.527 -0.9354  1.6038 -0.7541
   18SAPC  H11B 2287   5.380   0.317  10.435  3.1790  1.5564 -0.9761
   18SAPC     P 2288   5.156   0.275  10.599  0.3143 -0.1373  0.0579
   18SAPC   O13 2289   5.160   0.149  10.683 -0.0843 -0.3516  0.7358
   18SAPC   O14 2290   5.046   0.371  10.621  0.0281  0.1392 -0.5896
   18SAPC   O12 2291   5.291   0.351  10.624 -0.1911 -0.2539  0.3539
   18SAPC   O11 2292   5.145   0.233  10.451  0.3282  0.0548 -0.3088
   18SAPC    C1 2293   5.204   0.114  10.402  0.4606 -0.7133  0.4204
   18SAPC    HA 2294   5.279   0.140  10.325 -1.7428  0.7289 -1.3930
   18SAPC    HB 2295   5.257   0.066  10.487  1.2462  1.2311  1.0929
   18SAPC    C2 2296   5.094   0.023  10.335 -0.8297 -0.1256 -0.4898
   18SAPC    HS 2297   5.025  -0.007  10.416  0.7252  3.9224  2.6838
   18SAPC   O21 2298   5.164  -0.086  10.276 -0.2284  0.4913 -0.0767
   18SAPC   C21 2299   5.101  -0.202  10.262  0.3703  0.6238  0.0448
   18SAPC   O22 2300   4.987  -0.219  10.300 -0.4888  0.7920 -0.4465
   18SAPC   C22 2301   5.196  -0.311  10.207  0.2797  0.3535 -0.4069
   18SAPC   H2R 2302   5.224  -0.376  10.292  1.9253 -0.0111 -1.1921
   18SAPC   H2S 2303   5.134  -0.378  10.144  0.9835 -1.2909  0.5904
   18SAPC    C3 2304   5.012   0.102  10.233  0.5804 -0.5368  0.2911
   18SAPC    HX 2305   5.077   0.151  10.157 -1.3789  0.8043 -0.6075
   18SAPC    HY 2306   4.969   0.195  10.275 -2.6763 -1.9143  0.2493
   18SAPC   O31 2307   4.912   0.011  10.164 -0.3379  0.4620 -0.3592
   18SAPC   C31 2308   4.822   0.074  10.097 -0.2039  0.2342  0.5744
   18SAPC   O32 2309   4.816   0.194  10.080 -0.4347 -0.1771 -0.1353
   18SAPC   C32 2310   4.723  -0.021  10.032 -0.7244 -0.6484 -0.0780
   18SAPC   H2X 2311   4.623   0.002  10.074 -0.7036  1.9298 -1.2893
   18SAPC   H2Y 2312   4.750  -0.121  10.073 -0.1599  0.2434  1.8575
   18SAPC   C23 2313   5.332  -0.273  10.140 -0.0593 -0.6008 -0.0754
   18SAPC   H3R 2314   5.378  -0.371  10.118  1.6321  0.7796 -3.2992
   18SAPC   H3S 2315   5.379  -0.216  10.223 -0.5971 -0.8746  0.4223
   18SAPC   C24 2316   5.319  -0.199  10.002 -0.6579  0.3505 -0.3563
   18SAPC   H4R 2317   5.238  -0.122  10.009 -0.4091  0.6769 -0.9833
   18SAPC   H4S 2318   5.267  -0.273   9.937  0.2190 -1.9756  1.4505
   18SAPC   C25 2319   5.450  -0.162   9.945 -0.8545  0.3086  0.0636
   18SAPC   H5R 2320   5.532  -0.235   9.945  1.3572  2.5979  1.9395
   18SAPC   C26 2321   5.467  -0.035   9.895 -0.4098  0.4124 -0.2044
   18SAPC   H6R 2322   5.565  -0.004   9.856 -0.8922  0.9060 -1.0598
   18SAPC   C27 2323   5.376   0.083   9.886  0.1468  0.4142  0.4035
   18SAPC   H7R 2324   5.385   0.155   9.971  0.0042  1.0120 -0.0775
   18SAPC   H7S 2325   5.271   0.048   9.892  0.4896 -1.2586 -1.9780
   18SAPC   C28 2326   5.385   0.161   9.763  0.7501 -0.1221  0.4252
   18SAPC   H8R 2327   5.467   0.234   9.775  0.5274  0.1196  0.5035
   18SAPC   C29 2328   5.320   0.147   9.645  0.5418 -0.0864 -0.4802
   18SAPC   H9R 2329   5.358   0.213   9.567  2.0316 -1.2512 -0.7833
   18SAPC  C210 2330   5.224   0.034   9.607  0.2386 -0.2320 -0.6108
   18SAPC  H10R 2331   5.119   0.072   9.605  0.0532 -0.7508 -1.2997
   18SAPC  H10S 2332   5.226  -0.050   9.680  1.2634 -2.4463 -3.0183
   18SAPC  C211 2333   5.253  -0.030   9.476  0.4231  0.0978  0.0481
   18SAPC  H11R 2334   5.307  -0.126   9.469 -1.7887 -1.1066 -2.6841
   18SAPC  C212 2335   5.230   0.025   9.354 -0.1332  0.2285 -0.3089
   18SAPC  H12R 2336   5.258  -0.039   9.270  2.8644  1.3187 -0.2770
   18SAPC  C213 2337   5.171   0.155   9.320  0.2301 -0.1168 -0.4642
   18SAPC  H13R 2338   5.124   0.212   9.403 -0.6381 -0.5470 -0.6549
   18SAPC  H13S 2339   5.079   0.139   9.259 -0.8535  1.2564  0.7278
   18SAPC  C214 2340   5.281   0.235   9.252  0.8685  0.2113 -0.1039
   18SAPC  H14R 2341   5.376   0.237   9.308  1.0402 -0.8738 -0.3292
   18SAPC  C215 2342   5.278   0.304   9.137 -0.1864  0.1919 -0.0446
   18SAPC  H15R 2343   5.369   0.343   9.090  1.2430 -1.5383  1.1476
   18SAPC  C216 2344   5.165   0.319   9.035 -0.4878  0.0093 -0.5271
   18SAPC  H16R 2345   5.160   0.427   9.009  1.1541  0.0497 -0.7994
   18SAPC  H16S 2346   5.071   0.272   9.071 -0.1252 -1.2576 -1.1838
   18SAPC  C217 2347   5.207   0.258   8.906  0.1483 -0.3023  0.3425
   18SAPC  H17R 2348   5.216   0.147   8.906  0.3627 -0.2868  0.0151
   18SAPC  H17S 2349   5.300   0.304   8.867 -2.1670  2.7239 -2.0574
   18SAPC  C218 2350   5.104   0.297   8.800  0.5915  0.0342  0.4178
   18SAPC  H18R 2351   5.006   0.334   8.838  0.9689  3.4736 -1.5457
   18SAPC  H18S 2352   5.094   0.200   8.746  2.1120  0.0734  0.0211
   18SAPC  C219 2353   5.152   0.404   8.703 -0.3829 -0.1984  0.5507
   18SAPC  H19R 2354   5.252   0.391   8.657 -0.1445 -1.7317  1.4311
   18SAPC  H19S 2355   5.151   0.505   8.750  0.2235  0.8994 -1.6639
   18SAPC  C220 2356   5.038   0.428   8.601 -0.5684  0.7679  0.5434
   18SAPC  H20R 2357   4.934   0.425   8.639 -1.1544 -1.0463 -1.0431
   18SAPC  H20S 2358   5.038   0.351   8.520 -0.0711  2.7824 -1.4795
   18SAPC  H20T 2359   5.054   0.521   8.542 -0.1305  0.5043  0.2381
   18SAPC   C33 2360   4.724  -0.010   9.878  0.0946  0.1779 -0.1395
   18SAPC   H3X 2361   4.728   0.100   9.861  0.9344  0.1312 -0.2951
   18SAPC   H3Y 2362   4.629  -0.049   9.836  2.2224 -2.5742 -2.8393
   18SAPC   C34 2363   4.840  -0.084   9.812  0.0119  0.4351  0.1585
   18SAPC   H4X 2364   4.817  -0.191   9.834  0.5675  0.2764 -0.0192
   18SAPC   H4Y 2365   4.933  -0.047   9.859  0.8685 -1.7419  0.3229
   18SAPC   C35 2366   4.852  -0.064   9.661 -0.0039 -0.2160 -0.1742
   18SAPC   H5X 2367   4.952  -0.100   9.628  1.6746  1.0498  3.1066
   18SAPC   H5Y 2368   4.852   0.044   9.638  3.0634 -0.1244 -0.1896
   18SAPC   C36 2369   4.739  -0.134   9.584  0.2603 -0.5991  0.4618
   18SAPC   H6X 2370   4.646  -0.124   9.643  0.9515 -1.2235  1.6971
   18SAPC   H6Y 2371   4.768  -0.241   9.575 -1.0998 -1.1006  1.5402
   18SAPC   C37 2372   4.712  -0.080   9.441  0.1408 -0.3965 -0.3167
   18SAPC   H7X 2373   4.622  -0.135   9.406  0.1156 -1.6450  1.5581
   18SAPC   H7Y 2374   4.792  -0.114   9.372 -1.7493 -3.9373 -0.9805
   18SAPC   C38 2375   4.692   0.069   9.426 -0.0214  0.2460  0.1139
   18SAPC   H8X 2376   4.783   0.122   9.462 -0.0864  0.7711 -0.4919
   18SAPC   H8Y 2377   4.608   0.089   9.495 -0.3778  0.3387 -0.3437
   18SAPC   C39 2378   4.664   0.100   9.278 -0.2946  0.0136  0.3314
   18SAPC   H9X 2379   4.627   0.204   9.287 -1.7126 -0.5036  0.6672
   18SAPC   H9Y 2380   4.591   0.026   9.241 -0.3228  0.0674  0.2799
   18SAPC  C310 2381   4.784   0.102   9.177 -0.5768  0.4258 -0.7313
   18SAPC  H10X 2382   4.849   0.012   9.181 -0.3205  0.6062  2.8171
   18SAPC  H10Y 2383   4.843   0.183   9.226 -1.6123  0.2714  0.8500
   18SAPC  C311 2384   4.752   0.127   9.036 -0.2175  0.1274 -0.0675
   18SAPC  H11X 2385   4.692   0.040   9.002 -1.2223  1.7008 -2.6561
   18SAPC  H11Y 2386   4.841   0.124   8.969  0.0979 -1.0775  0.3925
   18SAPC  C312 2387   4.670   0.250   9.006 -0.0937  0.4140  0.5643
   18SAPC  H12X 2388   4.715   0.334   9.063 -0.7635  2.5653 -1.9066
   18SAPC  H12Y 2389   4.564   0.239   9.039 -0.3607  1.8917  0.2690
   18SAPC  C313 2390   4.672   0.300   8.866  0.4104 -0.8091 -0.2678
   18SAPC  H13X 2391   4.772   0.314   8.820  0.1446 -1.1607 -0.9672
   18SAPC  H13Y 2392   4.622   0.399   8.859  0.2963 -0.7321  1.2707
   18SAPC  C314 2393   4.603   0.206   8.767  0.2725 -0.5034 -0.0817
   18SAPC  H14X 2394   4.504   0.186   8.815  1.5322 -0.9966  2.4661
   18SAPC  H14Y 2395   4.661   0.114   8.749 -0.6083 -1.6155  2.3585
   18SAPC  C315 2396   4.584   0.288   8.632 -0.1994  0.2589 -0.4011
   18SAPC  H15X 2397   4.682   0.334   8.604 -0.9956  1.3267 -1.5252
   18SAPC  H15Y 2398   4.511   0.360   8.675  1.3753  2.8063 -1.7303
   18SAPC  C316 2399   4.525   0.211   8.516  0.1408 -0.7396  0.3753
   18SAPC  H16X 2400   4.503   0.293   8.445  1.6745  0.3519  1.1207
   18SAPC  H16Y 2401   4.426   0.170   8.546 -0.1140  1.0489  2.2081
   18SAPC  C317 2402   4.611   0.105   8.445  0.4303  0.9012 -0.6459
   18SAPC  H17X 2403   4.613   0.016   8.512  0.0171 -0.6715 -2.6129
   18SAPC  H17Y 2404   4.713   0.147   8.439  0.6282  0.4382 -0.5657
   18SAPC  C318 2405   4.570   0.056   8.308  0.2315  0.2432 -0.4128
   18SAPC  H18X 2406   4.638  -0.028   8.284  0.5011  1.1401 -3.0419
   18SAPC  H18Y 2407   4.583   0.136   8.232  0.6764  2.1087  1.5110
   18SAPC  H18Z 2408   4.473   0.004   8.294 -0.1744  0.9440 -0.2585
   19SAPC     N 2409   5.069   3.142  10.601  0.5424  0.6055  0.0035
   19SAPC   C12 2410   5.116   3.132  10.452 -0.3221 -0.5907  0.4030
   19SAPC  H12A 2411   5.217   3.163  10.433 -0.9606 -0.3470 -3.3430
   19SAPC  H12B 2412   5.069   3.217  10.404  1.1018  0.1448  0.2800
   19SAPC   C13 2413   5.063   3.280  10.654 -0.0239 -0.4706  0.0902
   19SAPC  H13A 2414   4.981   3.338  10.613 -0.2621 -1.2777 -0.6124
   19SAPC  H13B 2415   5.034   3.267  10.757  0.8892 -0.4988  0.3554
   19SAPC  H13C 2416   5.158   3.331  10.651 -0.6492  0.7834  1.0050
   19SAPC   C14 2417   4.933   3.076  10.601 -0.0128  0.5978  0.2341
   19SAPC  H14A 2418   4.952   2.976  10.567  2.4591  1.1626 -0.2559
   19SAPC  H14B 2419   4.898   3.068  10.702 -1.9302 -1.8804 -0.5429
   19SAPC  H14C 2420   4.860   3.122  10.536 -1.4296 -2.3213 -0.3605
   19SAPC   C15 2421   5.150   3.064  10.696 -0.4609 -0.4752  0.8990
   19SAPC  H15A 2422   5.122   3.071  10.800 -1.3308 -0.7377  0.6965
   19SAPC  H15B 2423   5.151   2.957  10.683 -0.4492 -0.4594  0.7729
   19SAPC  H15C 2424   5.253   3.096  10.687  0.2664 -2.9261 -0.1523
   19SAPC   C11 2425   5.083   3.008  10.358 -0.6504 -0.4038 -0.0163
   19SAPC  H11A 2426   5.129   3.030  10.259 -2.2948  0.8910 -0.5288
   19SAPC  H11B 2427   4.975   2.996  10.336 -1.8723  1.5915  3.8586
   19SAPC     P 2428   5.080   2.747  10.411  0.1070 -0.1476  0.2016
   19SAPC   O13 2429   5.174   2.652  10.476  0.2398  0.0454 -0.1978
   19SAPC   O14 2430   4.942   2.754  10.454 -0.7812 -0.2091  0.0338
   19SAPC   O12 2431   5.144   2.896  10.416 -0.0849 -0.0139  0.3501
   19SAPC   O11 2432   5.087   2.719  10.254  0.4581 -0.3025 -0.0840
   19SAPC    C1 2433   5.204   2.721  10.183 -0.5800 -0.1900 -0.1712
   19SAPC    HA 2434   5.268   2.804  10.218  0.2149 -0.0922 -1.7743
   19SAPC    HB 2435   5.275   2.641  10.215 -0.2473  0.9415  2.1171
   19SAPC    C2 2436   5.185   2.707  10.027 -0.0484 -0.2455  0.5579
   19SAPC    HS 2437   5.279   2.735   9.974 -0.1025  1.3218  1.2192
   19SAPC   O21 2438   5.081   2.806   9.990 -0.7520 -0.7285  0.1009
   19SAPC   C21 2439   5.126   2.932  10.008  0.4442  0.0101  0.0395
   19SAPC   O22 2440   5.236   2.972  10.036  0.4750 -0.5999  0.1530
   19SAPC   C22 2441   5.013   3.023   9.970 -0.5907 -0.4291  0.2622
   19SAPC   H2R 2442   4.987   3.014   9.862  0.7711  0.3297 -0.1595
   19SAPC   H2S 2443   4.927   2.991  10.034 -1.0682 -0.5411 -0.4228
   19SAPC    C3 2444   5.152   2.562   9.995  0.7686  0.0739 -0.3272
   19SAPC    HX 2445   5.051   2.531  10.030  0.3470  1.2387 -0.4566
   19SAPC    HY 2446   5.231   2.499  10.043  1.4806  1.0943 -0.1254
   19SAPC   O31 2447   5.172   2.550   9.850 -0.2459 -0.2741  0.3231
   19SAPC   C31 2448   5.060   2.565   9.780 -0.0195  0.0715 -0.2985
   19SAPC   O32 2449   4.948   2.569   9.827  0.2584 -0.1284  0.1498
   19SAPC   C32 2450   5.082   2.557   9.628 -1.5412  0.4394 -0.3958
   19SAPC   H2X 2451   5.098   2.665   9.608  0.4719  0.2660  0.0367
   19SAPC   H2Y 2452   4.990   2.531   9.572 -0.9623 -1.7246 -0.4182
   19SAPC   C23 2453   5.046   3.170  10.002 -0.0877 -0.2529 -0.4426
   19SAPC   H3R 2454   5.125   3.202   9.930 -0.3996  0.7135 -0.3766
   19SAPC   H3S 2455   5.085   3.191  10.103 -0.1388  2.2526 -0.8749
   19SAPC   C24 2456   4.924   3.274   9.979 -0.0402 -0.4666  0.0066
   19SAPC   H4R 2457   4.845   3.223  10.039 -1.5450 -0.5705 -1.9641
   19SAPC   H4S 2458   4.896   3.268   9.872  0.2574 -2.7066  0.0136
   19SAPC   C25 2459   4.955   3.416  10.025  0.8065 -0.2957  0.0552
   19SAPC   H5R 2460   5.010   3.428  10.119  0.0024 -1.1407  0.6457
   19SAPC   C26 2461   4.931   3.524   9.945  0.3802 -0.4677 -0.3072
   19SAPC   H6R 2462   4.952   3.625   9.985 -3.5886  1.3038 -2.1450
   19SAPC   C27 2463   4.873   3.535   9.810  0.6961  0.5283  0.7018
   19SAPC   H7R 2464   4.768   3.564   9.833 -0.0381 -1.2448 -0.2113
   19SAPC   H7S 2465   4.850   3.442   9.754 -0.0533  1.0801  0.0537
   19SAPC   C28 2466   4.963   3.622   9.722 -0.5515 -0.1816  0.7287
   19SAPC   H8R 2467   5.068   3.588   9.720 -0.1195  1.1210 -0.3034
   19SAPC   C29 2468   4.911   3.718   9.639 -0.0712 -1.3846  0.1229
   19SAPC   H9R 2469   4.980   3.769   9.570 -0.7664  0.2071  0.5578
   19SAPC  C210 2470   4.766   3.760   9.632 -0.5018 -0.6277 -0.8400
   19SAPC  H10R 2471   4.746   3.791   9.736  0.0291  1.6913 -1.3754
   19SAPC  H10S 2472   4.711   3.670   9.599  1.9568 -1.9747 -1.5428
   19SAPC  C211 2473   4.737   3.874   9.537  0.6703 -0.2397  0.2698
   19SAPC  H11R 2474   4.758   3.972   9.582 -0.3012  1.1601 -2.1451
   19SAPC  C212 2475   4.698   3.859   9.410 -0.1512  0.3074  0.3808
   19SAPC  H12R 2476   4.693   3.957   9.359  1.7918  2.0967  3.3344
   19SAPC  C213 2477   4.674   3.720   9.345 -0.4962 -0.1907 -0.2075
   19SAPC  H13R 2478   4.575   3.714   9.296 -0.8144  0.7273  0.3212
   19SAPC  H13S 2479   4.690   3.633   9.413  0.1419 -2.0595 -2.5902
   19SAPC  C214 2480   4.782   3.703   9.239  0.2075  0.4355  0.5935
   19SAPC  H14R 2481   4.887   3.693   9.269  0.9959  2.1478 -1.3994
   19SAPC  C215 2482   4.771   3.708   9.102 -0.2465 -0.1197 -0.0644
   19SAPC  H15R 2483   4.862   3.702   9.040 -0.4474 -1.6146 -0.2661
   19SAPC  C216 2484   4.644   3.744   9.029 -0.3011  0.2039  1.0380
   19SAPC  H16R 2485   4.644   3.843   8.978 -0.4683  0.0184  0.6770
   19SAPC  H16S 2486   4.559   3.738   9.100  0.6410 -2.5746  2.0800
   19SAPC  C217 2487   4.616   3.643   8.913 -0.4569  0.2614  0.2741
   19SAPC  H17R 2488   4.590   3.543   8.952  0.5826  0.7565  2.4045
   19SAPC  H17S 2489   4.712   3.634   8.858  0.0743  0.0715  1.2096
   19SAPC  C218 2490   4.489   3.684   8.838  0.6900  0.1057  0.7495
   19SAPC  H18R 2491   4.506   3.784   8.793 -0.5447  0.4817  1.0727
   19SAPC  H18S 2492   4.402   3.702   8.905 -0.2725 -0.4638 -0.3047
   19SAPC  C219 2493   4.453   3.598   8.713  0.7131  0.0259 -0.1872
   19SAPC  H19R 2494   4.356   3.642   8.681  0.0727  0.7278  2.4889
   19SAPC  H19S 2495   4.438   3.493   8.744  0.2237  0.3224  0.6197
   19SAPC  C220 2496   4.543   3.603   8.595  0.2194  0.4586  0.1591
   19SAPC  H20R 2497   4.647   3.608   8.634 -0.3196  0.8562  1.6234
   19SAPC  H20S 2498   4.522   3.695   8.535  1.2852 -1.6199 -3.7004
   19SAPC  H20T 2499   4.520   3.516   8.530 -1.6986  2.0023 -1.3536
   19SAPC   C33 2500   5.193   2.464   9.578  0.3547  0.6939  0.6935
   19SAPC   H3X 2501   5.163   2.358   9.566 -0.7179  1.0974 -0.3966
   19SAPC   H3Y 2502   5.279   2.473   9.648  1.6018 -2.6866 -0.2219
   19SAPC   C34 2503   5.234   2.507   9.439  0.4634 -0.1660 -0.3349
   19SAPC   H4X 2504   5.338   2.473   9.425  0.3144 -0.7618 -0.0067
   19SAPC   H4Y 2505   5.232   2.618   9.442  1.5335 -0.1676  1.1020
   19SAPC   C35 2506   5.136   2.463   9.321  0.3076  0.7696  0.4648
   19SAPC   H5X 2507   5.033   2.485   9.355 -0.4257  1.6709 -2.0859
   19SAPC   H5Y 2508   5.162   2.355   9.309  0.6213  0.6949  1.6847
   19SAPC   C36 2509   5.172   2.533   9.184 -0.1941 -0.1461  0.2924
   19SAPC   H6X 2510   5.279   2.509   9.168 -0.1233  0.9669 -1.1458
   19SAPC   H6Y 2511   5.150   2.642   9.195  2.0127  0.3968 -0.2448
   19SAPC   C37 2512   5.086   2.488   9.066 -0.1594  0.7845 -0.6412
   19SAPC   H7X 2513   5.069   2.378   9.070 -0.3286  0.8361  0.5708
   19SAPC   H7Y 2514   5.132   2.508   8.967 -1.0795 -0.0412 -1.2538
   19SAPC   C38 2515   4.949   2.552   9.077  0.0362 -0.2219  0.5212
   19SAPC   H8X 2516   4.969   2.660   9.066 -0.6910 -0.3270 -2.9190
   19SAPC   H8Y 2517   4.895   2.531   9.172 -0.4908  0.8331  0.4698
   19SAPC   C39 2518   4.849   2.508   8.961 -0.1290 -0.6039 -0.8425
   19SAPC   H9X 2519   4.746   2.525   8.997  1.3917  3.1166  2.4563
   19SAPC   H9Y 2520   4.866   2.401   8.937 -0.1355 -0.7759 -0.1083
   19SAPC  C310 2521   4.871   2.577   8.829 -0.5308  1.0364 -0.4166
   19SAPC  H10X 2522   4.972   2.556   8.788 -1.4842 -2.3185 -1.3875
   19SAPC  H10Y 2523   4.861   2.686   8.845  0.5401  0.9756  0.8549
   19SAPC  C311 2524   4.777   2.509   8.728 -0.1842  0.4624  0.5706
   19SAPC  H11X 2525   4.685   2.476   8.781 -1.2457  1.6323 -0.4531
   19SAPC  H11Y 2526   4.844   2.427   8.695 -2.0155 -0.9110  0.1061
   19SAPC  C312 2527   4.728   2.597   8.608 -0.1343 -0.2260 -1.0071
   19SAPC  H12X 2528   4.665   2.538   8.538 -1.0888 -0.2106 -0.1850
   19SAPC  H12Y 2529   4.820   2.632   8.556 -0.2102  0.2004 -0.8548
   19SAPC  C313 2530   4.631   2.718   8.645  0.7937  0.5312 -0.3535
   19SAPC  H13X 2531   4.684   2.785   8.715  0.7716 -0.2338  0.4124
   19SAPC  H13Y 2532   4.545   2.684   8.707 -0.2317 -0.8041 -2.4106
   19SAPC  C314 2533   4.586   2.797   8.520  0.6666  0.1759  0.0933
   19SAPC  H14X 2534   4.529   2.738   8.446 -1.6436 -0.2371  2.0891
   19SAPC  H14Y 2535   4.675   2.828   8.461 -0.8614  1.0894 -1.8524
   19SAPC  C315 2536   4.507   2.928   8.560 -0.3286 -0.0348  0.3143
   19SAPC  H15X 2537   4.580   2.988   8.620 -1.0035  0.6766  0.4384
   19SAPC  H15Y 2538   4.415   2.899   8.615 -1.0394  0.0872 -0.7858
   19SAPC  C316 2539   4.457   2.996   8.436  0.2818  0.2879  0.2010
   19SAPC  H16X 2540   4.383   3.076   8.460  0.6143  0.0878  2.0444
   19SAPC  H16Y 2541   4.410   2.916   8.375  1.3046 -0.4989  0.4182
   19SAPC  C317 2542   4.574   3.070   8.363  0.2755 -0.0766 -0.0763
   19SAPC  H17X 2543   4.640   2.984   8.340  1.5464 -0.1892  3.3219
   19SAPC  H17Y 2544   4.620   3.142   8.434 -0.3476  0.9169 -0.6705
   19SAPC  C318 2545   4.531   3.141   8.235  0.0343 -0.3087  0.5123
   19SAPC  H18X 2546   4.476   3.236   8.244 -2.1991 -1.5911  1.0736
   19SAPC  H18Y 2547   4.469   3.073   8.173  0.8672 -1.4344  0.8579
   19SAPC  H18Z 2548   4.620   3.180   8.180 -1.0606  1.8625  0.1912
   20SAPC     N 2549   1.632   0.246  10.714  0.3801 -0.4232  0.0670
   20SAPC   C12 2550   1.498   0.293  10.769  0.1101  0.2869  0.5405
   20SAPC  H12A 2551   1.488   0.400  10.754  3.0392  0.7901  1.5922
   20SAPC  H12B 2552   1.481   0.265  10.872 -0.0743  3.4502  1.4973
   20SAPC   C13 2553   1.659   0.102  10.746  0.0973  0.5460  0.5372
   20SAPC  H13A 2554   1.641   0.071  10.847  0.6233  0.4122  0.5951
   20SAPC  H13B 2555   1.601   0.044  10.675  1.3596 -0.9264  0.6581
   20SAPC  H13C 2556   1.765   0.083  10.735  0.1492  0.7306  0.7142
   20SAPC   C14 2557   1.649   0.265  10.562  0.2967 -0.5373 -0.3345
   20SAPC  H14A 2558   1.576   0.216  10.499 -1.2891  1.9254 -0.5279
   20SAPC  H14B 2559   1.624   0.366  10.536  2.0352  0.4531  1.5601
   20SAPC  H14C 2560   1.743   0.233  10.521 -0.0266 -2.6241  0.3902
   20SAPC   C15 2561   1.743   0.330  10.780  0.2915 -0.0592  0.3029
   20SAPC  H15A 2562   1.759   0.304  10.884 -0.2436 -2.4985 -0.1594
   20SAPC  H15B 2563   1.843   0.312  10.744  0.5426 -0.8817  1.3493
   20SAPC  H15C 2564   1.715   0.434  10.766  2.1588  0.4310  0.0212
   20SAPC   C11 2565   1.376   0.241  10.703  1.1326  0.2075 -0.3606
   20SAPC  H11A 2566   1.368   0.271  10.597  0.0252 -0.8372 -0.5890
   20SAPC  H11B 2567   1.292   0.283  10.763 -0.1879 -2.0941 -0.4851
   20SAPC     P 2568   1.279   0.029  10.819 -0.0853  0.0872 -0.0282
   20SAPC   O13 2569   1.317  -0.112  10.824  0.1277 -0.1614  0.0086
   20SAPC   O14 2570   1.276   0.106  10.950 -0.4756  0.2949 -0.2705
   20SAPC   O12 2571   1.374   0.100  10.719 -0.4159  0.2219 -0.1122
   20SAPC   O11 2572   1.142   0.043  10.750 -0.4901 -0.2480 -0.0361
   20SAPC    C1 2573   1.097  -0.029  10.634  0.2992 -0.2392 -0.2653
   20SAPC    HA 2574   1.143  -0.129  10.627  0.7436  0.0192 -1.2585
   20SAPC    HB 2575   0.987  -0.044  10.643  0.4421 -2.6644 -1.7782
   20SAPC    C2 2576   1.122   0.052  10.501 -0.2187 -0.4305 -0.0077
   20SAPC    HS 2577   1.226   0.094  10.501 -0.7458  0.9397  0.1801
   20SAPC   O21 2578   1.025   0.156  10.506  0.3013 -0.3576  0.9174
   20SAPC   C21 2579   1.048   0.257  10.422 -0.2869  0.1788 -0.7473
   20SAPC   O22 2580   1.155   0.294  10.372  0.1671  0.4351 -0.2216
   20SAPC   C22 2581   0.915   0.320  10.398  0.0494  0.7045 -0.2018
   20SAPC   H2R 2582   0.843   0.236  10.397  0.2818  0.4986 -0.9095
   20SAPC   H2S 2583   0.887   0.388  10.480  0.7094 -0.2463  0.8448
   20SAPC    C3 2584   1.085  -0.047  10.382 -0.7707 -0.7734 -0.0694
   20SAPC    HX 2585   0.991  -0.096  10.414 -0.7387  1.0735  3.3414
   20SAPC    HY 2586   1.168  -0.121  10.385 -0.7733 -0.7586  0.3797
   20SAPC   O31 2587   1.066  -0.001  10.246 -0.3989 -0.1000 -0.2761
   20SAPC   C31 2588   1.185   0.024  10.185 -0.1056  0.5926 -0.1975
   20SAPC   O32 2589   1.295  -0.010  10.221  0.8353 -0.1998  0.6687
   20SAPC   C32 2590   1.162   0.116  10.065 -0.7728  0.0608  0.3935
   20SAPC   H2X 2591   1.266   0.153  10.053 -0.7374 -0.1407  0.0739
   20SAPC   H2Y 2592   1.110   0.209  10.097  2.6830  2.2074  0.2669
   20SAPC   C23 2593   0.896   0.390  10.258  0.2166  0.2981  0.9984
   20SAPC   H3R 2594   0.932   0.319  10.180  0.6380  0.7624  0.7706
   20SAPC   H3S 2595   0.959   0.480  10.261 -0.1831  0.6871 -0.9547
   20SAPC   C24 2596   0.752   0.437  10.230 -0.3231  0.6931  0.0900
   20SAPC   H4R 2597   0.757   0.494  10.135 -1.5553 -0.3959 -0.6756
   20SAPC   H4S 2598   0.726   0.506  10.314  2.9548  0.1202  1.7483
   20SAPC   C25 2599   0.641   0.329  10.214  0.3772 -0.2991  0.8711
   20SAPC   H5R 2600   0.593   0.289  10.304  0.4663 -2.8596 -0.1487
   20SAPC   C26 2601   0.574   0.295  10.100 -0.0519 -0.1783 -0.5722
   20SAPC   H6R 2602   0.492   0.223  10.101  0.5959 -0.9222  0.2420
   20SAPC   C27 2603   0.599   0.350   9.962  0.9983 -0.5399 -0.2739
   20SAPC   H7R 2604   0.601   0.461   9.961 -0.8659 -0.4768 -1.2334
   20SAPC   H7S 2605   0.501   0.324   9.918 -0.9246  1.7247  2.3077
   20SAPC   C28 2606   0.719   0.301   9.886  0.0634  0.7304  0.1151
   20SAPC   H8R 2607   0.795   0.253   9.950 -1.5292 -1.6985  0.3212
   20SAPC   C29 2608   0.738   0.301   9.753 -0.0931  0.4530 -0.1060
   20SAPC   H9R 2609   0.828   0.252   9.713 -0.5772 -2.2316  1.8482
   20SAPC  C210 2610   0.638   0.356   9.655  0.1275 -0.1680  0.4219
   20SAPC  H10R 2611   0.647   0.466   9.645 -1.9570  0.2368  2.3305
   20SAPC  H10S 2612   0.543   0.330   9.706  0.4666 -0.6318  0.8297
   20SAPC  C211 2613   0.644   0.287   9.517  1.0343  0.4481 -0.2216
   20SAPC  H11R 2614   0.704   0.195   9.509  0.9018  0.3417 -0.0027
   20SAPC  C212 2615   0.601   0.349   9.407  0.8478 -0.4298 -0.0133
   20SAPC  H12R 2616   0.620   0.296   9.313 -0.5898  1.6517 -1.5866
   20SAPC  C213 2617   0.534   0.484   9.377 -0.6473  0.1367 -0.1813
   20SAPC  H13R 2618   0.599   0.556   9.322 -0.9659  0.2055 -0.4766
   20SAPC  H13S 2619   0.510   0.534   9.473 -0.1264 -1.1140  0.6157
   20SAPC  C214 2620   0.398   0.466   9.312  0.1353  0.3001 -0.1505
   20SAPC  H14R 2621   0.328   0.443   9.394  0.3296  1.0052  0.2229
   20SAPC  C215 2622   0.348   0.496   9.192 -0.7432  0.7337 -0.7746
   20SAPC  H15R 2623   0.240   0.476   9.179 -0.1405 -1.5170 -3.4432
   20SAPC  C216 2624   0.424   0.562   9.079  0.8312 -0.2075 -0.4157
   20SAPC  H16R 2625   0.445   0.480   9.007  2.4032 -0.1589 -0.0471
   20SAPC  H16S 2626   0.523   0.602   9.109  1.8891 -0.9210 -2.7793
   20SAPC  C217 2627   0.364   0.675   8.987  0.1594  0.0513 -0.0445
   20SAPC  H17R 2628   0.434   0.738   8.929 -0.1439  0.1695 -0.2820
   20SAPC  H17S 2629   0.291   0.748   9.027  1.4752  3.4625 -3.2895
   20SAPC  C218 2630   0.279   0.611   8.880 -0.3227  0.3810  0.0248
   20SAPC  H18R 2631   0.187   0.572   8.929  1.0194  0.5145  2.8895
   20SAPC  H18S 2632   0.330   0.526   8.830  1.5233  0.9371  0.9065
   20SAPC  C219 2633   0.247   0.711   8.766  0.4221  0.4613  0.0363
   20SAPC  H19R 2634   0.333   0.777   8.744 -1.7281  4.0359  1.4274
   20SAPC  H19S 2635   0.164   0.776   8.802  0.0700  0.6786 -1.1404
   20SAPC  C220 2636   0.180   0.641   8.647 -0.0742  0.2950 -0.4702
   20SAPC  H20R 2637   0.179   0.707   8.558  1.5826  0.5646 -0.3127
   20SAPC  H20S 2638   0.076   0.606   8.667  0.2696 -0.4263  0.1394
   20SAPC  H20T 2639   0.232   0.548   8.615 -0.0719 -1.2313  3.4572
   20SAPC   C33 2640   1.087   0.051   9.944 -0.1197 -0.1698 -0.0165
   20SAPC   H3X 2641   1.031   0.128   9.886 -0.1124  0.6770  1.0577
   20SAPC   H3Y 2642   1.011  -0.026   9.968  0.0849 -0.5170 -0.4720
   20SAPC   C34 2643   1.196  -0.009   9.854  0.2911 -0.4443  0.2503
   20SAPC   H4X 2644   1.258  -0.083   9.909 -1.0355 -1.7222  0.0986
   20SAPC   H4Y 2645   1.259   0.067   9.804 -0.8308  0.5361  0.3003
   20SAPC   C35 2646   1.150  -0.109   9.748 -0.7538 -0.5435 -0.7426
   20SAPC   H5X 2647   1.091  -0.192   9.793 -1.6159  0.7251  0.5432
   20SAPC   H5Y 2648   1.233  -0.166   9.700 -0.9772 -1.3182 -0.2287
   20SAPC   C36 2649   1.057  -0.042   9.640  0.8063 -0.1754  0.2295
   20SAPC   H6X 2650   0.977   0.021   9.684  0.5707 -0.8227  0.7475
   20SAPC   H6Y 2651   0.999  -0.120   9.586  1.1120 -0.0730 -0.2533
   20SAPC   C37 2652   1.136   0.040   9.537  0.2440  0.2930  0.3225
   20SAPC   H7X 2653   1.203  -0.028   9.480 -1.0563 -0.4400 -0.3723
   20SAPC   H7Y 2654   1.203   0.108   9.594 -0.3365  2.1535 -1.0871
   20SAPC   C38 2655   1.058   0.128   9.436  0.5509 -0.0304  0.0272
   20SAPC   H8X 2656   1.141   0.177   9.381  1.0706 -1.6033 -0.6531
   20SAPC   H8Y 2657   0.999   0.207   9.487  0.4141  0.3332 -0.6847
   20SAPC   C39 2658   0.974   0.058   9.325 -0.0867 -0.8830  0.1862
   20SAPC   H9X 2659   0.887  -0.001   9.362 -2.3737  1.6619 -0.7058
   20SAPC   H9Y 2660   1.036  -0.000   9.254  0.0065 -0.3450 -0.1843
   20SAPC  C310 2661   0.894   0.159   9.242  0.5511 -0.2709  0.0523
   20SAPC  H10X 2662   0.836   0.216   9.317 -0.5287  0.6190 -1.3940
   20SAPC  H10Y 2663   0.824   0.102   9.177 -1.0814  2.2829 -0.5457
   20SAPC  C311 2664   0.973   0.252   9.157 -0.6072 -0.3490 -0.3595
   20SAPC  H11X 2665   0.991   0.215   9.054 -0.2438 -3.3886  0.6848
   20SAPC  H11Y 2666   1.065   0.297   9.201 -1.2455  1.1930 -0.5405
   20SAPC  C312 2667   0.870   0.368   9.136  0.2046  0.3502  0.1587
   20SAPC  H12X 2668   0.858   0.410   9.238 -0.5418 -0.0371  0.2357
   20SAPC  H12Y 2669   0.773   0.324   9.107  0.7182 -0.5484 -0.2388
   20SAPC  C313 2670   0.906   0.468   9.024 -0.4486  0.3050 -0.3983
   20SAPC  H13X 2671   0.920   0.424   8.923 -0.5198  2.7919 -1.5727
   20SAPC  H13Y 2672   1.010   0.495   9.051 -0.6273  0.7694 -0.1677
   20SAPC  C314 2673   0.823   0.595   9.016  0.3111  0.6671  0.3281
   20SAPC  H14X 2674   0.814   0.648   9.113 -1.4004 -0.0227  0.5888
   20SAPC  H14Y 2675   0.724   0.573   8.970  0.7502 -0.4872 -0.0890
   20SAPC  C315 2676   0.909   0.684   8.919 -0.0249 -0.9706  0.5451
   20SAPC  H15X 2677   0.946   0.621   8.835 -0.3279 -0.5480  0.0906
   20SAPC  H15Y 2678   0.998   0.714   8.977 -0.7450  1.0253  0.6964
   20SAPC  C316 2679   0.826   0.796   8.858 -0.1428  1.1473  0.3018
   20SAPC  H16X 2680   0.767   0.843   8.939 -1.6778 -1.2317  0.6645
   20SAPC  H16Y 2681   0.748   0.739   8.804  0.3323  1.1107 -0.3707
   20SAPC  C317 2682   0.905   0.888   8.769  0.0859 -0.6253 -0.9499
   20SAPC  H17X 2683   0.856   0.987   8.782 -0.7325 -1.0954 -0.3810
   20SAPC  H17Y 2684   0.898   0.858   8.663 -1.2361 -2.5481 -0.3724
   20SAPC  C318 2685   1.050   0.912   8.789  0.3228  0.0595 -1.0451
   20SAPC  H18X 2686   1.063   0.952   8.892  0.4729  0.7278 -1.3188
   20SAPC  H18Y 2687   1.084   0.993   8.721  2.0132  1.3308  1.1704
   20SAPC  H18Z 2688   1.114   0.823   8.773  0.4706 -0.5193  2.1163
   21SAPC     N 2689   4.118   0.525  10.985 -0.3734 -0.1449 -0.1224
   21SAPC   C12 2690   4.031   0.458  10.883 -0.0484 -0.2556  0.7812
   21SAPC  H12A 2691   4.002   0.530  10.808  0.2597  1.5564  2.3217
   21SAPC  H12B 2692   3.941   0.428  10.936 -1.1758  1.4710 -0.0626
   21SAPC   C13 2693   4.248   0.563  10.923  0.1651 -0.0543 -0.5441
   21SAPC  H13A 2694   4.236   0.621  10.833 -4.8437  2.3824  1.2903
   21SAPC  H13B 2695   4.309   0.633  10.979  0.3812  0.4962 -1.4449
   21SAPC  H13C 2696   4.301   0.471  10.902 -0.3648 -0.4883 -0.0105
   21SAPC   C14 2697   4.048   0.651  11.032 -0.4146 -0.1872 -0.4871
   21SAPC  H14A 2698   3.990   0.690  10.950 -2.7803 -1.5404  0.4343
   21SAPC  H14B 2699   3.975   0.631  11.109 -1.5855  2.3608 -0.8496
   21SAPC  H14C 2700   4.124   0.715  11.076  0.4750 -0.0937 -2.0922
   21SAPC   C15 2701   4.125   0.438  11.101 -0.0991 -1.1978 -0.4895
   21SAPC  H15A 2702   4.206   0.467  11.167 -1.5436  0.8128  0.5206
   21SAPC  H15B 2703   4.030   0.442  11.153 -1.1177 -3.0312 -2.0920
   21SAPC  H15C 2704   4.150   0.336  11.076  0.2640 -1.5343  1.1192
   21SAPC   C11 2705   4.087   0.330  10.815  0.4773 -0.7257 -0.0967
   21SAPC  H11A 2706   4.191   0.358  10.790  0.4086 -0.3915 -0.0128
   21SAPC  H11B 2707   4.029   0.308  10.723  1.0727  1.2427 -0.9826
   21SAPC     P 2708   3.971   0.114  10.926  0.0007 -0.2513 -0.3192
   21SAPC   O13 2709   4.036  -0.020  10.926 -0.0016 -0.1144  0.7542
   21SAPC   O14 2710   3.893   0.159  11.042  0.4156 -0.0252 -0.2664
   21SAPC   O12 2711   4.089   0.220  10.905 -0.4261  0.4587 -0.1732
   21SAPC   O11 2712   3.880   0.125  10.803 -0.2294  0.4085 -0.0922
   21SAPC    C1 2713   3.756   0.051  10.790 -0.8684 -0.1637  0.1431
   21SAPC    HA 2714   3.786  -0.051  10.760  0.6733  0.4855 -0.6513
   21SAPC    HB 2715   3.714   0.037  10.892 -0.2796  1.8485  0.7226
   21SAPC    C2 2716   3.659   0.104  10.683 -0.4221 -0.0684 -0.4098
   21SAPC    HS 2717   3.554   0.071  10.699  0.4694 -3.4656 -0.7733
   21SAPC   O21 2718   3.708   0.053  10.556 -0.1926 -0.9237 -0.0206
   21SAPC   C21 2719   3.677  -0.071  10.518 -0.2245 -0.1805 -0.1616
   21SAPC   O22 2720   3.606  -0.146  10.584 -0.1728  0.1013 -0.5417
   21SAPC   C22 2721   3.753  -0.103  10.395  0.1543 -0.4025 -0.1090
   21SAPC   H2R 2722   3.712  -0.027  10.326 -0.7295 -0.8525 -0.0932
   21SAPC   H2S 2723   3.860  -0.082  10.419 -0.0927 -1.4062  2.2033
   21SAPC    C3 2724   3.661   0.257  10.684 -0.3936  0.3614  0.2499
   21SAPC    HX 2725   3.766   0.285  10.661 -0.4983  1.1828  0.7526
   21SAPC    HY 2726   3.636   0.295  10.786  0.4955  0.5079  0.4206
   21SAPC   O31 2727   3.566   0.302  10.585  0.2501 -0.3725 -0.4150
   21SAPC   C31 2728   3.512   0.415  10.610 -0.2780 -0.3721 -0.6832
   21SAPC   O32 2729   3.541   0.486  10.707  0.4381  1.1949  0.4068
   21SAPC   C32 2730   3.445   0.472  10.484 -0.6967  0.3194 -0.0054
   21SAPC   H2X 2731   3.342   0.504  10.509 -1.4287  0.4957 -2.8638
   21SAPC   H2Y 2732   3.438   0.387  10.412  5.0187 -1.1235  0.6456
   21SAPC   C23 2733   3.725  -0.245  10.338  0.5319 -0.0970  0.1601
   21SAPC   H3R 2734   3.621  -0.241  10.301  0.2865 -1.2660  0.6832
   21SAPC   H3S 2735   3.739  -0.330  10.408 -0.2325 -2.3493 -2.2663
   21SAPC   C24 2736   3.813  -0.280  10.221 -0.4124 -0.0256 -0.6178
   21SAPC   H4R 2737   3.783  -0.226  10.129 -3.9808 -1.8599 -0.7324
   21SAPC   H4S 2738   3.787  -0.387  10.202 -2.2490  0.2552  0.0054
   21SAPC   C25 2739   3.959  -0.258  10.254  0.1742  0.4218  0.8104
   21SAPC   H5R 2740   3.997  -0.280  10.355 -1.2997  0.6450  1.4426
   21SAPC   C26 2741   4.045  -0.188  10.182  0.6304 -0.1354  0.1438
   21SAPC   H6R 2742   4.147  -0.179  10.221  0.9778 -2.1905 -0.1787
   21SAPC   C27 2743   4.019  -0.125  10.049 -0.4767  1.0056 -0.3548
   21SAPC   H7R 2744   3.944  -0.184   9.992 -1.0586  0.1631  1.2328
   21SAPC   H7S 2745   4.115  -0.130   9.993 -0.5236  1.3180 -0.4648
   21SAPC   C28 2746   3.957   0.012  10.071 -0.2808 -0.2858  0.4727
   21SAPC   H8R 2747   3.979   0.053  10.171  1.5842 -1.8966  0.7685
   21SAPC   C29 2748   3.894   0.084   9.972  0.4795  0.3059 -0.3460
   21SAPC   H9R 2749   3.858   0.182  10.005 -0.2946  0.3190 -1.1675
   21SAPC  C210 2750   3.885   0.045   9.829  1.0966 -0.0448 -0.0524
   21SAPC  H10R 2751   3.786   0.079   9.792  0.6875 -1.3093 -0.1874
   21SAPC  H10S 2752   3.884  -0.066   9.815  0.5815  0.0464 -0.7841
   21SAPC  C211 2753   3.989   0.119   9.751 -0.1869 -0.7667 -1.0004
   21SAPC  H11R 2754   4.071   0.167   9.805 -0.5896 -1.3829  0.2043
   21SAPC  C212 2755   3.986   0.122   9.620 -0.1195 -0.3645  0.0890
   21SAPC  H12R 2756   4.062   0.179   9.565 -0.9580 -0.2805 -1.0191
   21SAPC  C213 2757   3.876   0.062   9.530 -0.5910 -0.6149  0.4290
   21SAPC  H13R 2758   3.845  -0.039   9.564  0.7899 -1.5595 -0.9751
   21SAPC  H13S 2759   3.918   0.039   9.430 -0.6821  0.5889  0.1052
   21SAPC  C214 2760   3.765   0.155   9.508  1.0490 -0.2392  0.7373
   21SAPC  H14R 2761   3.693   0.143   9.590  1.7679 -0.2020  1.3867
   21SAPC  C215 2762   3.738   0.241   9.404 -0.7106  0.3442  0.7192
   21SAPC  H15R 2763   3.645   0.300   9.411 -0.7702  0.5656 -1.3131
   21SAPC  C216 2764   3.821   0.265   9.278 -0.6581 -0.8429  0.9582
   21SAPC  H16R 2765   3.923   0.222   9.289 -0.0033  0.4512  0.1245
   21SAPC  H16S 2766   3.827   0.375   9.264 -0.3697 -0.6893  2.1989
   21SAPC  C217 2767   3.749   0.221   9.147 -0.7766  1.1315 -0.4787
   21SAPC  H17R 2768   3.644   0.256   9.151 -1.3171 -0.0061 -2.8023
   21SAPC  H17S 2769   3.739   0.111   9.154 -3.2040  1.1756 -2.0914
   21SAPC  C218 2770   3.810   0.264   9.018  0.2274 -0.2411  0.3637
   21SAPC  H18R 2771   3.781   0.192   8.938 -0.5880 -1.7811  1.9695
   21SAPC  H18S 2772   3.921   0.261   9.013  0.2251  0.9997 -1.3051
   21SAPC  C219 2773   3.741   0.396   8.969  0.1302  0.6053 -0.3453
   21SAPC  H19R 2774   3.765   0.467   9.051  0.1921 -0.3945  0.5195
   21SAPC  H19S 2775   3.630   0.397   8.967  0.0987  0.3671  0.9662
   21SAPC  C220 2776   3.798   0.445   8.832  0.1579 -0.0121 -0.1099
   21SAPC  H20R 2777   3.725   0.435   8.749  2.1306 -0.5195 -1.8709
   21SAPC  H20S 2778   3.899   0.403   8.808 -0.5642 -2.2115  0.5402
   21SAPC  H20T 2779   3.811   0.555   8.826 -0.3494  0.2928  3.1366
   21SAPC   C33 2780   3.530   0.592  10.430  0.6765  0.4760 -0.1410
   21SAPC   H3X 2781   3.637   0.569  10.408  0.4951  0.7417 -1.3578
   21SAPC   H3Y 2782   3.518   0.666  10.512 -0.5770 -0.1296  0.2383
   21SAPC   C34 2783   3.485   0.649  10.291  0.5946 -0.3822 -0.3315
   21SAPC   H4X 2784   3.385   0.698  10.291  1.2803  1.1121 -1.1375
   21SAPC   H4Y 2785   3.480   0.568  10.216 -0.8534 -0.0294 -0.6479
   21SAPC   C35 2786   3.594   0.747  10.245  0.1864  0.9484 -0.0942
   21SAPC   H5X 2787   3.693   0.704  10.218 -0.4137 -0.2945 -0.3811
   21SAPC   H5Y 2788   3.610   0.820  10.327  0.9803 -1.4352  1.9918
   21SAPC   C36 2789   3.551   0.823  10.119 -0.2016  0.0760  0.8518
   21SAPC   H6X 2790   3.461   0.887  10.130  0.3373  0.8694  0.7536
   21SAPC   H6Y 2791   3.522   0.744  10.046  0.7342  1.7740 -1.4765
   21SAPC   C37 2792   3.671   0.903  10.058 -0.0184 -0.6574  0.0633
   21SAPC   H7X 2793   3.760   0.840  10.077  0.1519 -0.5675 -0.4203
   21SAPC   H7Y 2794   3.708   0.993  10.110  2.7295 -0.3989 -2.0921
   21SAPC   C38 2795   3.659   0.936   9.912 -0.2762  0.2006  0.1170
   21SAPC   H8X 2796   3.618   0.842   9.869 -0.2774  0.0615  0.4191
   21SAPC   H8Y 2797   3.763   0.955   9.878 -0.3451  0.1056 -0.1476
   21SAPC   C39 2798   3.561   1.054   9.877  0.4172  0.1345 -0.2907
   21SAPC   H9X 2799   3.587   1.140   9.943 -1.2642  1.6383 -1.4721
   21SAPC   H9Y 2800   3.467   1.014   9.920  0.9761  2.4109  3.5124
   21SAPC  C310 2801   3.538   1.087   9.730  0.2521  1.1989 -0.4423
   21SAPC  H10X 2802   3.622   1.149   9.691 -0.3110  1.8468 -0.6348
   21SAPC  H10Y 2803   3.449   1.153   9.730  0.6274  1.7746 -2.7077
   21SAPC  C311 2804   3.514   0.966   9.639  0.1533  0.4772  0.0055
   21SAPC  H11X 2805   3.418   0.926   9.678  1.7752 -2.5348  1.2364
   21SAPC  H11Y 2806   3.591   0.887   9.655  0.3782  0.9413  1.2732
   21SAPC  C312 2807   3.510   1.008   9.491  0.2452  0.2411 -0.0591
   21SAPC  H12X 2808   3.486   0.919   9.429 -2.8744  0.5458  0.5669
   21SAPC  H12Y 2809   3.605   1.060   9.465  0.3435  0.1865  0.1903
   21SAPC  C313 2810   3.402   1.124   9.457 -0.8394 -0.1188 -0.3636
   21SAPC  H13X 2811   3.459   1.219   9.464 -0.7254 -0.2842  1.9988
   21SAPC  H13Y 2812   3.312   1.134   9.522 -1.3920  1.0152 -1.2698
   21SAPC  C314 2813   3.337   1.101   9.315 -0.6679  0.5699 -0.8094
   21SAPC  H14X 2814   3.317   0.992   9.321 -0.6016  0.6389  1.7948
   21SAPC  H14Y 2815   3.420   1.105   9.241 -2.3414 -1.3387 -2.9391
   21SAPC  C315 2816   3.217   1.184   9.269 -0.7293  0.3804 -0.3526
   21SAPC  H15X 2817   3.257   1.286   9.288  5.0928 -1.1681 -2.1362
   21SAPC  H15Y 2818   3.130   1.170   9.336  0.4048  0.5925  1.2307
   21SAPC  C316 2819   3.180   1.152   9.126  0.6362  0.6085  0.2624
   21SAPC  H16X 2820   3.078   1.192   9.106  1.4736  1.4829 -3.0447
   21SAPC  H16Y 2821   3.190   1.042   9.118 -1.4421  0.4045 -0.1288
   21SAPC  C317 2822   3.253   1.231   9.015 -0.1614 -0.1130  0.2373
   21SAPC  H17X 2823   3.363   1.232   9.031  0.1735 -0.3197 -1.7786
   21SAPC  H17Y 2824   3.232   1.340   9.024 -0.3916 -0.2274  1.1525
   21SAPC  C318 2825   3.230   1.172   8.875 -0.3037  0.4426  0.0867
   21SAPC  H18X 2826   3.247   1.063   8.887 -0.6129  0.1933 -1.4524
   21SAPC  H18Y 2827   3.314   1.204   8.810  1.8159 -2.2806  1.2888
   21SAPC  H18Z 2828   3.131   1.193   8.829 -0.6312  0.4230  0.7807
   22SAPC     N 2829   2.604   1.320  10.765  0.1298  0.8994 -0.0224
   22SAPC   C12 2830   2.646   1.460  10.759 -0.6912 -0.3352 -0.0818
   22SAPC  H12A 2831   2.724   1.459  10.684 -1.0791  0.3097 -0.4953
   22SAPC  H12B 2832   2.697   1.487  10.850 -1.6859 -0.0173  0.3942
   22SAPC   C13 2833   2.552   1.266  10.637 -0.0311 -0.3713 -0.2697
   22SAPC  H13A 2834   2.468   1.326  10.604 -1.0892 -0.6475  1.7835
   22SAPC  H13B 2835   2.620   1.234  10.560  0.8712 -0.2007  0.4425
   22SAPC  H13C 2836   2.499   1.174  10.656 -0.6525  0.1723  0.7396
   22SAPC   C14 2837   2.720   1.234  10.804 -1.1116 -0.2195  0.5242
   22SAPC  H14A 2838   2.773   1.280  10.886  0.1230  3.7162 -2.2013
   22SAPC  H14B 2839   2.681   1.139  10.839  0.2557  0.2338  3.6887
   22SAPC  H14C 2840   2.789   1.216  10.723  0.0358 -0.5220  1.5255
   22SAPC   C15 2841   2.493   1.303  10.861 -0.2105  1.1343  0.7813
   22SAPC  H15A 2842   2.409   1.358  10.822 -2.3353 -1.0994  1.9008
   22SAPC  H15B 2843   2.463   1.199  10.871  0.0030  0.7890 -1.6688
   22SAPC  H15C 2844   2.519   1.343  10.958  0.0315 -1.0563  1.6779
   22SAPC   C11 2845   2.538   1.562  10.719 -0.2794  0.1377 -0.3386
   22SAPC  H11A 2846   2.516   1.539  10.612  1.0989  1.6966 -1.0085
   22SAPC  H11B 2847   2.592   1.659  10.716  0.9246 -0.5165 -0.7549
   22SAPC     P 2848   2.281   1.559  10.747 -0.3029 -0.2096  0.2015
   22SAPC   O13 2849   2.232   1.419  10.743 -0.4939  0.1033  0.3701
   22SAPC   O14 2850   2.197   1.645  10.832 -0.1462  0.2034 -0.4213
   22SAPC   O12 2851   2.428   1.573  10.804 -0.0215  0.2045  0.1077
   22SAPC   O11 2852   2.284   1.612  10.597  0.2119  0.4526  0.0626
   22SAPC    C1 2853   2.315   1.748  10.572 -0.2116  0.3350  0.1116
   22SAPC    HA 2854   2.346   1.810  10.659 -0.6810  1.1338 -0.2745
   22SAPC    HB 2855   2.397   1.749  10.496  1.9575 -2.4998  2.1732
   22SAPC    C2 2856   2.196   1.829  10.518 -0.0166 -0.1660  0.1338
   22SAPC    HS 2857   2.119   1.822  10.597  0.6996  0.0745  0.8658
   22SAPC   O21 2858   2.158   1.775  10.389  0.7546  0.3035  0.2437
   22SAPC   C21 2859   2.038   1.727  10.395  0.5268 -0.2838 -0.1779
   22SAPC   O22 2860   1.955   1.738  10.485  0.4232  0.0272  0.0863
   22SAPC   C22 2861   2.025   1.642  10.273  0.5543  0.2371  0.4442
   22SAPC   H2R 2862   2.044   1.701  10.181 -3.2191 -1.4843 -1.6530
   22SAPC   H2S 2863   2.103   1.564  10.287  0.8208  0.4487  0.1691
   22SAPC    C3 2864   2.227   1.979  10.486 -0.4379 -0.9613 -0.1177
   22SAPC    HX 2865   2.312   1.987  10.415 -0.4348  2.2850  0.0975
   22SAPC    HY 2866   2.263   2.023  10.581 -0.4112 -1.1142 -0.0560
   22SAPC   O31 2867   2.112   2.037  10.426  0.2885  0.0342  0.3760
   22SAPC   C31 2868   2.074   2.154  10.473  0.3796  0.6460 -0.4894
   22SAPC   O32 2869   2.128   2.228  10.551  0.0940 -0.0709  0.1650
   22SAPC   C32 2870   1.943   2.202  10.407 -0.2299 -0.2620  0.2082
   22SAPC   H2X 2871   1.890   2.254  10.490  0.3697 -0.1177  0.5090
   22SAPC   H2Y 2872   1.890   2.106  10.390 -1.3057 -0.3583  3.4139
   22SAPC   C23 2873   1.886   1.570  10.261 -0.6681 -0.3519 -0.2684
   22SAPC   H3R 2874   1.844   1.543  10.361  0.1435 -0.1854  0.1238
   22SAPC   H3S 2875   1.927   1.477  10.216  2.1498  0.7991 -0.2864
   22SAPC   C24 2876   1.792   1.645  10.172  0.3727 -0.0912 -0.2267
   22SAPC   H4R 2877   1.699   1.585  10.179  0.2659  0.1303  0.4070
   22SAPC   H4S 2878   1.824   1.650  10.066 -1.5822  0.6794 -0.8253
   22SAPC   C25 2879   1.760   1.783  10.224  0.1480  0.0714 -0.1821
   22SAPC   H5R 2880   1.756   1.784  10.334  0.7706 -0.8701 -0.1313
   22SAPC   C26 2881   1.763   1.897  10.153  0.1711 -0.3050 -0.3693
   22SAPC   H6R 2882   1.744   1.990  10.208 -1.8281 -0.2498 -1.0915
   22SAPC   C27 2883   1.775   1.921  10.009 -0.0764 -0.8875  0.0400
   22SAPC   H7R 2884   1.675   1.953   9.973  0.1560  0.4288  0.4957
   22SAPC   H7S 2885   1.789   1.823   9.959 -1.3943 -1.1631  0.1891
   22SAPC   C28 2886   1.877   2.020   9.965 -0.1780 -0.5993  0.0769
   22SAPC   H8R 2887   1.853   2.127   9.970 -0.0095 -0.4750 -1.3690
   22SAPC   C29 2888   1.993   1.979   9.906  0.5116  0.7942 -0.0257
   22SAPC   H9R 2889   2.070   2.044   9.861  1.0580 -0.2418 -0.6237
   22SAPC  C210 2890   2.035   1.835   9.879 -0.2177  0.0387 -1.2011
   22SAPC  H10R 2891   1.994   1.805   9.780 -1.7665 -1.9561 -0.0473
   22SAPC  H10S 2892   1.979   1.762   9.942  0.8775 -1.7481 -2.2047
   22SAPC  C211 2893   2.181   1.808   9.881 -0.3922  0.5742  0.1484
   22SAPC  H11R 2894   2.230   1.834   9.976  2.4921 -2.6960 -0.2517
   22SAPC  C212 2895   2.266   1.772   9.786  0.2158  0.8101 -0.3203
   22SAPC  H12R 2896   2.371   1.757   9.817 -0.3466 -1.0252  0.8322
   22SAPC  C213 2897   2.239   1.729   9.642  0.1257 -0.3765  0.1069
   22SAPC  H13R 2898   2.243   1.822   9.581  2.6499  0.2195  1.0252
   22SAPC  H13S 2899   2.139   1.682   9.637 -0.8807  1.6467  0.4045
   22SAPC  C214 2900   2.350   1.640   9.582 -0.2587  0.6757 -0.2640
   22SAPC  H14R 2901   2.437   1.692   9.540  1.1644 -0.7994  0.7522
   22SAPC  C215 2902   2.348   1.506   9.582  0.5866 -0.3441 -0.0207
   22SAPC  H15R 2903   2.415   1.443   9.520 -2.1779 -2.3073 -1.2184
   22SAPC  C216 2904   2.241   1.424   9.649  0.1100  0.6731  0.5754
   22SAPC  H16R 2905   2.135   1.443   9.619 -1.2185 -3.9356  1.4499
   22SAPC  H16S 2906   2.236   1.451   9.756  0.4403  0.9874  0.5128
   22SAPC  C217 2907   2.279   1.279   9.633  0.3521 -0.1489  0.1357
   22SAPC  H17R 2908   2.221   1.219   9.706  0.0873 -2.8229 -2.0982
   22SAPC  H17S 2909   2.387   1.261   9.647  0.6051  1.5943  0.6125
   22SAPC  C218 2910   2.233   1.210   9.500  0.3399  0.0622 -0.2041
   22SAPC  H18R 2911   2.285   1.235   9.405 -0.5047  0.2725 -0.6226
   22SAPC  H18S 2912   2.124   1.231   9.502 -0.2312 -2.6495  0.7747
   22SAPC  C219 2913   2.231   1.051   9.487 -0.5636 -0.1217  0.2066
   22SAPC  H19R 2914   2.173   1.011   9.402  0.7846 -4.0426  0.8810
   22SAPC  H19S 2915   2.179   1.013   9.578 -2.5499  0.3059 -0.7116
   22SAPC  C220 2916   2.375   0.998   9.476 -0.2680  0.3681  0.5033
   22SAPC  H20R 2917   2.449   1.038   9.548 -0.7096 -0.8097  1.6519
   22SAPC  H20S 2918   2.410   1.024   9.373  0.1276 -0.8526  0.3038
   22SAPC  H20T 2919   2.375   0.887   9.485  1.5961  0.4939  3.4302
   22SAPC   C33 2920   1.957   2.277  10.272 -0.1935  0.4211  0.4200
   22SAPC   H3X 2921   1.851   2.287  10.239 -1.2768 -2.0392  2.7505
   22SAPC   H3Y 2922   2.015   2.209  10.206  1.9563  1.1398  1.4997
   22SAPC   C34 2923   2.037   2.410  10.283 -0.0931  0.5819 -0.6557
   22SAPC   H4X 2924   2.146   2.387  10.291 -0.0021  0.7301 -1.3673
   22SAPC   H4Y 2925   2.024   2.449  10.386 -0.6766  1.6388 -1.1180
   22SAPC   C35 2926   1.988   2.512  10.187  0.0312 -1.3453 -0.5494
   22SAPC   H5X 2927   2.053   2.601  10.189 -0.7863 -0.7516  0.1084
   22SAPC   H5Y 2928   1.890   2.550  10.222 -0.1686 -2.5183  0.2048
   22SAPC   C36 2929   1.991   2.466  10.041 -0.0059 -0.4233 -0.5835
   22SAPC   H6X 2930   1.951   2.365  10.014  0.1585 -0.1969 -1.7361
   22SAPC   H6Y 2931   2.100   2.446  10.032  0.4517  1.4867  0.3069
   22SAPC   C37 2932   1.943   2.582   9.953  0.6438 -0.1268 -0.0685
   22SAPC   H7X 2933   1.964   2.680  10.000 -1.4404  0.8092 -0.9638
   22SAPC   H7Y 2934   1.832   2.577   9.949  0.6665 -0.2701 -0.5174
   22SAPC   C38 2935   1.992   2.570   9.808 -0.6319  0.3742 -0.7010
   22SAPC   H8X 2936   1.984   2.470   9.760 -0.0804 -0.6189  1.1785
   22SAPC   H8Y 2937   2.096   2.610   9.811  0.1296 -1.5339  0.5168
   22SAPC   C39 2938   1.926   2.674   9.710 -0.2599  0.5889 -0.1464
   22SAPC   H9X 2939   1.913   2.770   9.764 -2.9932  1.1924 -1.6837
   22SAPC   H9Y 2940   1.822   2.648   9.679 -0.8570  2.2364  0.3427
   22SAPC  C310 2941   2.010   2.698   9.583  0.1997  0.7634  0.3664
   22SAPC  H10X 2942   2.118   2.712   9.607  0.2434  1.5386 -0.2720
   22SAPC  H10Y 2943   1.977   2.796   9.543 -1.3388 -0.1172 -0.6046
   22SAPC  C311 2944   2.000   2.592   9.461 -0.1123 -0.6872 -0.3694
   22SAPC  H11X 2945   1.893   2.579   9.435  0.5426 -2.3779 -2.4863
   22SAPC  H11Y 2946   2.038   2.498   9.508  1.3019 -0.0129 -0.1132
   22SAPC  C312 2947   2.078   2.644   9.344  0.5506 -0.2624 -0.7495
   22SAPC  H12X 2948   2.183   2.656   9.380  0.1791  0.6306  0.0394
   22SAPC  H12Y 2949   2.036   2.740   9.310  0.5936  0.5162  1.2957
   22SAPC  C313 2950   2.078   2.555   9.214 -0.1238  0.5475 -0.7477
   22SAPC  H13X 2951   2.157   2.591   9.145 -0.2442  0.9249 -0.6910
   22SAPC  H13Y 2952   1.982   2.546   9.159 -1.3556 -1.6734  1.5369
   22SAPC  C314 2953   2.110   2.400   9.243 -0.1891  0.5428  0.4600
   22SAPC  H14X 2954   2.027   2.372   9.312 -0.0063  0.7294  0.7529
   22SAPC  H14Y 2955   2.209   2.388   9.292  0.6141 -1.4008 -1.4607
   22SAPC  C315 2956   2.113   2.316   9.112  1.1310  1.1570 -0.8772
   22SAPC  H15X 2957   2.202   2.345   9.052  2.0407 -0.1793 -0.2418
   22SAPC  H15Y 2958   2.024   2.337   9.050 -0.8318 -1.6801  0.7492
   22SAPC  C316 2959   2.123   2.164   9.141 -0.7902 -0.1516  0.4601
   22SAPC  H16X 2960   2.034   2.135   9.201 -1.0234  2.0261  1.2330
   22SAPC  H16Y 2961   2.210   2.152   9.210 -0.4769  0.4073  0.1713
   22SAPC  C317 2962   2.151   2.077   9.013  0.6939  0.6112 -0.1012
   22SAPC  H17X 2963   2.144   1.970   9.043  1.3138  1.0669  1.7815
   22SAPC  H17Y 2964   2.259   2.092   8.989  1.6583 -1.4106  2.4514
   22SAPC  C318 2965   2.072   2.109   8.883 -0.5632  0.3140  0.3243
   22SAPC  H18X 2966   2.120   2.059   8.796 -1.3422  0.8917 -0.4656
   22SAPC  H18Y 2967   2.073   2.218   8.859  1.2105 -0.0862 -1.7265
   22SAPC  H18Z 2968   1.965   2.082   8.894 -0.7624  1.7248  2.5456
   23SAPC     N 2969   4.074   4.794  11.147 -0.1353 -0.4077  0.2820
   23SAPC   C12 2970   4.210   4.862  11.106 -0.1720 -0.1212 -0.6914
   23SAPC  H12A 2971   4.263   4.801  11.034 -0.5602 -0.3079 -0.8190
   23SAPC  H12B 2972   4.271   4.861  11.195 -1.0311 -0.2711 -0.0931
   23SAPC   C13 2973   4.109   4.647  11.166 -0.1112  0.6764 -0.1428
   23SAPC  H13A 2974   4.170   4.618  11.082 -1.1857 -1.0713 -0.3789
   23SAPC  H13B 2975   4.164   4.626  11.256  0.7721  0.4901 -0.7103
   23SAPC  H13C 2976   4.025   4.579  11.170  0.0828  0.4707  0.5526
   23SAPC   C14 2977   4.023   4.841  11.278 -1.0388  0.1828 -0.5512
   23SAPC  H14A 2978   3.997   4.945  11.283 -0.5187  0.4662 -2.5532
   23SAPC  H14B 2979   3.934   4.789  11.310 -0.1096 -1.3516 -0.3735
   23SAPC  H14C 2980   4.092   4.823  11.359 -1.6781  0.3533  0.0378
   23SAPC   C15 2981   3.964   4.812  11.047 -0.0389 -0.3117  0.1676
   23SAPC  H15A 2982   3.966   4.730  10.976 -0.8528 -0.3399  0.1659
   23SAPC  H15B 2983   3.865   4.811  11.092  0.0246 -0.5398  0.3049
   23SAPC  H15C 2984   3.981   4.901  10.989 -1.7871  0.9869  1.5284
   23SAPC   C11 2985   4.198   5.004  11.053 -0.0698 -0.0857 -0.7107
   23SAPC  H11A 2986   4.298   5.050  11.044  0.1762 -0.1535  1.2416
   23SAPC  H11B 2987   4.151   5.068  11.130  0.2414 -0.9392  0.2233
   23SAPC     P 2988   4.232   4.977  10.808  0.2024 -0.0548 -0.0724
   23SAPC   O13 2989   4.351   5.070  10.802  0.3557  0.3181 -0.3538
   23SAPC   O14 2990   4.262   4.831  10.799 -0.6650 -0.0357 -0.6860
   23SAPC   O12 2991   4.129   5.013  10.929 -0.2624  0.6007 -0.4921
   23SAPC   O11 2992   4.132   5.005  10.689 -0.0502  0.4928  0.0994
   23SAPC    C1 2993   4.074   5.139  10.679  0.3063 -0.4274 -0.1347
   23SAPC    HA 2994   3.975   5.147  10.728  0.2689  1.1395 -0.4130
   23SAPC    HB 2995   4.148   5.214  10.716  1.0434 -1.2379  0.0593
   23SAPC    C2 2996   4.052   5.179  10.526 -0.7330 -0.0639 -0.5732
   23SAPC    HS 2997   4.048   5.289  10.511 -4.9484 -0.1160 -0.9326
   23SAPC   O21 2998   3.932   5.121  10.476 -0.0293 -0.3098 -0.2682
   23SAPC   C21 2999   3.818   5.189  10.476 -0.0446  0.7901  0.2515
   23SAPC   O22 3000   3.810   5.304  10.514 -0.1930  0.0862  0.4112
   23SAPC   C22 3001   3.702   5.093  10.430  0.3534 -0.1391 -0.1094
   23SAPC   H2R 3002   3.736   4.991  10.400 -0.8815 -1.0124  1.3249
   23SAPC   H2S 3003   3.643   5.080  10.523  0.7385  0.1853  0.1799
   23SAPC    C3 3004   4.173   5.134  10.442  0.0152  0.1833 -0.5719
   23SAPC    HX 3005   4.164   5.024  10.448 -1.7611  0.3090 -0.1346
   23SAPC    HY 3006   4.259   5.177  10.497 -1.7821  1.6629  1.2356
   23SAPC   O31 3007   4.146   5.182  10.307 -0.4383  0.4184 -0.7287
   23SAPC   C31 3008   4.241   5.138  10.217  0.0432 -0.8761  0.2891
   23SAPC   O32 3009   4.332   5.068  10.247  0.0642  0.5889  0.0521
   23SAPC   C32 3010   4.200   5.188  10.076  0.3398  0.1637  0.0919
   23SAPC   H2X 3011   4.169   5.294  10.088  0.1264  0.1209 -0.0842
   23SAPC   H2Y 3012   4.107   5.132  10.050  1.4175 -0.5023 -2.6350
   23SAPC   C23 3013   3.629   5.151  10.303 -0.5077  0.3270 -0.9268
   23SAPC   H3R 3014   3.615   5.259  10.323  0.4733  0.3652 -0.4044
   23SAPC   H3S 3015   3.530   5.100  10.301 -0.0996 -0.7897 -5.5379
   23SAPC   C24 3016   3.697   5.117  10.170 -0.4221 -0.0495  0.7576
   23SAPC   H4R 3017   3.626   5.123  10.085  0.1820  3.8734  0.3667
   23SAPC   H4S 3018   3.713   5.007  10.175  3.0464  0.1727 -1.7656
   23SAPC   C25 3019   3.830   5.174  10.140 -0.2096  0.0493 -0.1296
   23SAPC   H5R 3020   3.915   5.125  10.190 -0.3212  1.3566  1.4047
   23SAPC   C26 3021   3.850   5.288  10.076 -0.9218 -0.5997  0.0180
   23SAPC   H6R 3022   3.956   5.308  10.053 -0.3410 -0.7739  2.2808
   23SAPC   C27 3023   3.740   5.368  10.012 -0.4754  0.5067 -0.0096
   23SAPC   H7R 3024   3.769   5.475  10.017  0.0257  0.3987 -0.5369
   23SAPC   H7S 3025   3.658   5.359  10.087 -1.5772  0.0466 -1.2348
   23SAPC   C28 3026   3.686   5.326   9.875 -0.0854  0.4866  0.0002
   23SAPC   H8R 3027   3.654   5.221   9.871 -3.0491  1.3055  0.0020
   23SAPC   C29 3028   3.702   5.399   9.759 -0.0906 -0.3888 -0.4725
   23SAPC   H9R 3029   3.650   5.371   9.666  0.6911 -0.2761 -0.9608
   23SAPC  C210 3030   3.759   5.540   9.746  0.6205  0.1971 -0.0461
   23SAPC  H10R 3031   3.790   5.575   9.847 -0.1037 -0.3330  0.3713
   23SAPC  H10S 3032   3.679   5.609   9.709  1.2371 -0.1724 -2.1500
   23SAPC  C211 3033   3.887   5.533   9.665  1.0947  0.2677  0.2012
   23SAPC  H11R 3034   3.969   5.480   9.716  2.2907  1.2919 -0.5945
   23SAPC  C212 3035   3.908   5.593   9.542 -0.0052  0.6694  0.6670
   23SAPC  H12R 3036   4.006   5.577   9.494 -0.2439  0.2238  0.3149
   23SAPC  C213 3037   3.816   5.668   9.454  0.0555 -0.3726 -0.1527
   23SAPC  H13R 3038   3.714   5.625   9.442  0.2771 -1.6280  1.9012
   23SAPC  H13S 3039   3.861   5.675   9.353  0.4385  0.3395  0.0603
   23SAPC  C214 3040   3.799   5.808   9.510 -0.5473 -0.2190 -0.3323
   23SAPC  H14R 3041   3.814   5.823   9.618 -2.3363 -0.7291  0.0199
   23SAPC  C215 3042   3.768   5.917   9.432  0.1454  0.6340  0.8458
   23SAPC  H15R 3043   3.749   6.014   9.481 -1.5195  0.5046  0.4991
   23SAPC  C216 3044   3.756   5.905   9.284  0.0887 -0.0558 -0.2400
   23SAPC  H16R 3045   3.728   5.809   9.236 -1.3351  0.1318  0.1730
   23SAPC  H16S 3046   3.856   5.926   9.242  0.1700 -0.8485 -0.4609
   23SAPC  C217 3047   3.650   6.004   9.228 -0.5252  0.2570  1.2381
   23SAPC  H17R 3048   3.660   6.112   9.251  1.0573  0.3368  0.3627
   23SAPC  H17S 3049   3.552   5.978   9.271 -0.8848  1.7547  1.3750
   23SAPC  C218 3050   3.660   6.003   9.073  0.9331  0.8469  0.1038
   23SAPC  H18R 3051   3.616   5.909   9.034  0.7045  1.3165 -0.8012
   23SAPC  H18S 3052   3.765   6.001   9.035  0.2671 -1.9000 -1.8620
   23SAPC  C219 3053   3.586   6.125   9.012  0.1811  0.2617  0.6508
   23SAPC  H19R 3054   3.623   6.213   9.068  0.0431  1.1297 -0.5958
   23SAPC  H19S 3055   3.479   6.124   9.042  0.5496  1.7024  2.1282
   23SAPC  C220 3056   3.616   6.154   8.862  0.0616  0.4846  0.6451
   23SAPC  H20R 3057   3.543   6.229   8.824  0.9928  2.0630  1.8611
   23SAPC  H20S 3058   3.616   6.061   8.802  0.9207  1.1938 -0.4951
   23SAPC  H20T 3059   3.717   6.199   8.857  0.2890  0.0097  0.9659
   23SAPC   C33 3060   4.314   5.173   9.970  0.0010 -0.2854 -0.9009
   23SAPC   H3X 3061   4.328   5.067   9.937 -0.2602 -0.3720 -0.7291
   23SAPC   H3Y 3062   4.409   5.210  10.015  0.1246 -0.4546 -1.0191
   23SAPC   C34 3063   4.284   5.268   9.842 -0.3472  0.1702 -0.2459
   23SAPC   H4X 3064   4.294   5.375   9.869  1.6347 -0.0143 -0.0999
   23SAPC   H4Y 3065   4.179   5.239   9.822 -0.3428  0.1840 -0.2874
   23SAPC   C35 3066   4.387   5.249   9.730  0.8891 -0.3515  0.5378
   23SAPC   H5X 3067   4.370   5.142   9.706  0.5982  0.1060 -1.4904
   23SAPC   H5Y 3068   4.492   5.275   9.755 -0.1758  1.2816  3.9767
   23SAPC   C36 3069   4.344   5.331   9.604  0.5042  0.1972 -0.4701
   23SAPC   H6X 3070   4.368   5.436   9.630 -1.1058  0.8223 -1.3337
   23SAPC   H6Y 3071   4.238   5.316   9.575  0.8407  2.3869 -3.3235
   23SAPC   C37 3072   4.419   5.290   9.481  0.7117 -0.9655  0.5286
   23SAPC   H7X 3073   4.392   5.182   9.473 -2.0058 -0.3665  0.5403
   23SAPC   H7Y 3074   4.529   5.298   9.495  0.5100  0.4353  1.5498
   23SAPC   C38 3075   4.378   5.343   9.338  0.1230  0.4278 -0.3099
   23SAPC   H8X 3076   4.274   5.313   9.313  0.6302 -1.4581 -0.2948
   23SAPC   H8Y 3077   4.438   5.276   9.273 -1.2118 -1.4794  0.3148
   23SAPC   C39 3078   4.406   5.491   9.311 -0.8394  0.2233  0.2668
   23SAPC   H9X 3079   4.516   5.507   9.319 -0.7025  1.4187 -2.6235
   23SAPC   H9Y 3080   4.356   5.554   9.387 -0.7845 -1.6227  1.9285
   23SAPC  C310 3081   4.347   5.550   9.182 -0.6263  0.0365 -0.2007
   23SAPC  H10X 3082   4.402   5.490   9.106 -0.9147 -0.0080 -0.3773
   23SAPC  H10Y 3083   4.384   5.654   9.181 -1.4570  0.3603  0.8952
   23SAPC  C311 3084   4.193   5.550   9.163  0.0256  0.5180 -0.6150
   23SAPC  H11X 3085   4.150   5.604   9.250 -0.1611 -1.3263  0.4873
   23SAPC  H11Y 3086   4.155   5.446   9.171 -1.5815  1.0286 -1.0175
   23SAPC  C312 3087   4.142   5.606   9.027 -0.3869 -0.1439  0.3138
   23SAPC  H12X 3088   4.193   5.560   8.939 -0.4205  0.4731 -0.0288
   23SAPC  H12Y 3089   4.161   5.715   9.021 -1.6317  0.1117  0.6761
   23SAPC  C313 3090   3.990   5.588   9.011 -0.0324 -0.1817 -0.2827
   23SAPC  H13X 3091   3.923   5.643   9.081  0.8382 -0.1632  0.5596
   23SAPC  H13Y 3092   3.968   5.481   9.030 -1.1632 -0.0098 -0.5386
   23SAPC  C314 3093   3.936   5.621   8.876 -0.7027  0.6875  0.0176
   23SAPC  H14X 3094   3.830   5.588   8.873 -0.7557  0.8796 -3.1926
   23SAPC  H14Y 3095   3.988   5.553   8.806 -1.4172 -0.3504  0.4708
   23SAPC  C315 3096   3.968   5.764   8.832 -0.0635 -0.4081 -0.4845
   23SAPC  H15X 3097   4.074   5.787   8.807 -0.1672  1.5712  0.6700
   23SAPC  H15Y 3098   3.957   5.838   8.915 -2.2953  0.0530 -1.1410
   23SAPC  C316 3099   3.879   5.816   8.718  0.1560 -0.0576 -0.1308
   23SAPC  H16X 3100   3.772   5.795   8.739 -0.4897  0.3168 -2.7026
   23SAPC  H16Y 3101   3.899   5.756   8.626 -0.6738  1.2119 -1.1820
   23SAPC  C317 3102   3.898   5.969   8.681 -0.1011  0.1708 -0.0103
   23SAPC  H17X 3103   4.004   5.989   8.656 -0.4871  1.3736 -0.7905
   23SAPC  H17Y 3104   3.882   6.033   8.770 -1.3973  0.2800 -0.2879
   23SAPC  C318 3105   3.814   6.012   8.560 -0.3585  0.5122 -0.1706
   23SAPC  H18X 3106   3.820   5.937   8.479 -0.5801  2.0378 -1.6623
   23SAPC  H18Y 3107   3.855   6.104   8.514 -1.7842  0.8507 -0.8444
   23SAPC  H18Z 3108   3.707   6.036   8.580  0.0886  1.9437  0.7121
   24SAPC     N 3109   2.886   2.939  11.251 -0.4233 -0.6995 -0.1409
   24SAPC   C12 3110   2.766   2.981  11.173  0.1707 -0.5459  0.8577
   24SAPC  H12A 3111   2.742   3.085  11.186 -2.6417 -1.1847  1.2817
   24SAPC  H12B 3112   2.685   2.924  11.216  3.6562 -4.2876  3.2306
   24SAPC   C13 3113   3.017   2.996  11.200  0.1107  0.3744  0.2649
   24SAPC  H13A 3114   3.028   2.974  11.095 -1.8227  3.1003 -0.6205
   24SAPC  H13B 3115   3.027   3.102  11.217  1.0346  0.0268  2.1564
   24SAPC  H13C 3116   3.106   2.955  11.246  0.6732  0.0445 -1.0902
   24SAPC   C14 3117   2.865   2.982  11.388 -0.1593  0.2945 -0.4160
   24SAPC  H14A 3118   2.939   2.950  11.460  0.6070 -0.0566 -1.3361
   24SAPC  H14B 3119   2.854   3.089  11.395 -1.4124  0.1422  0.2508
   24SAPC  H14C 3120   2.774   2.939  11.428 -1.2256  1.7773 -1.1708
   24SAPC   C15 3121   2.894   2.790  11.250 -0.2136  0.3181  0.0865
   24SAPC  H15A 3122   2.913   2.752  11.151 -0.7156  0.1849  0.0384
   24SAPC  H15B 3123   2.974   2.747  11.309 -0.3618  0.6068  0.5034
   24SAPC  H15C 3124   2.802   2.747  11.286 -0.0675  1.0132  1.3575
   24SAPC   C11 3125   2.769   2.949  11.024  0.2520 -0.6183  0.0891
   24SAPC  H11A 3126   2.854   2.998  10.972 -0.2616  1.2081  0.9037
   24SAPC  H11B 3127   2.680   2.995  10.976 -0.8533 -2.5191  0.2035
   24SAPC     P 3128   2.642   2.714  11.001 -0.1085  0.0418  0.1951
   24SAPC   O13 3129   2.675   2.579  11.050  0.2841  0.2203  0.6033
   24SAPC   O14 3130   2.537   2.787  11.070  0.0078 -0.0915 -0.5916
   24SAPC   O12 3131   2.775   2.807  10.994  0.4106 -0.3402 -0.5782
   24SAPC   O11 3132   2.604   2.705  10.846  0.4284 -0.4921  0.1652
   24SAPC    C1 3133   2.694   2.619  10.775  1.0936 -0.9373  0.2809
   24SAPC    HA 3134   2.800   2.652  10.772  0.9518 -0.5058 -2.9390
   24SAPC    HB 3135   2.697   2.514  10.811  1.4391 -1.4135 -1.0774
   24SAPC    C2 3136   2.651   2.602  10.626 -0.2198 -0.8385 -0.5101
   24SAPC    HS 3137   2.708   2.515  10.586  1.7259  1.2378 -2.5614
   24SAPC   O21 3138   2.686   2.723  10.552  0.0254 -0.1031 -0.0831
   24SAPC   C21 3139   2.814   2.734  10.525  0.5811 -0.5724 -0.5479
   24SAPC   O22 3140   2.895   2.644  10.548 -0.3227 -0.3162 -0.1070
   24SAPC   C22 3141   2.840   2.870  10.460 -0.0729  0.1415 -0.2062
   24SAPC   H2R 3142   2.775   2.949  10.503 -0.3790 -0.0303 -0.3480
   24SAPC   H2S 3143   2.947   2.888  10.486  0.1152 -0.0847 -0.8160
   24SAPC    C3 3144   2.500   2.571  10.613 -0.3724  0.1418  0.2074
   24SAPC    HX 3145   2.450   2.660  10.658 -1.4237 -1.1527  1.7281
   24SAPC    HY 3146   2.480   2.487  10.683  1.8939 -0.5605  0.0790
   24SAPC   O31 3147   2.466   2.525  10.478 -0.6679 -1.1324  0.0133
   24SAPC   C31 3148   2.438   2.635  10.401 -0.6088 -0.2398 -0.2715
   24SAPC   O32 3149   2.440   2.750  10.441  0.2809 -0.4125  0.3226
   24SAPC   C32 3150   2.405   2.588  10.258 -0.1369 -0.0818 -1.7005
   24SAPC   H2X 3151   2.299   2.621  10.254 -0.2651  0.7869  2.8509
   24SAPC   H2Y 3152   2.431   2.480  10.257 -0.3357 -0.1724  0.0419
   24SAPC   C23 3153   2.812   2.854  10.310  0.0196  0.6991  0.0512
   24SAPC   H3R 3154   2.816   2.949  10.253 -0.3072 -1.9781 -4.9830
   24SAPC   H3S 3155   2.714   2.802  10.298 -0.2376  0.5599  2.3903
   24SAPC   C24 3156   2.919   2.768  10.233 -0.5585 -0.0564 -0.4648
   24SAPC   H4R 3157   2.934   2.672  10.287  1.1536  0.2307 -0.3925
   24SAPC   H4S 3158   3.014   2.824  10.220  0.7185 -1.4335  2.1792
   24SAPC   C25 3159   2.876   2.713  10.096 -0.0098  0.4330  0.5897
   24SAPC   H5R 3160   2.793   2.642  10.080 -1.4740  1.9805  1.0537
   24SAPC   C26 3161   2.917   2.767   9.979  0.1941  0.1821  0.1238
   24SAPC   H6R 3162   2.875   2.722   9.888  0.9671 -0.2675 -0.0231
   24SAPC   C27 3163   3.007   2.889   9.946  0.2522  0.1100 -0.2006
   24SAPC   H7R 3164   3.088   2.861   9.877 -1.1334  2.0397 -2.7937
   24SAPC   H7S 3165   3.064   2.922  10.036 -2.1880  0.8017  1.1938
   24SAPC   C28 3166   2.937   3.008   9.891  0.0865 -0.1694 -0.3955
   24SAPC   H8R 3167   2.883   3.060   9.972 -0.5442  1.9968 -2.1164
   24SAPC   C29 3168   2.931   3.050   9.764 -0.0613 -0.1125  0.1829
   24SAPC   H9R 3169   2.860   3.132   9.743  1.1431  0.1837 -3.4430
   24SAPC  C210 3170   2.995   2.991   9.643  0.6020 -0.4090  0.9565
   24SAPC  H10R 3171   3.085   2.933   9.674  0.1456 -0.8098  1.5570
   24SAPC  H10S 3172   3.030   3.066   9.569 -1.6111  0.9908  1.2344
   24SAPC  C211 3173   2.885   2.901   9.588 -0.5098 -0.1040  0.2475
   24SAPC  H11R 3174   2.842   2.838   9.668  2.2582 -0.1929  1.7998
   24SAPC  C212 3175   2.852   2.875   9.462  0.6408 -0.0146 -0.0114
   24SAPC  H12R 3176   2.774   2.800   9.440 -0.6371  1.6040 -1.2380
   24SAPC  C213 3177   2.917   2.938   9.338  0.0120 -0.2591  0.6076
   24SAPC  H13R 3178   2.995   2.877   9.287  2.0517  3.4796 -1.1526
   24SAPC  H13S 3179   2.973   3.030   9.363 -3.2332  2.4611 -1.2353
   24SAPC  C214 3180   2.803   2.959   9.235  0.0774 -0.5139 -0.2681
   24SAPC  H14R 3181   2.704   2.967   9.284  0.3436 -2.8194  0.8294
   24SAPC  C215 3182   2.816   2.963   9.104  0.0719 -0.0142 -0.3128
   24SAPC  H15R 3183   2.732   2.980   9.034  1.4462 -1.9078 -2.5570
   24SAPC  C216 3184   2.952   2.944   9.037 -0.0302 -0.2348 -0.7464
   24SAPC  H16R 3185   2.986   2.839   9.046 -1.9503 -0.8293 -0.0341
   24SAPC  H16S 3186   3.029   3.017   9.072 -1.0131  0.9133 -0.9018
   24SAPC  C217 3187   2.947   2.969   8.881  0.2204  0.6958 -0.5875
   24SAPC  H17R 3188   3.050   2.964   8.840 -0.3977  1.0437 -2.2301
   24SAPC  H17S 3189   2.902   3.069   8.862  1.7396  1.5953  0.2842
   24SAPC  C218 3190   2.863   2.857   8.821 -0.3028 -0.2882 -0.3167
   24SAPC  H18R 3191   2.760   2.873   8.859  0.4761  0.3742  1.6450
   24SAPC  H18S 3192   2.895   2.760   8.863 -1.9855 -0.4896  0.5887
   24SAPC  C219 3193   2.857   2.862   8.660  0.1014 -0.1582 -0.4745
   24SAPC  H19R 3194   2.962   2.845   8.627  0.2851  0.0541 -0.0136
   24SAPC  H19S 3195   2.824   2.964   8.628 -1.1789 -0.5815 -0.5497
   24SAPC  C220 3196   2.770   2.747   8.611  0.4694  0.1357 -0.5224
   24SAPC  H20R 3197   2.794   2.647   8.654 -4.6540  0.1376  3.2488
   24SAPC  H20S 3198   2.793   2.733   8.503  1.0470 -3.5797 -0.0549
   24SAPC  H20T 3199   2.662   2.758   8.631  0.8222  0.2431  1.5277
   24SAPC   C33 3200   2.492   2.672  10.157  0.3641  0.6164  0.4229
   24SAPC   H3X 3201   2.598   2.649  10.180  0.8723  2.2663 -0.0937
   24SAPC   H3Y 3202   2.482   2.783  10.165  1.0567  0.6879  0.3507
   24SAPC   C34 3203   2.457   2.633  10.013  0.3537 -0.1257  0.3625
   24SAPC   H4X 3204   2.346   2.627  10.004  0.2858 -0.8227  1.5635
   24SAPC   H4Y 3205   2.481   2.527   9.994 -0.0156 -0.2619  0.6582
   24SAPC   C35 3206   2.512   2.727   9.902  0.6458 -0.3430 -0.0295
   24SAPC   H5X 3207   2.622   2.706   9.901  0.7933  0.3003  1.2561
   24SAPC   H5Y 3208   2.496   2.831   9.936  0.7842 -0.9957  2.1943
   24SAPC   C36 3209   2.437   2.702   9.776  0.1959 -0.3698  0.3399
   24SAPC   H6X 3210   2.331   2.737   9.787 -0.5840 -2.2888 -0.6212
   24SAPC   H6Y 3211   2.438   2.593   9.758 -0.7962 -0.5527  1.2371
   24SAPC   C37 3212   2.509   2.761   9.655 -0.3036 -0.2056 -0.2167
   24SAPC   H7X 3213   2.616   2.733   9.645 -0.5214 -0.7486 -1.1058
   24SAPC   H7Y 3214   2.503   2.872   9.648 -2.2489 -0.3697 -1.7658
   24SAPC   C38 3215   2.442   2.724   9.523 -0.3401 -0.0804 -0.2126
   24SAPC   H8X 3216   2.343   2.774   9.524  0.5585  1.7860  0.5789
   24SAPC   H8Y 3217   2.431   2.614   9.514 -0.7098  0.0509 -1.5246
   24SAPC   C39 3218   2.522   2.772   9.396  0.3820  0.4961  0.1865
   24SAPC   H9X 3219   2.608   2.706   9.372 -0.0171  0.0067  0.0763
   24SAPC   H9Y 3220   2.565   2.874   9.401  1.5280  0.0639 -0.4043
   24SAPC  C310 3221   2.427   2.771   9.274  0.5275  0.3521  0.2165
   24SAPC  H10X 3222   2.343   2.844   9.283  0.2724 -0.1360  2.1232
   24SAPC  H10Y 3223   2.387   2.668   9.275 -0.2457  0.6452  0.8017
   24SAPC  C311 3224   2.506   2.788   9.146  0.3187  0.9473 -0.1300
   24SAPC  H11X 3225   2.590   2.716   9.147 -1.5604 -1.3586  0.9578
   24SAPC  H11Y 3226   2.553   2.889   9.147 -0.2746  1.2315  0.8311
   24SAPC  C312 3227   2.417   2.771   9.023  0.0597  0.3676  0.4236
   24SAPC  H12X 3228   2.344   2.688   9.040 -1.1511  1.2052 -0.5085
   24SAPC  H12Y 3229   2.476   2.741   8.934  0.2493 -0.1499  0.7156
   24SAPC  C313 3230   2.334   2.895   8.984 -0.3908 -0.5555 -0.3077
   24SAPC  H13X 3231   2.408   2.975   8.966 -1.0169  0.2554  0.6123
   24SAPC  H13Y 3232   2.257   2.927   9.057 -0.5429 -1.3266 -0.1193
   24SAPC  C314 3233   2.252   2.885   8.851 -0.4726  0.0249 -0.6627
   24SAPC  H14X 3234   2.321   2.841   8.775 -0.3726  3.1567 -2.5631
   24SAPC  H14Y 3235   2.227   2.988   8.819  2.2819  1.3213  0.9955
   24SAPC  C315 3236   2.122   2.805   8.865  0.0830  1.3560 -0.5769
   24SAPC  H15X 3237   2.044   2.862   8.921 -2.2122 -0.6209 -1.5900
   24SAPC  H15Y 3238   2.141   2.714   8.925  0.0049  0.9079 -1.2193
   24SAPC  C316 3239   2.074   2.749   8.728 -0.6456  0.1073 -0.4690
   24SAPC  H16X 3240   1.989   2.681   8.749 -1.3699  0.7769 -1.1429
   24SAPC  H16Y 3241   2.150   2.678   8.688 -0.9383 -0.8179  0.5835
   24SAPC  C317 3242   2.050   2.852   8.620  0.6999 -0.3565 -0.1029
   24SAPC  H17X 3243   2.148   2.878   8.574  0.4243  1.2170  0.1576
   24SAPC  H17Y 3244   2.005   2.943   8.663  2.6040 -0.3921  2.1628
   24SAPC  C318 3245   1.968   2.793   8.508 -0.1855 -0.9026 -0.5755
   24SAPC  H18X 3246   2.013   2.702   8.462 -0.3633 -0.0956 -2.4270
   24SAPC  H18Y 3247   1.957   2.859   8.419  1.3754 -0.6866 -0.6411
   24SAPC  H18Z 3248   1.870   2.760   8.547  0.1487 -2.2346 -0.8215
   25SAPC     N 3249   6.167   0.191   6.058 -0.5656  0.6331 -0.0923
   25SAPC   C12 3250   6.063   0.279   6.115  0.5757  0.3239  0.2699
   25SAPC  H12A 3251   6.085   0.381   6.088  1.2394 -0.3584 -2.0227
   25SAPC  H12B 3252   6.057   0.264   6.222  0.6579  0.6202  0.3172
   25SAPC   C13 3253   6.304   0.235   6.090 -0.5141  0.5585 -1.1714
   25SAPC  H13A 3254   6.373   0.155   6.069  0.3080  0.4391  1.5033
   25SAPC  H13B 3255   6.339   0.327   6.048  2.3754 -0.1448 -0.5563
   25SAPC  H13C 3256   6.315   0.239   6.198  0.9616  2.0507 -1.3362
   25SAPC   C14 3257   6.154   0.055   6.105 -0.3785  0.2891 -0.9616
   25SAPC  H14A 3258   6.142   0.043   6.211  2.4502 -0.6058 -0.6560
   25SAPC  H14B 3259   6.059   0.014   6.074 -0.8054  0.3109  0.2976
   25SAPC  H14C 3260   6.229  -0.016   6.074  0.0683  0.3121  0.0305
   25SAPC   C15 3261   6.166   0.184   5.905 -0.2229 -0.7016 -0.7399
   25SAPC  H15A 3262   6.095   0.124   5.851  0.6618 -1.0752 -1.5217
   25SAPC  H15B 3263   6.165   0.288   5.873  2.4157  0.3206  1.9442
   25SAPC  H15C 3264   6.254   0.145   5.856 -1.9872  0.0421 -4.9892
   25SAPC   C11 3265   5.919   0.249   6.069  0.0855  0.1191  0.6539
   25SAPC  H11A 3266   5.922   0.281   5.962  1.8421  2.3017  1.2818
   25SAPC  H11B 3267   5.839   0.319   6.104  0.3638  0.2523  1.0301
   25SAPC     P 3268   5.821   0.055   6.210 -0.3330  0.1253 -0.2375
   25SAPC   O13 3269   5.811  -0.087   6.189  0.4117  0.7414  0.0045
   25SAPC   O14 3270   5.900   0.093   6.330 -0.9668  0.1151  0.8319
   25SAPC   O12 3271   5.882   0.109   6.071 -0.3097 -0.1622 -0.2552
   25SAPC   O11 3272   5.682   0.124   6.222 -0.4641  0.1978 -0.6797
   25SAPC    C1 3273   5.654   0.187   6.346 -0.2683  0.4998  0.2580
   25SAPC    HA 3274   5.731   0.253   6.392  2.1980 -1.3882 -0.9790
   25SAPC    HB 3275   5.562   0.247   6.326 -0.2418 -0.1566 -2.1448
   25SAPC    C2 3276   5.591   0.086   6.446  0.5955 -0.1583 -0.4097
   25SAPC    HS 3277   5.538   0.152   6.519  0.3804 -1.0806  0.2930
   25SAPC   O21 3278   5.691   0.004   6.508  0.7079  0.4923  0.3074
   25SAPC   C21 3279   5.766   0.065   6.592 -0.7054 -0.1432 -0.3766
   25SAPC   O22 3280   5.748   0.181   6.626 -0.7961 -0.7562  0.1068
   25SAPC   C22 3281   5.878  -0.025   6.642  0.2669  0.3354  0.0727
   25SAPC   H2R 3282   5.833  -0.113   6.692 -0.1793  1.0441  0.9431
   25SAPC   H2S 3283   5.937  -0.060   6.555 -1.4864  0.4677 -1.2283
   25SAPC    C3 3284   5.481  -0.004   6.379 -0.0231  0.0960 -0.1616
   25SAPC    HX 3285   5.541  -0.062   6.306 -0.2436 -0.3015 -0.0267
   25SAPC    HY 3286   5.399   0.059   6.337 -1.0277  0.9441  2.8430
   25SAPC   O31 3287   5.411  -0.093   6.474  0.5300  0.0142  0.0101
   25SAPC   C31 3288   5.294  -0.045   6.529  0.0511  0.5125  0.3285
   25SAPC   O32 3289   5.244   0.061   6.501  0.1304 -0.0626 -0.0732
   25SAPC   C32 3290   5.232  -0.153   6.621 -0.5914  0.1983  0.2975
   25SAPC   H2X 3291   5.283  -0.247   6.592  1.8173  1.5543 -0.0623
   25SAPC   H2Y 3292   5.123  -0.169   6.602 -0.4716  0.8311 -1.0272
   25SAPC   C23 3293   5.970   0.055   6.743 -0.4906 -0.6886  0.1399
   25SAPC   H3R 3294   5.908   0.111   6.816 -1.2261  1.3904 -1.9193
   25SAPC   H3S 3295   6.032   0.122   6.680  2.3792 -1.3725  2.0755
   25SAPC   C24 3296   6.062  -0.030   6.836 -0.3868 -0.4478 -0.4669
   25SAPC   H4R 3297   6.138   0.042   6.874  2.0477 -3.5203  1.0150
   25SAPC   H4S 3298   6.117  -0.102   6.772  0.1589 -0.4906  0.0339
   25SAPC   C25 3299   5.997  -0.114   6.941 -0.5587  1.1664 -0.4360
   25SAPC   H5R 3300   5.951  -0.201   6.892  2.0826 -1.8725  2.1150
   25SAPC   C26 3301   6.006  -0.104   7.074  0.6317 -0.1586  0.0224
   25SAPC   H6R 3302   5.953  -0.182   7.132  1.2596 -0.0375  0.7730
   25SAPC   C27 3303   6.078   0.003   7.142 -0.2740 -0.5185 -0.1902
   25SAPC   H7R 3304   6.016   0.026   7.232 -2.3729 -2.6080 -1.0053
   25SAPC   H7S 3305   6.068   0.099   7.088  1.5691  0.2680  0.7806
   25SAPC   C28 3306   6.224  -0.023   7.174  0.3848  0.6600 -0.3080
   25SAPC   H8R 3307   6.291  -0.049   7.090  0.0802  0.2353 -0.4200
   25SAPC   C29 3308   6.279  -0.046   7.297 -0.1285 -0.4630 -0.8175
   25SAPC   H9R 3309   6.389  -0.058   7.298  0.0339  0.6832 -2.0582
   25SAPC  C210 3310   6.199  -0.051   7.426  0.3194  0.7828  0.1581
   25SAPC  H10R 3311   6.117   0.023   7.415  0.2590  0.4902 -1.7419
   25SAPC  H10S 3312   6.247  -0.020   7.521 -2.2100 -0.4552  1.9520
   25SAPC  C211 3313   6.155  -0.192   7.458 -1.0955 -0.3573 -0.3698
   25SAPC  H11R 3314   6.073  -0.230   7.395 -0.4161  1.8158 -2.7748
   25SAPC  C212 3315   6.204  -0.270   7.557 -0.0541 -1.2404  0.2926
   25SAPC  H12R 3316   6.179  -0.377   7.556 -0.6037 -1.1378  1.3982
   25SAPC  C213 3317   6.316  -0.235   7.656 -0.1936 -0.2306  0.1515
   25SAPC  H13R 3318   6.359  -0.135   7.631 -2.0036  0.9260  1.4565
   25SAPC  H13S 3319   6.397  -0.309   7.635  0.7328  0.6246  0.6251
   25SAPC  C214 3320   6.279  -0.235   7.799 -0.4542  0.5081 -0.6777
   25SAPC  H14R 3321   6.228  -0.142   7.828 -0.9421  0.1361 -0.3242
   25SAPC  C215 3322   6.292  -0.344   7.883  0.1132 -0.0309 -0.5744
   25SAPC  H15R 3323   6.258  -0.327   7.986 -0.4763 -1.0180 -0.5816
   25SAPC  C216 3324   6.343  -0.484   7.837 -0.6115 -0.4365  0.2586
   25SAPC  H16R 3325   6.427  -0.480   7.763 -1.6951 -1.6429 -1.0956
   25SAPC  H16S 3326   6.261  -0.528   7.776 -1.6790 -0.1701  1.4701
   25SAPC  C217 3327   6.374  -0.580   7.950 -1.0360 -0.8276 -0.3350
   25SAPC  H17R 3328   6.413  -0.671   7.901  0.5567 -0.0781 -0.5050
   25SAPC  H17S 3329   6.285  -0.609   8.010 -0.9819  2.0102  1.3128
   25SAPC  C218 3330   6.473  -0.514   8.047 -0.4885  0.1656 -0.4538
   25SAPC  H18R 3331   6.405  -0.449   8.107  0.3514  1.5329 -0.9270
   25SAPC  H18S 3332   6.557  -0.465   7.993  1.3815 -1.2680  1.0637
   25SAPC  C219 3333   6.546  -0.626   8.127 -1.1080 -0.7346  0.5531
   25SAPC  H19R 3334   6.617  -0.679   8.061  1.0124 -1.7475  3.4466
   25SAPC  H19S 3335   6.465  -0.697   8.153 -2.3129  0.1335 -0.6592
   25SAPC  C220 3336   6.617  -0.588   8.260 -0.5009  0.5145 -0.1149
   25SAPC  H20R 3337   6.674  -0.672   8.305 -0.1889  1.0060  0.4199
   25SAPC  H20S 3338   6.551  -0.541   8.336 -0.4895  1.7977 -0.8842
   25SAPC  H20T 3339   6.689  -0.511   8.226 -0.9342  0.3994 -1.3438
   25SAPC   C33 3340   5.261  -0.131   6.768  0.0154  0.8396 -0.1430
   25SAPC   H3X 3341   5.206  -0.216   6.813 -1.8851  0.1875 -3.3567
   25SAPC   H3Y 3342   5.216  -0.031   6.787 -3.4573 -1.0700  2.7404
   25SAPC   C34 3343   5.407  -0.133   6.821 -0.0999 -0.4485 -0.2448
   25SAPC   H4X 3344   5.461  -0.057   6.762  1.6864 -0.1837  1.5904
   25SAPC   H4Y 3345   5.456  -0.228   6.790  0.2512 -1.0875  2.0211
   25SAPC   C35 3346   5.436  -0.119   6.970 -0.5742  0.9754 -0.0073
   25SAPC   H5X 3347   5.388  -0.204   7.022  0.0099  0.1868 -0.7330
   25SAPC   H5Y 3348   5.407  -0.019   7.009  1.2090  1.5617 -0.0956
   25SAPC   C36 3349   5.590  -0.132   6.985 -0.0972  0.7463  0.2788
   25SAPC   H6X 3350   5.642  -0.034   6.987  2.3936 -0.4983 -0.3700
   25SAPC   H6Y 3351   5.625  -0.187   6.895 -0.3029 -0.0301  0.6597
   25SAPC   C37 3352   5.636  -0.225   7.100  0.8966  0.2338 -0.4776
   25SAPC   H7X 3353   5.736  -0.269   7.077  1.0510 -0.2411  1.0009
   25SAPC   H7Y 3354   5.565  -0.310   7.107 -0.7027  1.6344  1.8138
   25SAPC   C38 3355   5.653  -0.166   7.240  0.4624  0.4551 -0.1364
   25SAPC   H8X 3356   5.559  -0.113   7.267 -0.3964 -1.4233  0.7940
   25SAPC   H8Y 3357   5.739  -0.097   7.249  0.2288  0.6140  1.1035
   25SAPC   C39 3358   5.675  -0.276   7.346  0.2170  0.5983 -0.4816
   25SAPC   H9X 3359   5.747  -0.353   7.310 -0.1307 -0.6157  1.2677
   25SAPC   H9Y 3360   5.577  -0.325   7.367  0.1772  0.7358 -0.3449
   25SAPC  C310 3361   5.731  -0.220   7.477  0.1104  0.6783  0.3411
   25SAPC  H10X 3362   5.646  -0.175   7.533  0.0879 -0.2802  1.1125
   25SAPC  H10Y 3363   5.815  -0.149   7.470  0.8031 -0.1267  0.3421
   25SAPC  C311 3364   5.779  -0.329   7.581 -0.0586 -0.2729  0.1784
   25SAPC  H11X 3365   5.870  -0.382   7.543 -0.0696 -0.4705  0.4211
   25SAPC  H11Y 3366   5.693  -0.398   7.590  0.7748 -1.1635  1.7641
   25SAPC  C312 3367   5.818  -0.279   7.717 -1.0469  0.1491  0.4484
   25SAPC  H12X 3368   5.726  -0.233   7.759  0.0554  0.2198  2.9694
   25SAPC  H12Y 3369   5.890  -0.198   7.692  1.2054 -1.9696 -0.2799
   25SAPC  C313 3370   5.881  -0.376   7.819 -0.0708  0.1558 -0.0016
   25SAPC  H13X 3371   5.962  -0.433   7.770 -0.7002  1.6780 -3.0931
   25SAPC  H13Y 3372   5.795  -0.435   7.856  1.1121 -1.5533  0.1549
   25SAPC  C314 3373   5.936  -0.310   7.945 -0.7343 -0.0570 -0.7083
   25SAPC  H14X 3374   5.848  -0.264   7.995  1.9147  3.3893  1.2898
   25SAPC  H14Y 3375   6.011  -0.230   7.924 -0.4678  0.0029  0.4133
   25SAPC  C315 3376   5.995  -0.412   8.049 -0.3624 -0.3042  0.3442
   25SAPC  H15X 3377   6.080  -0.459   7.995  1.6466  0.2142  2.8529
   25SAPC  H15Y 3378   5.920  -0.493   8.064 -0.7625 -0.1601 -0.7896
   25SAPC  C316 3379   6.049  -0.349   8.175  0.5485  0.4207  0.4325
   25SAPC  H16X 3380   5.964  -0.291   8.217  0.0489  0.6541 -0.8495
   25SAPC  H16Y 3381   6.115  -0.263   8.153  0.0477  0.7142  0.0659
   25SAPC  C317 3382   6.124  -0.441   8.276  0.1124 -0.1114 -0.1501
   25SAPC  H17X 3383   6.200  -0.493   8.214  0.5495 -0.6863  0.8628
   25SAPC  H17Y 3384   6.048  -0.516   8.305  1.0622 -0.7454  0.7400
   25SAPC  C318 3385   6.184  -0.388   8.407  0.0195  0.3254 -0.6051
   25SAPC  H18X 3386   6.203  -0.465   8.485  0.7951  0.1182 -0.9838
   25SAPC  H18Y 3387   6.102  -0.333   8.457  0.9428  0.1619  1.1678
   25SAPC  H18Z 3388   6.274  -0.325   8.390 -1.1206  2.0028 -0.5773
   26SAPC     N 3389   2.606   1.265   5.933 -0.2002 -0.2026  0.1766
   26SAPC   C12 3390   2.672   1.339   6.047  0.8628 -0.8997  0.1196
   26SAPC  H12A 3391   2.769   1.367   6.009 -0.3811  0.2701 -2.3967
   26SAPC  H12B 3392   2.701   1.265   6.121  0.6670 -1.0449  0.0527
   26SAPC   C13 3393   2.614   1.348   5.812  0.0415  0.2731  0.2209
   26SAPC  H13A 3394   2.711   1.355   5.765  0.1275  0.2191  0.3874
   26SAPC  H13B 3395   2.545   1.307   5.740  0.4922  1.4222 -0.8899
   26SAPC  H13C 3396   2.589   1.451   5.829 -1.4197  0.1785 -1.1852
   26SAPC   C14 3397   2.674   1.134   5.903 -0.5072  0.0283 -0.0940
   26SAPC  H14A 3398   2.696   1.076   5.991 -1.4831 -1.0283 -0.5315
   26SAPC  H14B 3399   2.606   1.079   5.841 -0.5452 -0.2408  0.1860
   26SAPC  H14C 3400   2.769   1.142   5.853 -0.4823  1.3481  0.1167
   26SAPC   C15 3401   2.467   1.228   5.965  0.0181 -0.0649 -0.2114
   26SAPC  H15A 3402   2.461   1.149   6.039 -0.5796  1.0085  0.9301
   26SAPC  H15B 3403   2.413   1.307   6.016 -1.5203 -0.9295 -0.4731
   26SAPC  H15C 3404   2.408   1.205   5.878 -0.5597  1.1678 -0.1602
   26SAPC   C11 3405   2.617   1.467   6.116  0.7706 -0.0845 -0.1788
   26SAPC  H11A 3406   2.534   1.430   6.179  0.1578  0.0564 -0.8953
   26SAPC  H11B 3407   2.571   1.536   6.043 -0.2970  1.0198  1.4785
   26SAPC     P 3408   2.828   1.622   6.148 -0.2822 -0.2800 -0.4092
   26SAPC   O13 3409   2.908   1.566   6.039  0.1328  0.0159  0.1444
   26SAPC   O14 3410   2.757   1.744   6.111 -0.1453 -0.4904 -0.1909
   26SAPC   O12 3411   2.718   1.515   6.197  0.0122 -0.3418  0.2825
   26SAPC   O11 3412   2.910   1.660   6.278 -0.1666 -0.2648  0.1230
   26SAPC    C1 3413   2.978   1.557   6.352 -1.2576  0.2150 -0.2238
   26SAPC    HA 3414   2.949   1.454   6.324  0.8846 -0.7636  0.8756
   26SAPC    HB 3415   3.088   1.562   6.335 -1.0542 -2.3609 -0.0727
   26SAPC    C2 3416   2.954   1.578   6.506  0.0121  0.1489  0.2477
   26SAPC    HS 3417   2.843   1.576   6.516 -0.1335 -0.9846 -1.2426
   26SAPC   O21 3418   3.008   1.704   6.554 -0.1917 -0.5833 -0.5275
   26SAPC   C21 3419   2.930   1.756   6.658 -0.1802 -0.6532 -0.8671
   26SAPC   O22 3420   2.830   1.711   6.702  0.4139 -1.0468 -0.4060
   26SAPC   C22 3421   3.001   1.883   6.718  0.7418  0.7936  0.2266
   26SAPC   H2R 3422   3.003   1.962   6.640  0.9921  1.9522  1.3639
   26SAPC   H2S 3423   2.926   1.904   6.797  0.2914 -2.5021  0.8472
   26SAPC    C3 3424   3.013   1.454   6.577  0.8815  0.2246 -0.9543
   26SAPC    HX 3425   3.120   1.437   6.555  0.4680 -0.2289 -2.8606
   26SAPC    HY 3426   2.963   1.364   6.536  0.5665  0.8195 -1.9186
   26SAPC   O31 3427   2.995   1.461   6.723  0.9352 -0.1793  0.2329
   26SAPC   C31 3428   2.890   1.408   6.778 -0.2888 -0.3092  0.2712
   26SAPC   O32 3429   2.818   1.327   6.723 -0.1637 -0.0152  0.3367
   26SAPC   C32 3430   2.872   1.449   6.924  0.2912 -0.3857  0.2574
   26SAPC   H2X 3431   2.878   1.560   6.933 -0.7535 -0.1367 -1.6106
   26SAPC   H2Y 3432   2.944   1.396   6.991  0.7442 -0.1000  0.0030
   26SAPC   C23 3433   3.139   1.846   6.773  0.5470  0.1266  0.7589
   26SAPC   H3R 3434   3.188   1.946   6.780  0.0610  0.7145 -2.4128
   26SAPC   H3S 3435   3.193   1.792   6.692 -2.5828 -2.7255  0.3472
   26SAPC   C24 3436   3.152   1.777   6.911 -0.1719 -0.6866 -0.1420
   26SAPC   H4R 3437   3.261   1.765   6.929  0.1955  1.5613 -0.5669
   26SAPC   H4S 3438   3.123   1.670   6.915 -0.6110 -0.5433  0.6647
   26SAPC   C25 3439   3.091   1.846   7.034  0.5122 -0.4830  0.0159
   26SAPC   H5R 3440   3.030   1.936   7.017 -0.8585 -1.5509 -0.9257
   26SAPC   C26 3441   3.097   1.795   7.161  0.9906  0.2894  0.3170
   26SAPC   H6R 3442   3.055   1.851   7.245 -0.5109  0.4058 -0.4744
   26SAPC   C27 3443   3.157   1.667   7.197 -0.3755  0.8630 -0.0784
   26SAPC   H7R 3444   3.239   1.683   7.270  0.1348 -1.8353  0.0700
   26SAPC   H7S 3445   3.213   1.624   7.112 -0.7406 -0.2671  0.2232
   26SAPC   C28 3446   3.066   1.552   7.243  0.7832  0.0179 -0.3320
   26SAPC   H8R 3447   3.018   1.488   7.168  0.2604  0.3363 -0.2765
   26SAPC   C29 3448   3.045   1.529   7.378  0.6518 -0.0551  0.6899
   26SAPC   H9R 3449   2.989   1.438   7.405 -1.2653  0.5825 -0.8738
   26SAPC  C210 3450   3.106   1.599   7.498 -0.6023 -0.6957  0.0305
   26SAPC  H10R 3451   3.214   1.617   7.479 -0.9961 -0.8323 -2.5870
   26SAPC  H10S 3452   3.104   1.528   7.584 -0.4346 -1.5528 -0.6540
   26SAPC  C211 3453   3.035   1.723   7.527 -0.6644 -0.0897  0.1810
   26SAPC  H11R 3454   2.981   1.765   7.441  2.0122 -1.8177 -2.5276
   26SAPC  C212 3455   3.027   1.783   7.649  0.3134 -0.6087  0.9850
   26SAPC  H12R 3456   2.955   1.865   7.663  0.1065 -0.3401 -1.2649
   26SAPC  C213 3457   3.099   1.737   7.778  0.7233  0.2102 -0.0493
   26SAPC  H13R 3458   3.117   1.832   7.832 -0.8491  2.7799 -3.6819
   26SAPC  H13S 3459   3.206   1.713   7.758  0.4240 -1.4648  0.2370
   26SAPC  C214 3460   3.037   1.634   7.871 -0.2232 -0.2750  0.6115
   26SAPC  H14R 3461   3.021   1.534   7.827 -0.2500 -0.5941  1.3424
   26SAPC  C215 3462   3.009   1.650   8.001  0.1164 -0.1585  0.1465
   26SAPC  H15R 3463   2.959   1.561   8.043  2.3613 -1.0830  1.0730
   26SAPC  C216 3464   3.029   1.772   8.081 -0.1196 -0.5415 -0.2542
   26SAPC  H16R 3465   2.933   1.826   8.078  1.2758  2.1695  0.7385
   26SAPC  H16S 3466   3.118   1.832   8.052  1.7819 -3.0892 -0.1520
   26SAPC  C217 3467   3.057   1.741   8.229 -0.4327 -0.4728  0.0789
   26SAPC  H17R 3468   3.149   1.679   8.228  0.6385  1.0418  0.5687
   26SAPC  H17S 3469   2.974   1.687   8.279  0.0930  0.6090  2.2171
   26SAPC  C218 3470   3.071   1.878   8.309 -0.1731  0.3333  0.1537
   26SAPC  H18R 3471   2.982   1.938   8.278 -0.1417 -0.3959 -1.4417
   26SAPC  H18S 3472   3.162   1.927   8.269  1.5564 -1.8041  1.2964
   26SAPC  C219 3473   3.100   1.863   8.459  0.1308 -0.1625 -0.2699
   26SAPC  H19R 3474   3.126   1.959   8.508 -0.2363 -0.5069  0.6021
   26SAPC  H19S 3475   3.187   1.796   8.475  0.1257  0.0847  0.8315
   26SAPC  C220 3476   2.981   1.806   8.542 -0.2269 -0.0504  0.0994
   26SAPC  H20R 3477   2.907   1.880   8.579 -0.0685 -0.0580  0.4331
   26SAPC  H20S 3478   3.016   1.735   8.619  1.7818 -0.7384 -1.3701
   26SAPC  H20T 3479   2.922   1.741   8.474  0.3366 -1.3824  0.8503
   26SAPC   C33 3480   2.728   1.411   6.967  1.0387 -0.0662 -0.9802
   26SAPC   H3X 3481   2.717   1.303   6.947  0.1781  0.1526 -1.7659
   26SAPC   H3Y 3482   2.652   1.463   6.904  0.9663  1.8493  0.5895
   26SAPC   C34 3483   2.695   1.449   7.113 -0.1811 -0.0101  0.1023
   26SAPC   H4X 3484   2.713   1.557   7.133 -0.7365  0.1414 -0.1924
   26SAPC   H4Y 3485   2.773   1.389   7.165  0.6384 -0.2882 -1.3924
   26SAPC   C35 3486   2.554   1.414   7.155  1.0670  0.0051  0.0638
   26SAPC   H5X 3487   2.520   1.315   7.116  0.7676 -0.0102  0.3528
   26SAPC   H5Y 3488   2.487   1.491   7.112 -0.2001 -0.6980  0.7049
   26SAPC   C36 3489   2.538   1.424   7.304 -0.6610  0.1284  0.3273
   26SAPC   H6X 3490   2.577   1.332   7.352  0.4448  0.8942  0.9489
   26SAPC   H6Y 3491   2.432   1.450   7.327 -0.3750  0.6636  1.0890
   26SAPC   C37 3492   2.618   1.540   7.364  0.2241  0.5297 -0.4637
   26SAPC   H7X 3493   2.594   1.634   7.309 -0.2560 -0.0921 -1.3589
   26SAPC   H7Y 3494   2.724   1.510   7.350 -0.3779 -3.5268  1.8965
   26SAPC   C38 3495   2.589   1.567   7.516 -0.0508  0.3848  0.3740
   26SAPC   H8X 3496   2.648   1.485   7.563 -0.2258 -0.2866 -0.5404
   26SAPC   H8Y 3497   2.481   1.546   7.534  0.1966 -0.1426  1.2970
   26SAPC   C39 3498   2.641   1.702   7.572 -0.2130  0.1474  0.1410
   26SAPC   H9X 3499   2.558   1.769   7.544  1.5072  1.5738 -1.8003
   26SAPC   H9Y 3500   2.736   1.716   7.516  1.8360 -1.9421  2.7779
   26SAPC  C310 3501   2.682   1.693   7.720  0.5911  0.4778  0.2846
   26SAPC  H10X 3502   2.718   1.793   7.751 -1.1706  1.0603  0.5822
   26SAPC  H10Y 3503   2.770   1.626   7.725 -0.8175 -1.6360 -1.2128
   26SAPC  C311 3504   2.560   1.657   7.811 -0.4658 -0.3941 -0.6575
   26SAPC  H11X 3505   2.523   1.557   7.780 -0.4344 -0.2273 -1.2494
   26SAPC  H11Y 3506   2.475   1.727   7.800 -0.8771 -0.4993  1.4143
   26SAPC  C312 3507   2.596   1.648   7.964 -0.5989  0.1396  0.6077
   26SAPC  H12X 3508   2.628   1.749   7.998  0.6018 -0.2672  0.7547
   26SAPC  H12Y 3509   2.673   1.568   7.979 -1.8976 -0.9115  1.8808
   26SAPC  C313 3510   2.484   1.607   8.055  0.2364 -0.0706  0.2709
   26SAPC  H13X 3511   2.469   1.497   8.062 -0.5886  0.0487  0.4511
   26SAPC  H13Y 3512   2.389   1.657   8.028 -0.7785 -2.4714 -0.8831
   26SAPC  C314 3513   2.522   1.645   8.200 -0.0774  0.1468 -0.3605
   26SAPC  H14X 3514   2.426   1.638   8.254  1.0361 -0.4907  1.6347
   26SAPC  H14Y 3515   2.558   1.750   8.207  0.5025 -0.1604  2.0569
   26SAPC  C315 3516   2.626   1.550   8.263  0.5241  0.6237  0.0492
   26SAPC  H15X 3517   2.726   1.548   8.213  0.6642  2.7226  0.1851
   26SAPC  H15Y 3518   2.589   1.445   8.258  1.5837  0.2822 -1.6317
   26SAPC  C316 3519   2.652   1.584   8.407  0.0681  0.8863  0.0754
   26SAPC  H16X 3520   2.555   1.587   8.461 -1.1843 -2.7326 -1.6103
   26SAPC  H16Y 3521   2.703   1.683   8.409  0.2136  0.8610 -1.3986
   26SAPC  C317 3522   2.727   1.472   8.475  0.6944 -0.1846  0.5051
   26SAPC  H17X 3523   2.778   1.505   8.568 -1.5381  2.1174  1.0298
   26SAPC  H17Y 3524   2.803   1.434   8.404 -0.6140 -0.3417 -0.8530
   26SAPC  C318 3525   2.649   1.348   8.510  0.2085 -0.5465 -0.7045
   26SAPC  H18X 3526   2.561   1.370   8.574 -0.9807  0.1294 -2.4858
   26SAPC  H18Y 3527   2.725   1.284   8.558 -0.5151 -0.8348  0.0898
   26SAPC  H18Z 3528   2.622   1.302   8.413  1.2123 -2.2238 -0.2321
   27SAPC     N 3529   1.956   5.661   6.558 -0.0885  0.0005  0.2192
   27SAPC   C12 3530   2.095   5.672   6.493  0.0323  0.0495  0.4068
   27SAPC  H12A 3531   2.117   5.766   6.445  1.5400 -1.2086 -1.5182
   27SAPC  H12B 3532   2.102   5.588   6.425 -2.6168 -1.4002  1.7629
   27SAPC   C13 3533   1.850   5.657   6.456 -1.3934  0.4069 -0.1361
   27SAPC  H13A 3534   1.840   5.747   6.398  2.7567  0.9046 -0.3794
   27SAPC  H13B 3535   1.866   5.580   6.382  1.0479 -1.1773  1.8545
   27SAPC  H13C 3536   1.762   5.626   6.511  0.6925 -3.2038  1.5831
   27SAPC   C14 3537   1.951   5.524   6.622  0.1165  0.2356 -0.9768
   27SAPC  H14A 3538   1.934   5.453   6.542  1.8901 -0.8250 -0.4628
   27SAPC  H14B 3539   2.035   5.502   6.686 -0.7400  0.4435  0.2585
   27SAPC  H14C 3540   1.864   5.517   6.686  1.8648  1.0512  1.6473
   27SAPC   C15 3541   1.936   5.769   6.659  0.3414  0.2226  0.2880
   27SAPC  H15A 3542   1.841   5.771   6.710 -0.4677 -1.7200 -1.0224
   27SAPC  H15B 3543   2.017   5.752   6.728 -0.5471 -0.0176  1.3008
   27SAPC  H15C 3544   1.956   5.865   6.614  1.1527  1.0038  2.1839
   27SAPC   C11 3545   2.218   5.647   6.584 -0.9376  0.2536 -0.1097
   27SAPC  H11A 3546   2.314   5.637   6.530  0.2546 -2.6076  2.2764
   27SAPC  H11B 3547   2.218   5.554   6.645 -3.2256  1.6686  2.2629
   27SAPC     P 3548   2.272   5.897   6.635 -0.2072  0.1733 -0.1294
   27SAPC   O13 3549   2.182   5.947   6.531 -0.4009 -0.1889 -0.0764
   27SAPC   O14 3550   2.283   5.981   6.750 -0.1905 -0.1388 -0.1058
   27SAPC   O12 3551   2.230   5.749   6.679 -0.0396  0.4336 -0.0505
   27SAPC   O11 3552   2.419   5.876   6.574  0.1136 -0.3158 -0.2217
   27SAPC    C1 3553   2.534   5.879   6.660 -0.3799 -0.2759 -0.2161
   27SAPC    HA 3554   2.559   5.982   6.692 -0.8029 -0.7768  1.8776
   27SAPC    HB 3555   2.517   5.830   6.759  2.6590 -0.4551  0.3036
   27SAPC    C2 3556   2.641   5.782   6.614 -0.1521  0.3267  0.3651
   27SAPC    HS 3557   2.671   5.821   6.515 -0.8173  3.3124  1.2471
   27SAPC   O21 3558   2.580   5.652   6.602 -0.3566  0.2155 -0.0392
   27SAPC   C21 3559   2.647   5.560   6.541  0.2610  0.4707  0.1620
   27SAPC   O22 3560   2.741   5.573   6.463  0.0803 -0.9166 -0.3398
   27SAPC   C22 3561   2.598   5.425   6.587  0.0469  0.3990 -0.1249
   27SAPC   H2R 3562   2.499   5.431   6.637 -0.3266  1.0496 -0.9174
   27SAPC   H2S 3563   2.577   5.366   6.496 -1.5059 -1.5969  1.4223
   27SAPC    C3 3564   2.769   5.775   6.706  0.2033 -0.3546 -0.7269
   27SAPC    HX 3565   2.807   5.879   6.698 -0.7728  0.0084 -0.8020
   27SAPC    HY 3566   2.840   5.696   6.675  1.5724  0.1171  1.0238
   27SAPC   O31 3567   2.737   5.764   6.849 -0.2387 -0.1992 -0.1830
   27SAPC   C31 3568   2.840   5.733   6.932  0.1481 -0.1119 -0.1201
   27SAPC   O32 3569   2.955   5.720   6.896  0.5555  0.3366 -0.5499
   27SAPC   C32 3570   2.800   5.736   7.076  0.0967  0.2696 -0.3623
   27SAPC   H2X 3571   2.717   5.664   7.095  0.6807  0.3660  3.2436
   27SAPC   H2Y 3572   2.769   5.839   7.103  0.0533  0.4488 -1.0793
   27SAPC   C23 3573   2.713   5.360   6.669 -0.5628  0.6175 -0.5206
   27SAPC   H3R 3574   2.817   5.364   6.630 -0.8491  1.5037 -1.2253
   27SAPC   H3S 3575   2.689   5.252   6.676  0.0371  0.5427  0.7035
   27SAPC   C24 3576   2.716   5.412   6.811 -0.2966  0.2013 -0.5445
   27SAPC   H4R 3577   2.617   5.388   6.857 -1.1050  0.3580 -2.1186
   27SAPC   H4S 3578   2.721   5.523   6.803  0.5836  0.0632 -2.1334
   27SAPC   C25 3579   2.840   5.359   6.884  0.7863 -0.0518 -0.5149
   27SAPC   H5R 3580   2.935   5.415   6.890  0.0070  1.5920 -2.3539
   27SAPC   C26 3581   2.843   5.236   6.940 -0.4339 -0.0137  0.6537
   27SAPC   H6R 3582   2.941   5.196   6.970  0.4158 -0.0472 -1.9343
   27SAPC   C27 3583   2.734   5.136   6.944 -0.3454  0.0110  0.6377
   27SAPC   H7R 3584   2.638   5.179   6.909  0.5812  0.6544 -1.2513
   27SAPC   H7S 3585   2.714   5.108   7.050 -2.3993 -1.4308 -0.0866
   27SAPC   C28 3586   2.769   5.026   6.849 -0.0201 -0.3000 -0.0006
   27SAPC   H8R 3587   2.805   5.062   6.751 -1.8878 -0.0428 -0.6301
   27SAPC   C29 3588   2.753   4.895   6.877 -0.2056  0.3731 -0.3137
   27SAPC   H9R 3589   2.784   4.825   6.798  0.3280  0.1966  0.0500
   27SAPC  C210 3590   2.701   4.839   7.007  0.6298 -0.1634 -0.3063
   27SAPC  H10R 3591   2.600   4.878   7.031  0.7493  0.1522 -0.3175
   27SAPC  H10S 3592   2.767   4.874   7.089  2.3792 -2.9908 -0.3957
   27SAPC  C211 3593   2.697   4.686   7.011 -0.1058 -0.7864 -0.1325
   27SAPC  H11R 3594   2.677   4.644   6.911 -0.8182 -0.5502 -0.0963
   27SAPC  C212 3595   2.741   4.597   7.100  0.7003 -0.5496  0.5044
   27SAPC  H12R 3596   2.733   4.491   7.072  0.3272 -0.3137 -0.3294
   27SAPC  C213 3597   2.783   4.620   7.241 -0.0372 -1.2007  0.6605
   27SAPC  H13R 3598   2.773   4.728   7.265  1.8050 -0.6485 -0.8066
   27SAPC  H13S 3599   2.893   4.603   7.249  0.2304  0.7035  1.4090
   27SAPC  C214 3600   2.712   4.548   7.342  0.0337  0.3540 -0.3086
   27SAPC  H14R 3601   2.686   4.444   7.316 -0.5691  0.2679  0.5845
   27SAPC  C215 3602   2.674   4.598   7.461 -0.1379  0.4106 -0.3999
   27SAPC  H15R 3603   2.610   4.542   7.531  0.7767 -1.0270 -0.6767
   27SAPC  C216 3604   2.689   4.742   7.520  0.0700  0.5656  0.4046
   27SAPC  H16R 3605   2.593   4.766   7.570 -0.2502  0.2470 -0.0453
   27SAPC  H16S 3606   2.714   4.817   7.441 -0.8405 -0.1206 -0.5628
   27SAPC  C217 3607   2.786   4.745   7.634 -0.2924 -0.4752  0.1159
   27SAPC  H17R 3608   2.818   4.849   7.653  1.1774 -0.7259 -0.8756
   27SAPC  H17S 3609   2.874   4.684   7.607  0.5631  1.5068 -1.7877
   27SAPC  C218 3610   2.729   4.700   7.772 -0.0188 -0.7716 -0.1985
   27SAPC  H18R 3611   2.681   4.601   7.757 -0.4145 -0.6251  0.0703
   27SAPC  H18S 3612   2.652   4.771   7.809 -1.0876 -3.4145  3.2350
   27SAPC  C219 3613   2.832   4.686   7.882  0.0639 -0.3830 -0.1066
   27SAPC  H19R 3614   2.860   4.790   7.912 -1.8480  0.0139  0.4171
   27SAPC  H19S 3615   2.919   4.628   7.844  1.7782  1.4124  0.8889
   27SAPC  C220 3616   2.786   4.616   8.010 -0.9096  0.5465 -0.4132
   27SAPC  H20R 3617   2.761   4.513   7.979  1.1101 -0.5380  1.2953
   27SAPC  H20S 3618   2.699   4.672   8.050 -1.6834 -1.2708  0.5619
   27SAPC  H20T 3619   2.861   4.610   8.092 -2.0663  0.5891  0.6935
   27SAPC   C33 3620   2.906   5.669   7.172 -0.3213 -0.1467  0.3422
   27SAPC   H3X 3621   3.008   5.713   7.167 -0.8438  1.2836  1.4703
   27SAPC   H3Y 3622   2.916   5.560   7.156  0.3850 -0.3076  1.6624
   27SAPC   C34 3623   2.866   5.701   7.315 -0.1734  0.2879  0.9216
   27SAPC   H4X 3624   2.768   5.650   7.328 -0.8765  1.5088  0.5352
   27SAPC   H4Y 3625   2.847   5.809   7.328  0.5619  0.7292 -1.2733
   27SAPC   C35 3626   2.958   5.638   7.417  0.7353  0.1685  0.4418
   27SAPC   H5X 3627   3.058   5.680   7.394  1.7201 -2.7879 -1.2753
   27SAPC   H5Y 3628   2.958   5.528   7.400 -0.2280  0.0550  1.0868
   27SAPC   C36 3629   2.917   5.656   7.556 -0.6021 -0.5555 -0.4646
   27SAPC   H6X 3630   2.880   5.760   7.561 -0.6538 -0.6329  2.1390
   27SAPC   H6Y 3631   3.012   5.661   7.613 -1.5763  1.7943  1.0750
   27SAPC   C37 3632   2.821   5.553   7.611 -0.2129 -0.3858  0.9154
   27SAPC   H7X 3633   2.853   5.448   7.628 -1.5813 -1.1575 -0.9467
   27SAPC   H7Y 3634   2.723   5.549   7.559 -0.1132 -2.8665  0.8193
   27SAPC   C38 3635   2.786   5.598   7.749 -0.6993 -0.3605  0.2559
   27SAPC   H8X 3636   2.752   5.704   7.739 -2.3715 -1.0280 -2.0601
   27SAPC   H8Y 3637   2.883   5.601   7.803 -0.0605 -1.5255 -0.7867
   27SAPC   C39 3638   2.683   5.511   7.825 -0.6667 -0.1534  0.4401
   27SAPC   H9X 3639   2.715   5.404   7.818 -0.0581  0.1105 -3.6942
   27SAPC   H9Y 3640   2.584   5.512   7.774 -0.3801  1.1467 -0.1255
   27SAPC  C310 3641   2.667   5.556   7.973  1.2923  0.0195 -0.0089
   27SAPC  H10X 3642   2.562   5.526   7.997  0.6975  0.1190 -2.2284
   27SAPC  H10Y 3643   2.668   5.667   7.980  0.2844 -0.0245  1.3084
   27SAPC  C311 3644   2.772   5.511   8.070 -0.0813 -0.3407 -0.3631
   27SAPC  H11X 3645   2.874   5.554   8.063  0.7625 -2.1419  0.0734
   27SAPC  H11Y 3646   2.783   5.401   8.059  0.3759 -0.4822  1.1665
   27SAPC  C312 3647   2.730   5.535   8.217 -0.0976 -0.2743  0.6814
   27SAPC  H12X 3648   2.623   5.507   8.214 -1.1709  3.1438  1.8163
   27SAPC  H12Y 3649   2.722   5.645   8.232  1.4110  0.2233 -1.6553
   27SAPC  C313 3650   2.801   5.459   8.327 -0.6573  0.5785 -0.0518
   27SAPC  H13X 3651   2.884   5.525   8.361  1.8173 -2.2288 -0.2149
   27SAPC  H13Y 3652   2.845   5.365   8.287  0.4642  0.0884  2.1360
   27SAPC  C314 3653   2.711   5.430   8.446 -0.6890  0.6081 -0.4272
   27SAPC  H14X 3654   2.632   5.360   8.412  1.1847 -1.6439 -0.3647
   27SAPC  H14Y 3655   2.667   5.523   8.489 -2.6131 -0.7682  0.7661
   27SAPC  C315 3656   2.780   5.354   8.559  0.1173 -0.4004  0.2316
   27SAPC  H15X 3657   2.854   5.421   8.606 -0.0543 -0.9121  1.2676
   27SAPC  H15Y 3658   2.842   5.273   8.516  0.2483  0.0504 -0.4265
   27SAPC  C316 3659   2.680   5.313   8.670 -0.0706  0.0322 -0.0547
   27SAPC  H16X 3660   2.597   5.246   8.641  0.3994 -0.7511  0.3596
   27SAPC  H16Y 3661   2.624   5.404   8.701 -0.8823 -1.3955  3.0465
   27SAPC  C317 3662   2.751   5.266   8.788  0.2372  0.4861  0.1088
   27SAPC  H17X 3663   2.679   5.237   8.868  0.6164  1.2111  0.7192
   27SAPC  H17Y 3664   2.821   5.343   8.825 -1.5030  1.6416  1.1376
   27SAPC  C318 3665   2.839   5.144   8.758 -0.7829 -0.3978  0.1519
   27SAPC  H18X 3666   2.856   5.094   8.856 -0.5064 -1.7824 -0.5720
   27SAPC  H18Y 3667   2.933   5.181   8.712 -1.7936 -0.8780 -2.4933
   27SAPC  H18Z 3668   2.789   5.080   8.682 -0.9161 -0.9838  0.7251
   28SAPC     N 3669   1.369   5.392   6.338 -0.3883 -1.0664  0.2689
   28SAPC   C12 3670   1.459   5.327   6.227  0.2286  0.6386  0.2799
   28SAPC  H12A 3671   1.430   5.367   6.131  1.8565  1.3977  0.0694
   28SAPC  H12B 3672   1.438   5.221   6.228  0.7996  0.5252  0.1125
   28SAPC   C13 3673   1.226   5.379   6.300 -0.4490 -0.1626  0.2369
   28SAPC  H13A 3674   1.194   5.426   6.208  2.4027  0.6402 -0.4411
   28SAPC  H13B 3675   1.209   5.273   6.300  0.8117 -0.3904 -0.4839
   28SAPC  H13C 3676   1.160   5.429   6.370  0.3755 -0.1202  0.9992
   28SAPC   C14 3677   1.391   5.327   6.468  0.9740 -0.3264 -0.1817
   28SAPC  H14A 3678   1.497   5.311   6.479  1.1406 -1.6939 -2.9801
   28SAPC  H14B 3679   1.353   5.386   6.550  1.8046  1.0219 -0.7444
   28SAPC  H14C 3680   1.356   5.224   6.467  2.8341 -1.0002  0.6066
   28SAPC   C15 3681   1.403   5.540   6.355 -0.2134  0.4688 -0.4727
   28SAPC  H15A 3682   1.328   5.573   6.425 -2.2909  0.2032 -2.4728
   28SAPC  H15B 3683   1.503   5.545   6.396  0.3453 -0.6232 -1.6343
   28SAPC  H15C 3684   1.391   5.598   6.264 -0.1248  1.2960  0.0274
   28SAPC   C11 3685   1.610   5.342   6.248 -0.6724 -0.2205  0.1663
   28SAPC  H11A 3686   1.645   5.447   6.261 -0.5878 -0.2985  0.6017
   28SAPC  H11B 3687   1.653   5.315   6.149 -0.9177 -1.5420  0.4071
   28SAPC     P 3688   1.799   5.212   6.377 -0.2081  0.2511 -0.2136
   28SAPC   O13 3689   1.838   5.107   6.283 -0.0566 -0.0659 -0.1289
   28SAPC   O14 3690   1.886   5.333   6.386 -0.2175  0.6467  0.2541
   28SAPC   O12 3691   1.642   5.250   6.353  0.2570  0.2938  0.5891
   28SAPC   O11 3692   1.803   5.140   6.517  0.4980 -0.0655  0.4201
   28SAPC    C1 3693   1.689   5.152   6.600  0.2725  0.4118  0.8707
   28SAPC    HA 3694   1.644   5.253   6.595 -2.0036 -0.5722 -1.6600
   28SAPC    HB 3695   1.610   5.083   6.561 -0.8496  2.2038 -0.1491
   28SAPC    C2 3696   1.719   5.093   6.745  0.0289 -0.1204  0.1475
   28SAPC    HS 3697   1.623   5.039   6.763 -0.4629  0.3001 -1.0909
   28SAPC   O21 3698   1.758   5.204   6.828  0.1647 -0.0293  0.1837
   28SAPC   C21 3699   1.656   5.278   6.872 -0.1257  0.8079  0.4806
   28SAPC   O22 3700   1.540   5.256   6.847 -0.0262 -0.2313 -0.4044
   28SAPC   C22 3701   1.722   5.376   6.969  0.5300  0.1473 -0.1072
   28SAPC   H2R 3702   1.779   5.313   7.040  1.6204 -1.5288 -2.3239
   28SAPC   H2S 3703   1.788   5.444   6.911 -0.0251  0.9651  0.2104
   28SAPC    C3 3704   1.829   4.984   6.753  0.0272 -0.2700 -0.6357
   28SAPC    HX 3705   1.924   5.039   6.767 -1.1751  2.2922 -1.7472
   28SAPC    HY 3706   1.837   4.935   6.654 -0.9101  0.2995 -1.0097
   28SAPC   O31 3707   1.793   4.880   6.848 -0.1222  0.0951 -0.3489
   28SAPC   C31 3708   1.868   4.768   6.845  0.2380 -0.9586  0.2419
   28SAPC   O32 3709   1.965   4.758   6.769  0.2611 -0.0512  0.0074
   28SAPC   C32 3710   1.822   4.674   6.957 -0.2942  0.7475 -0.8463
   28SAPC   H2X 3711   1.723   4.632   6.929  0.1634 -0.9747 -0.0303
   28SAPC   H2Y 3712   1.823   4.734   7.051  0.2972 -0.9106  0.2401
   28SAPC   C23 3713   1.616   5.461   7.037 -0.4441 -0.2303 -0.2799
   28SAPC   H3R 3714   1.548   5.399   7.099  3.1765 -1.4185  2.8956
   28SAPC   H3S 3715   1.554   5.515   6.962  0.3549  0.2106 -0.6396
   28SAPC   C24 3716   1.692   5.557   7.137  0.7807 -0.4666  0.5540
   28SAPC   H4R 3717   1.762   5.620   7.080 -1.2612  1.3087 -0.1360
   28SAPC   H4S 3718   1.616   5.633   7.166 -1.3873 -1.2450 -2.5706
   28SAPC   C25 3719   1.753   5.489   7.253  0.6229 -0.3784  0.2917
   28SAPC   H5R 3720   1.687   5.462   7.336  1.6149  1.2181  1.6882
   28SAPC   C26 3721   1.882   5.474   7.277  0.2448 -0.0584  0.5865
   28SAPC   H6R 3722   1.918   5.420   7.366  1.0040  0.7748  0.8072
   28SAPC   C27 3723   1.998   5.525   7.190  0.1775 -0.1105  0.7115
   28SAPC   H7R 3724   2.072   5.570   7.260  0.1949 -1.1264  1.3761
   28SAPC   H7S 3725   1.968   5.610   7.126  1.3221 -0.4694 -0.3433
   28SAPC   C28 3726   2.067   5.416   7.099 -0.1411 -0.6137 -0.4173
   28SAPC   H8R 3727   2.013   5.375   7.012  1.8279  0.4460 -2.2279
   28SAPC   C29 3728   2.201   5.379   7.111  0.4393  0.9879 -0.3696
   28SAPC   H9R 3729   2.241   5.305   7.039 -0.8821 -0.3918  0.2567
   28SAPC  C210 3730   2.302   5.432   7.201 -0.5507 -0.0241  0.0481
   28SAPC  H10R 3731   2.333   5.360   7.279  2.5898  1.4920  0.3516
   28SAPC  H10S 3732   2.268   5.522   7.256 -0.6012  0.1795 -0.3115
   28SAPC  C211 3733   2.430   5.464   7.123  1.3064 -0.2307 -0.5294
   28SAPC  H11R 3734   2.419   5.516   7.027 -0.7903 -1.8951 -1.2508
   28SAPC  C212 3735   2.550   5.433   7.160 -0.4838  0.1553 -0.1759
   28SAPC  H12R 3736   2.634   5.458   7.094  0.4109  2.0526  1.5635
   28SAPC  C213 3737   2.599   5.357   7.286 -0.5595  0.0300 -0.3641
   28SAPC  H13R 3738   2.524   5.376   7.365 -1.2783 -0.7900 -0.8327
   28SAPC  H13S 3739   2.695   5.398   7.323 -0.4392  0.8824 -1.5606
   28SAPC  C214 3740   2.610   5.204   7.279 -0.3541 -0.2636 -0.2807
   28SAPC  H14R 3741   2.553   5.157   7.198 -1.1293 -0.0442  0.1213
   28SAPC  C215 3742   2.698   5.126   7.347  0.2708 -0.0877  0.7314
   28SAPC  H15R 3743   2.689   5.019   7.322  1.7466  0.4748 -2.7895
   28SAPC  C216 3744   2.807   5.160   7.445  0.4551 -0.2296  0.3715
   28SAPC  H16R 3745   2.825   5.270   7.445 -1.1391  0.0578  0.0412
   28SAPC  H16S 3746   2.897   5.103   7.413 -0.1882 -0.7890 -0.4586
   28SAPC  C217 3747   2.772   5.123   7.584  0.0443  0.2143  0.2526
   28SAPC  H17R 3748   2.706   5.034   7.585 -0.5341  0.4896 -3.0179
   28SAPC  H17S 3749   2.707   5.199   7.632 -0.5206 -0.1166  0.0128
   28SAPC  C218 3750   2.897   5.107   7.667  0.6811  0.5058 -0.9918
   28SAPC  H18R 3751   2.961   5.197   7.658  0.1504  0.9332 -0.5731
   28SAPC  H18S 3752   2.957   5.020   7.631  1.3472 -0.3287  1.8595
   28SAPC  C219 3753   2.871   5.098   7.815  0.7191  0.0214 -0.3967
   28SAPC  H19R 3754   2.818   5.002   7.832  1.6971 -0.6017 -0.7319
   28SAPC  H19S 3755   2.810   5.183   7.853 -0.1311 -0.8326  0.1743
   28SAPC  C220 3756   2.999   5.092   7.899 -0.5487  0.3403  0.0404
   28SAPC  H20R 3757   2.968   5.090   8.006 -0.1120 -1.1068  0.1540
   28SAPC  H20S 3758   3.063   5.183   7.895  0.8779 -0.6972 -2.4331
   28SAPC  H20T 3759   3.062   5.002   7.884 -1.3419 -0.2339  0.0756
   28SAPC   C33 3760   1.912   4.546   6.972 -0.5143 -0.1215  0.0386
   28SAPC   H3X 3761   2.018   4.578   6.958  0.0253 -1.9897 -0.3673
   28SAPC   H3Y 3762   1.885   4.480   6.888 -1.6702  1.1629 -0.6339
   28SAPC   C34 3763   1.903   4.474   7.111 -0.5073 -0.0028  0.0112
   28SAPC   H4X 3764   1.968   4.385   7.102  1.1062  1.2264 -1.1314
   28SAPC   H4Y 3765   1.803   4.436   7.141 -0.7131  1.3700  1.1608
   28SAPC   C35 3766   1.964   4.554   7.225 -0.2615  0.3317 -0.1431
   28SAPC   H5X 3767   1.916   4.654   7.235 -0.7988 -0.0735  1.5765
   28SAPC   H5Y 3768   2.068   4.585   7.201 -0.3616  0.1203 -0.8943
   28SAPC   C36 3769   1.977   4.488   7.361 -0.1221 -0.5920 -0.7247
   28SAPC   H6X 3770   2.026   4.391   7.339 -0.6269 -2.2602  4.2686
   28SAPC   H6Y 3771   1.877   4.474   7.406  0.4305  1.5005  1.4061
   28SAPC   C37 3772   2.072   4.562   7.464 -0.1749 -1.1700  0.4451
   28SAPC   H7X 3773   2.038   4.658   7.508  1.9366 -0.1740  0.0418
   28SAPC   H7Y 3774   2.167   4.578   7.408  0.2240 -2.5011  0.7113
   28SAPC   C38 3775   2.113   4.486   7.590 -0.2556 -0.1157  0.0310
   28SAPC   H8X 3776   2.179   4.404   7.554 -0.9151 -0.1157 -1.2388
   28SAPC   H8Y 3777   2.027   4.433   7.637  0.0106 -0.9285 -0.3802
   28SAPC   C39 3778   2.198   4.570   7.687  0.3697  0.3503  0.2414
   28SAPC   H9X 3779   2.131   4.656   7.710 -1.8644 -1.7884  2.3815
   28SAPC   H9Y 3780   2.290   4.612   7.642  0.3945 -0.2967 -0.3242
   28SAPC  C310 3781   2.232   4.507   7.819  0.2987  0.2222  0.4580
   28SAPC  H10X 3782   2.275   4.404   7.817 -1.8430 -0.7355  0.5408
   28SAPC  H10Y 3783   2.140   4.490   7.880  0.8808 -0.1095  1.2664
   28SAPC  C311 3784   2.326   4.589   7.900 -0.2826  0.0046  1.2340
   28SAPC  H11X 3785   2.433   4.578   7.869  0.2505  1.5872  2.4074
   28SAPC  H11Y 3786   2.316   4.547   8.002 -1.2941 -2.0993  0.3431
   28SAPC  C312 3787   2.304   4.744   7.918 -0.2101  0.5997 -0.3769
   28SAPC  H12X 3788   2.200   4.752   7.955 -0.1520 -3.5097  1.1673
   28SAPC  H12Y 3789   2.308   4.791   7.817  1.3856 -0.3346 -0.7790
   28SAPC  C313 3790   2.407   4.815   8.011 -0.3487  0.0116 -0.1603
   28SAPC  H13X 3791   2.492   4.847   7.947 -0.4003  2.6810  1.0067
   28SAPC  H13Y 3792   2.456   4.750   8.087 -0.6338  0.6904  0.6254
   28SAPC  C314 3793   2.353   4.944   8.079 -0.5406  0.0108  0.2568
   28SAPC  H14X 3794   2.270   4.925   8.151  0.4539  1.4944  1.8686
   28SAPC  H14Y 3795   2.297   5.003   8.004 -0.2331 -2.2520 -1.8984
   28SAPC  C315 3796   2.470   5.018   8.149 -0.0835  0.1663  0.0081
   28SAPC  H15X 3797   2.424   5.106   8.198 -2.6430 -0.7535 -0.5788
   28SAPC  H15Y 3798   2.538   5.058   8.071  1.3753 -0.9225  0.6852
   28SAPC  C316 3799   2.546   4.935   8.251  0.8480  0.2153 -0.3257
   28SAPC  H16X 3800   2.572   4.838   8.204 -1.6918 -1.0935  0.7939
   28SAPC  H16Y 3801   2.484   4.915   8.341  0.7272 -2.5596 -0.9349
   28SAPC  C317 3802   2.674   5.010   8.304 -0.0359  0.4962  0.0971
   28SAPC  H17X 3803   2.724   4.931   8.364 -0.8113  1.6194  2.3226
   28SAPC  H17Y 3804   2.653   5.097   8.370 -0.7234  1.7716 -1.7322
   28SAPC  C318 3805   2.769   5.049   8.189  0.0916  0.7120  0.1368
   28SAPC  H18X 3806   2.706   5.119   8.130 -0.9055  1.8673  2.4496
   28SAPC  H18Y 3807   2.800   4.967   8.120 -1.4085  0.3829 -0.1743
   28SAPC  H18Z 3808   2.851   5.109   8.234  0.1336  0.3562  0.5421
   29SAPC     N 3809   2.473   1.818   6.354 -0.3936 -0.2823 -0.0050
   29SAPC   C12 3810   2.390   1.829   6.227  0.2564  0.1300 -0.2835
   29SAPC  H12A 3811   2.457   1.783   6.156 -0.1465 -0.8814 -0.0324
   29SAPC  H12B 3812   2.362   1.933   6.216 -1.5657 -0.2534  0.3440
   29SAPC   C13 3813   2.606   1.878   6.332 -0.2596  0.4933  0.3467
   29SAPC  H13A 3814   2.667   1.829   6.257  2.1813 -0.8206  3.0072
   29SAPC  H13B 3815   2.597   1.979   6.296  1.3106  0.4509 -0.2189
   29SAPC  H13C 3816   2.668   1.878   6.420  2.4693 -2.4262 -1.3663
   29SAPC   C14 3817   2.407   1.889   6.467  0.4435 -0.4586 -0.1749
   29SAPC  H14A 3818   2.458   1.877   6.561  1.1209 -0.0403 -0.4831
   29SAPC  H14B 3819   2.405   1.995   6.447 -0.0216 -0.7184 -1.6169
   29SAPC  H14C 3820   2.306   1.851   6.475  0.3812 -0.0371  1.2529
   29SAPC   C15 3821   2.503   1.674   6.386 -0.4717 -0.1565  0.6543
   29SAPC  H15A 3822   2.558   1.625   6.307 -1.7635  0.0916 -0.4322
   29SAPC  H15B 3823   2.566   1.669   6.474  0.5685  0.6876 -0.0193
   29SAPC  H15C 3824   2.417   1.613   6.407 -1.3642  1.2347  1.1595
   29SAPC   C11 3825   2.263   1.748   6.229  0.2891  0.0211  0.3469
   29SAPC  H11A 3826   2.289   1.640   6.243  2.0953  0.2284 -0.9979
   29SAPC  H11B 3827   2.221   1.746   6.127  1.4019  0.3951 -0.1355
   29SAPC     P 3828   2.049   1.717   6.368  0.3368  0.3980 -0.0275
   29SAPC   O13 3829   1.930   1.774   6.304  0.4855  0.6382  0.0228
   29SAPC   O14 3830   2.075   1.572   6.362 -0.3694 -0.0561  0.8354
   29SAPC   O12 3831   2.177   1.795   6.325 -0.1651 -0.3588 -0.1546
   29SAPC   O11 3832   2.042   1.763   6.517 -0.2215 -0.0081  0.1008
   29SAPC    C1 3833   2.124   1.703   6.618  0.2558  0.0968  0.0588
   29SAPC    HA 3834   2.221   1.662   6.583 -0.9504 -2.8955 -0.0468
   29SAPC    HB 3835   2.156   1.787   6.684 -0.5411  0.6280 -0.2255
   29SAPC    C2 3836   2.056   1.584   6.693 -0.7960 -0.4226 -0.7246
   29SAPC    HS 3837   2.035   1.503   6.620 -0.9974 -1.6021  0.5954
   29SAPC   O21 3838   1.929   1.638   6.738  0.4611  0.1337 -0.1069
   29SAPC   C21 3839   1.827   1.550   6.754 -1.0914 -1.1944  0.2763
   29SAPC   O22 3840   1.839   1.432   6.748 -0.1646  0.2682  0.2714
   29SAPC   C22 3841   1.698   1.630   6.792  0.4268 -0.2441 -0.0759
   29SAPC   H2R 3842   1.709   1.735   6.825 -1.1230  0.5305 -1.8123
   29SAPC   H2S 3843   1.623   1.634   6.710  1.2776 -0.5062 -0.8930
   29SAPC    C3 3844   2.132   1.537   6.819  0.0427  0.1620 -0.0163
   29SAPC    HX 3845   2.228   1.487   6.793  0.0306  0.5062 -0.7454
   29SAPC    HY 3846   2.073   1.458   6.871  1.0539 -1.1000 -0.7240
   29SAPC   O31 3847   2.149   1.633   6.911 -0.5507 -0.0514  0.1727
   29SAPC   C31 3848   2.263   1.699   6.931  0.1727 -0.5375 -1.0681
   29SAPC   O32 3849   2.364   1.686   6.871  0.1062 -0.0314 -0.2482
   29SAPC   C32 3850   2.243   1.806   7.031 -0.4012  0.5196  0.8653
   29SAPC   H2X 3851   2.159   1.862   6.985  0.2195  0.6003 -0.2008
   29SAPC   H2Y 3852   2.331   1.873   7.028 -0.5490  0.6718 -0.3512
   29SAPC   C23 3853   1.620   1.543   6.889 -0.8906  0.1657  0.2591
   29SAPC   H3R 3854   1.673   1.541   6.986  0.8264  1.6452 -0.5846
   29SAPC   H3S 3855   1.621   1.439   6.850 -1.5367  0.4740 -0.6111
   29SAPC   C24 3856   1.474   1.573   6.892 -0.0645 -0.6808  0.2133
   29SAPC   H4R 3857   1.401   1.504   6.940 -1.8908 -1.5295 -3.3982
   29SAPC   H4S 3858   1.452   1.566   6.783  0.0968  0.7256  0.0664
   29SAPC   C25 3859   1.455   1.714   6.947 -0.0488 -0.2833 -0.1273
   29SAPC   H5R 3860   1.525   1.787   6.903  0.4874 -1.3382 -1.0976
   29SAPC   C26 3861   1.367   1.762   7.035  0.1375  0.0868 -0.8186
   29SAPC   H6R 3862   1.387   1.866   7.066  1.3998 -0.7966  1.5450
   29SAPC   C27 3863   1.257   1.688   7.101 -0.5653 -0.9165  0.2110
   29SAPC   H7R 3864   1.299   1.621   7.180  1.1957  0.5273  0.5766
   29SAPC   H7S 3865   1.217   1.609   7.033  1.6205 -0.9888 -1.0957
   29SAPC   C28 3866   1.156   1.787   7.158  0.2042  0.1091 -0.6213
   29SAPC   H8R 3867   1.122   1.867   7.090 -1.6590  0.5110  0.6992
   29SAPC   C29 3868   1.104   1.778   7.288 -0.2417  0.1268  0.2478
   29SAPC   H9R 3869   1.026   1.849   7.318 -2.7612 -0.7498 -3.5657
   29SAPC  C210 3870   1.142   1.675   7.391 -0.4063 -0.1639 -0.5344
   29SAPC  H10R 3871   1.196   1.586   7.352  0.6087  1.3988 -2.8967
   29SAPC  H10S 3872   1.050   1.636   7.441  0.7560 -0.1207  1.7520
   29SAPC  C211 3873   1.239   1.736   7.494  0.0615 -0.1938 -0.0392
   29SAPC  H11R 3874   1.327   1.797   7.470  0.9867 -1.3482  0.2981
   29SAPC  C212 3875   1.211   1.728   7.627  0.0210  0.5756 -0.8931
   29SAPC  H12R 3876   1.288   1.764   7.698 -0.8219 -2.0588  1.5341
   29SAPC  C213 3877   1.096   1.656   7.689 -0.3268 -0.4928  0.1689
   29SAPC  H13R 3878   1.024   1.600   7.625  1.2483 -1.8943 -0.4510
   29SAPC  H13S 3879   1.027   1.730   7.736  0.0178  0.3111 -0.5652
   29SAPC  C214 3880   1.127   1.555   7.789 -0.2867  0.5423  0.0830
   29SAPC  H14R 3881   1.105   1.452   7.759  1.0837  0.7902 -1.9350
   29SAPC  C215 3882   1.177   1.586   7.914  0.1832 -0.1539 -0.3037
   29SAPC  H15R 3883   1.212   1.514   7.990  0.2773 -0.8235 -0.9789
   29SAPC  C216 3884   1.198   1.736   7.965 -0.5859  0.6772  0.7415
   29SAPC  H16R 3885   1.160   1.816   7.898  0.9139  0.6930 -0.1434
   29SAPC  H16S 3886   1.309   1.743   7.960 -0.5393 -0.5913 -1.3634
   29SAPC  C217 3887   1.165   1.746   8.118 -0.1621 -0.7639 -0.1083
   29SAPC  H17R 3888   1.214   1.841   8.148  0.5727 -0.9612 -0.6540
   29SAPC  H17S 3889   1.217   1.668   8.178 -1.5637 -0.5443  1.4718
   29SAPC  C218 3890   1.016   1.737   8.138 -0.2227  0.1560 -0.4409
   29SAPC  H18R 3891   0.973   1.651   8.082 -1.3425 -0.2585  0.9894
   29SAPC  H18S 3892   0.964   1.823   8.090  0.4091 -1.1116 -3.6214
   29SAPC  C219 3893   0.989   1.735   8.284  0.5293  0.2692  0.2877
   29SAPC  H19R 3894   1.033   1.824   8.334  1.2835 -0.1617  0.4006
   29SAPC  H19S 3895   1.044   1.651   8.332  4.1298  1.4979 -1.3291
   29SAPC  C220 3896   0.838   1.729   8.299 -0.7354  0.1885 -0.6137
   29SAPC  H20R 3897   0.817   1.702   8.404 -0.2234 -0.7674 -0.7524
   29SAPC  H20S 3898   0.790   1.658   8.228 -0.2207 -1.1310  0.3235
   29SAPC  H20T 3899   0.789   1.827   8.278  0.6215  0.7447 -1.3266
   29SAPC   C33 3900   2.211   1.745   7.161  0.0261  0.2504 -0.5090
   29SAPC   H3X 3901   2.303   1.691   7.191  0.4617  0.4171 -1.5300
   29SAPC   H3Y 3902   2.133   1.666   7.154 -2.0255  2.1927 -0.8192
   29SAPC   C34 3903   2.172   1.834   7.278  0.1444  0.3290 -0.1702
   29SAPC   H4X 3904   2.163   1.790   7.380  1.6124  1.8632  0.6724
   29SAPC   H4Y 3905   2.066   1.857   7.258 -0.6621 -0.4380  2.6779
   29SAPC   C35 3906   2.252   1.967   7.282 -1.4937 -0.6011  0.4565
   29SAPC   H5X 3907   2.237   2.019   7.185  1.7113 -1.5956 -0.7010
   29SAPC   H5Y 3908   2.360   1.948   7.301 -1.3325  0.3403  0.5202
   29SAPC   C36 3909   2.206   2.067   7.392 -0.4080  0.2400  0.4649
   29SAPC   H6X 3910   2.253   2.165   7.366  0.9435 -0.2688  0.8657
   29SAPC   H6Y 3911   2.243   2.045   7.495 -2.6311  1.9624  1.7390
   29SAPC   C37 3912   2.057   2.100   7.385  0.1066 -0.0119  0.2559
   29SAPC   H7X 3913   2.002   2.004   7.398 -3.0924  1.4980 -1.0693
   29SAPC   H7Y 3914   2.033   2.126   7.280  0.6753 -1.6124 -0.2978
   29SAPC   C38 3915   2.013   2.204   7.485  0.1158  0.2534  0.1491
   29SAPC   H8X 3916   1.910   2.237   7.461  0.4270  1.4147  0.3585
   29SAPC   H8Y 3917   2.078   2.293   7.473  1.1237 -0.2136  1.7442
   29SAPC   C39 3918   2.032   2.178   7.635  0.2172  0.1509  0.1698
   29SAPC   H9X 3919   2.137   2.157   7.665 -0.0299  0.4259  1.2860
   29SAPC   H9Y 3920   1.973   2.086   7.656 -0.0918  0.6473  1.6008
   29SAPC  C310 3921   1.975   2.283   7.725  1.1135 -0.2717  0.1785
   29SAPC  H10X 3922   1.874   2.316   7.692  0.1697 -2.0121  1.1691
   29SAPC  H10Y 3923   2.037   2.375   7.723  0.5281  0.1757  1.3457
   29SAPC  C311 3924   1.965   2.234   7.873 -0.7208 -0.3508  1.5518
   29SAPC  H11X 3925   1.960   2.328   7.931 -0.9438 -0.2944  1.4429
   29SAPC  H11Y 3926   2.061   2.183   7.896  0.7454  2.6463  2.5833
   29SAPC  C312 3927   1.865   2.123   7.903  0.5191 -0.4415  0.1631
   29SAPC  H12X 3928   1.889   2.033   7.842 -1.0852 -2.0084  1.7429
   29SAPC  H12Y 3929   1.758   2.149   7.898  0.7406  0.5030  0.1166
   29SAPC  C313 3930   1.886   2.074   8.049 -0.2086 -0.2651  0.3740
   29SAPC  H13X 3931   1.995   2.078   8.071 -0.8442  0.6036  4.1735
   29SAPC  H13Y 3932   1.862   1.966   8.054 -0.0818 -0.3126 -0.0391
   29SAPC  C314 3933   1.785   2.140   8.143 -0.3411  0.0588 -0.1767
   29SAPC  H14X 3934   1.681   2.133   8.106  0.2652  2.1557 -2.5513
   29SAPC  H14Y 3935   1.810   2.248   8.141  0.3507 -0.0802  0.3372
   29SAPC  C315 3936   1.808   2.071   8.278 -0.6639  0.1474 -0.2553
   29SAPC  H15X 3937   1.903   2.119   8.309 -3.0460  3.6305  2.3977
   29SAPC  H15Y 3938   1.818   1.961   8.273 -0.8659  0.1658 -1.7886
   29SAPC  C316 3939   1.699   2.111   8.381  0.4050 -0.0110 -0.3923
   29SAPC  H16X 3940   1.601   2.107   8.327  0.2142  2.6001 -0.3546
   29SAPC  H16Y 3941   1.708   2.218   8.410 -0.3561 -0.1528  0.3934
   29SAPC  C317 3942   1.683   2.029   8.510 -0.2327 -0.0126  0.0782
   29SAPC  H17X 3943   1.785   2.021   8.554  0.2189 -0.0208 -0.9439
   29SAPC  H17Y 3944   1.655   1.926   8.478 -2.6179  0.2885  0.9867
   29SAPC  C318 3945   1.577   2.088   8.612 -0.1770 -0.0227  0.7130
   29SAPC  H18X 3946   1.615   2.186   8.647 -2.0023  0.5296  1.2483
   29SAPC  H18Y 3947   1.562   2.020   8.700 -0.1070  0.3779  1.0370
   29SAPC  H18Z 3948   1.477   2.091   8.565  0.6896 -1.6281 -1.4029
   30SAPC     N 3949   5.366   4.911   5.626  0.3201 -0.7004  1.3064
   30SAPC   C12 3950   5.275   4.803   5.691  0.8777 -0.0837  1.1527
   30SAPC  H12A 3951   5.262   4.724   5.619 -2.8464  1.3222  0.0769
   30SAPC  H12B 3952   5.172   4.835   5.692  0.7582 -0.2826 -0.9507
   30SAPC   C13 3953   5.510   4.874   5.619 -0.3097  0.7500 -0.5611
   30SAPC  H13A 3954   5.525   4.795   5.547 -0.1786  1.7698 -1.6860
   30SAPC  H13B 3955   5.561   4.958   5.574 -0.9226  0.9274 -0.9400
   30SAPC  H13C 3956   5.550   4.840   5.713  0.6621 -0.5277 -1.3846
   30SAPC   C14 3957   5.319   4.949   5.488  0.2015  0.0484  0.7193
   30SAPC  H14A 3958   5.211   4.954   5.483  0.1725 -1.2826 -1.1331
   30SAPC  H14B 3959   5.374   5.028   5.440  1.1229 -1.0734 -0.1128
   30SAPC  H14C 3960   5.333   4.867   5.419 -0.9509  1.7455 -1.6949
   30SAPC   C15 3961   5.358   5.036   5.706  0.2738 -0.9818  0.6488
   30SAPC  H15A 3962   5.406   5.014   5.800  4.4632 -0.9921 -1.2550
   30SAPC  H15B 3963   5.416   5.117   5.663 -0.2291 -0.5593  0.7603
   30SAPC  H15C 3964   5.256   5.070   5.705  0.7278  0.5371 -1.0772
   30SAPC   C11 3965   5.309   4.742   5.826 -0.0888 -0.4815  0.6929
   30SAPC  H11A 3966   5.399   4.677   5.815 -0.5372 -0.9189 -0.5176
   30SAPC  H11B 3967   5.228   4.675   5.860  0.5706 -1.3970  0.4885
   30SAPC     P 3968   5.248   4.874   6.041  0.3097 -0.3323 -0.3422
   30SAPC   O13 3969   5.287   5.006   6.102 -0.2256  0.4368  0.9060
   30SAPC   O14 3970   5.109   4.869   5.986 -0.5549 -0.2609 -0.4725
   30SAPC   O12 3971   5.340   4.834   5.928 -0.1204 -0.6967  0.7614
   30SAPC   O11 3972   5.269   4.764   6.145 -0.1505  0.1102  0.4642
   30SAPC    C1 3973   5.395   4.713   6.179 -0.0114  0.6183 -0.2216
   30SAPC    HA 3974   5.426   4.660   6.086 -0.8056 -0.3604  0.0585
   30SAPC    HB 3975   5.470   4.791   6.207  2.4273 -1.3028 -1.0203
   30SAPC    C2 3976   5.371   4.610   6.296 -0.0397 -0.5471  0.2511
   30SAPC    HS 3977   5.278   4.557   6.266  0.3272 -0.2480 -1.5174
   30SAPC   O21 3978   5.343   4.677   6.418  0.4314  0.0232  0.2776
   30SAPC   C21 3979   5.311   4.607   6.525 -0.1153 -0.0495  0.1179
   30SAPC   O22 3980   5.289   4.488   6.531 -0.1127  0.3015  0.0445
   30SAPC   C22 3981   5.314   4.697   6.648 -0.1142  0.5607 -0.0241
   30SAPC   H2R 3982   5.406   4.760   6.650  0.3621 -0.1238  1.9789
   30SAPC   H2S 3983   5.228   4.766   6.637  0.8188  1.5173 -1.8939
   30SAPC    C3 3984   5.484   4.509   6.313  0.6065  0.6896 -0.0660
   30SAPC    HX 3985   5.510   4.470   6.212 -1.2732  1.4159 -0.8628
   30SAPC    HY 3986   5.442   4.414   6.353  1.0353  0.3498 -0.4077
   30SAPC   O31 3987   5.598   4.571   6.382  0.0442 -0.1856  0.5405
   30SAPC   C31 3988   5.686   4.482   6.435  0.0608  0.0178  0.5464
   30SAPC   O32 3989   5.677   4.360   6.438  0.2655 -0.2541  0.3017
   30SAPC   C32 3990   5.798   4.564   6.492 -1.0025  0.4163 -0.1298
   30SAPC   H2X 3991   5.844   4.625   6.411  1.7519 -0.4078  0.6891
   30SAPC   H2Y 3992   5.865   4.487   6.537 -1.7071 -0.3419 -0.3639
   30SAPC   C23 3993   5.319   4.615   6.775 -0.0901  0.0949  0.2622
   30SAPC   H3R 3994   5.421   4.572   6.773  0.5144  1.4965  0.4152
   30SAPC   H3S 3995   5.260   4.521   6.768  0.2340 -0.1693  0.9687
   30SAPC   C24 3996   5.290   4.689   6.903 -0.1031  0.0622  0.3801
   30SAPC   H4R 3997   5.181   4.711   6.902 -0.1121  0.0861 -1.4193
   30SAPC   H4S 3998   5.339   4.789   6.896  3.2379 -1.0659  4.0551
   30SAPC   C25 3999   5.336   4.617   7.025  0.0694 -0.3574  0.3533
   30SAPC   H5R 4000   5.373   4.514   7.013 -0.2438 -0.7474  2.3689
   30SAPC   C26 4001   5.326   4.662   7.152 -0.2261  0.2220  0.0083
   30SAPC   H6R 4002   5.356   4.601   7.238  0.1403  1.4196  0.7425
   30SAPC   C27 4003   5.292   4.794   7.221 -0.3748  0.0842  0.4263
   30SAPC   H7R 4004   5.212   4.783   7.297 -0.9522  1.9220  0.1159
   30SAPC   H7S 4005   5.246   4.867   7.151  0.1830  0.4709  0.4578
   30SAPC   C28 4006   5.405   4.867   7.293  0.0224  0.1788  0.7644
   30SAPC   H8R 4007   5.461   4.922   7.217 -2.2396  0.0460 -1.1191
   30SAPC   C29 4008   5.432   4.875   7.426  0.0367 -0.0163  0.0451
   30SAPC   H9R 4009   5.492   4.960   7.461  1.5529 -0.7674 -0.6558
   30SAPC  C210 4010   5.354   4.806   7.527 -0.5661  0.3208 -0.1482
   30SAPC  H10R 4011   5.359   4.696   7.507 -2.4697  0.3816 -1.1359
   30SAPC  H10S 4012   5.251   4.836   7.499 -0.1713  2.5375  0.5987
   30SAPC  C211 4013   5.386   4.827   7.675 -0.2079  0.1288 -0.3707
   30SAPC  H11R 4014   5.491   4.829   7.705 -0.0575 -0.8696 -0.7889
   30SAPC  C212 4015   5.307   4.839   7.782 -0.2664 -0.4690 -0.6507
   30SAPC  H12R 4016   5.348   4.880   7.875  0.1022  0.1006 -1.0588
   30SAPC  C213 4017   5.157   4.835   7.782 -0.2388  0.0886  0.5971
   30SAPC  H13R 4018   5.123   4.795   7.684  1.3514  0.6881 -0.2349
   30SAPC  H13S 4019   5.142   4.945   7.778  1.6045  0.3807  1.0078
   30SAPC  C214 4020   5.087   4.785   7.910 -0.0264  0.4199 -0.5071
   30SAPC  H14R 4021   4.992   4.840   7.916  0.0762  0.7009 -1.2613
   30SAPC  C215 4022   5.118   4.688   7.995 -0.2532 -0.1749 -0.1781
   30SAPC  H15R 4023   5.053   4.662   8.080 -0.3227 -1.0639 -0.4835
   30SAPC  C216 4024   5.236   4.591   7.993 -0.4929 -0.0491 -0.3058
   30SAPC  H16R 4025   5.323   4.642   8.041 -0.3222 -1.1880  0.6271
   30SAPC  H16S 4026   5.257   4.551   7.892 -0.4505 -3.9008  1.0584
   30SAPC  C217 4027   5.201   4.467   8.079  0.3437 -0.0476  1.0422
   30SAPC  H17R 4028   5.173   4.489   8.184 -0.1935  0.1147  0.8678
   30SAPC  H17S 4029   5.300   4.417   8.090  0.8820  1.2572  2.3895
   30SAPC  C218 4030   5.110   4.376   7.997 -0.3061  0.0221  0.2563
   30SAPC  H18R 4031   5.161   4.349   7.902  1.4692  0.3817  1.0693
   30SAPC  H18S 4032   5.021   4.438   7.970 -1.4489 -1.7922 -0.2677
   30SAPC  C219 4033   5.082   4.249   8.065  0.4083 -0.4180  0.2816
   30SAPC  H19R 4034   5.176   4.218   8.116  0.2346  0.5016  1.1664
   30SAPC  H19S 4035   5.064   4.170   7.989  0.4843 -0.1406 -0.0274
   30SAPC  C220 4036   4.967   4.250   8.152 -0.6499 -0.6143  0.4505
   30SAPC  H20R 4037   4.871   4.255   8.097 -0.4947 -0.7460  0.1659
   30SAPC  H20S 4038   4.976   4.325   8.233 -0.3330 -0.3275  0.1534
   30SAPC  H20T 4039   4.963   4.155   8.210 -1.2586 -0.0933  1.2729
   30SAPC   C33 4040   5.744   4.646   6.614  0.5422 -0.2241 -0.7683
   30SAPC   H3X 4041   5.640   4.682   6.596  0.5209  0.2065  0.1668
   30SAPC   H3Y 4042   5.797   4.744   6.618  1.4641 -0.7498  0.0595
   30SAPC   C34 4043   5.763   4.568   6.739  0.0059  0.1250  0.0933
   30SAPC   H4X 4044   5.871   4.552   6.760  0.9004  1.7098 -2.7866
   30SAPC   H4Y 4045   5.719   4.466   6.743  0.7440 -0.1764  0.7526
   30SAPC   C35 4046   5.713   4.643   6.864  0.8206 -0.6291 -0.4032
   30SAPC   H5X 4047   5.610   4.679   6.843  1.0009 -0.0384 -0.2919
   30SAPC   H5Y 4048   5.775   4.732   6.884  0.5296 -0.1377 -1.6066
   30SAPC   C36 4049   5.706   4.546   6.981  0.0325 -0.9486  0.4511
   30SAPC   H6X 4050   5.807   4.499   6.976  1.3437  1.7419 -2.7239
   30SAPC   H6Y 4051   5.624   4.475   6.957 -0.7687  0.6540 -1.8849
   30SAPC   C37 4052   5.697   4.607   7.115 -0.4150  0.4016  0.5133
   30SAPC   H7X 4053   5.611   4.678   7.116  0.1797  1.2767 -2.4602
   30SAPC   H7Y 4054   5.787   4.671   7.128 -2.3338  3.0712  1.6382
   30SAPC   C38 4055   5.681   4.497   7.215 -0.3264 -0.2020 -1.1491
   30SAPC   H8X 4056   5.757   4.419   7.193 -0.5988 -0.2927 -1.8043
   30SAPC   H8Y 4057   5.582   4.452   7.193 -1.8284 -0.2054  4.3366
   30SAPC   C39 4058   5.682   4.541   7.358  0.3474 -0.1069 -0.1858
   30SAPC   H9X 4059   5.612   4.625   7.372  2.4177  1.3131  2.3220
   30SAPC   H9Y 4060   5.779   4.587   7.387 -0.0272  0.5006  0.1145
   30SAPC  C310 4061   5.660   4.427   7.455 -0.0610 -0.3610 -0.0554
   30SAPC  H10X 4062   5.748   4.360   7.461  0.6173  0.2399 -2.2131
   30SAPC  H10Y 4063   5.568   4.375   7.422 -0.3151 -0.1840  0.3739
   30SAPC  C311 4064   5.632   4.465   7.597 -1.1264  0.1263 -0.1667
   30SAPC  H11X 4065   5.583   4.385   7.657  0.8880 -0.3268  1.0016
   30SAPC  H11Y 4066   5.572   4.558   7.596 -1.3610 -0.0175  0.2894
   30SAPC  C312 4067   5.755   4.506   7.676  0.5091  0.4980  0.3431
   30SAPC  H12X 4068   5.805   4.577   7.607 -0.7700 -2.0981 -3.6478
   30SAPC  H12Y 4069   5.827   4.424   7.690 -1.1996 -0.9915  0.8212
   30SAPC  C313 4070   5.719   4.585   7.802  0.0041  0.1853  0.2632
   30SAPC  H13X 4071   5.646   4.663   7.776 -2.9562 -2.3222  0.5123
   30SAPC  H13Y 4072   5.814   4.638   7.827  0.1876 -0.3483  0.7322
   30SAPC  C314 4073   5.683   4.479   7.913  0.4625  0.0313  0.3376
   30SAPC  H14X 4074   5.760   4.398   7.913  0.3070 -0.1225 -0.2549
   30SAPC  H14Y 4075   5.589   4.438   7.872 -0.3097  1.7800  0.2767
   30SAPC  C315 4076   5.661   4.528   8.057  0.0012 -0.1109  0.0769
   30SAPC  H15X 4077   5.569   4.590   8.063  1.6627  2.4509  1.6193
   30SAPC  H15Y 4078   5.759   4.567   8.094 -0.3414 -0.7423  1.7468
   30SAPC  C316 4079   5.645   4.414   8.159  0.1520 -0.4081 -0.3994
   30SAPC  H16X 4080   5.721   4.334   8.144 -0.7936 -1.6585  1.1204
   30SAPC  H16Y 4081   5.541   4.376   8.146 -0.8977  1.4390  1.8517
   30SAPC  C317 4082   5.646   4.462   8.303  0.2492  0.2624 -0.4147
   30SAPC  H17X 4083   5.567   4.537   8.321 -0.0021  0.8431 -3.3694
   30SAPC  H17Y 4084   5.744   4.514   8.307  0.6344 -0.3123 -1.6333
   30SAPC  C318 4085   5.641   4.337   8.403 -0.4245  0.0891  0.6785
   30SAPC  H18X 4086   5.659   4.361   8.511 -1.9251 -3.0262  1.7325
   30SAPC  H18Y 4087   5.717   4.259   8.379  1.9273  1.6327  2.5587
   30SAPC  H18Z 4088   5.540   4.293   8.404 -0.8096  0.9474  0.9746
   31SAPC     N 4089   6.163   2.547   6.057  0.3843  0.5728 -0.7041
   31SAPC   C12 4090   6.135   2.655   6.158  0.0372  0.5580 -0.2346
   31SAPC  H12A 4091   6.028   2.668   6.167  0.1813  0.4729  2.5063
   31SAPC  H12B 4092   6.165   2.753   6.125 -0.7927  0.9897  0.2643
   31SAPC   C13 4093   6.064   2.431   6.085 -0.0440 -0.6132 -0.8781
   31SAPC  H13A 4094   6.072   2.358   6.006 -2.2803 -1.9671  0.0415
   31SAPC  H13B 4095   6.064   2.393   6.186 -1.3370  0.7453 -0.3335
   31SAPC  H13C 4096   5.965   2.472   6.073 -1.2310 -2.2949  2.1201
   31SAPC   C14 4097   6.130   2.595   5.920 -0.1911  0.3842  0.1837
   31SAPC  H14A 4098   6.204   2.665   5.884 -0.8621 -0.1538 -2.4615
   31SAPC  H14B 4099   6.130   2.523   5.839  3.0234 -1.9449  2.0027
   31SAPC  H14C 4100   6.035   2.644   5.911 -1.1077 -1.1330  1.1432
   31SAPC   C15 4101   6.305   2.500   6.068  0.8571  0.2961 -0.2872
   31SAPC  H15A 4102   6.330   2.411   6.013  2.9611  0.5399  0.1956
   31SAPC  H15B 4103   6.374   2.578   6.039 -0.7860  1.4079 -1.4017
   31SAPC  H15C 4104   6.332   2.468   6.168 -1.7876  0.3815  0.5402
   31SAPC   C11 4105   6.194   2.647   6.292 -0.7064  0.1847  0.1183
   31SAPC  H11A 4106   6.188   2.539   6.318 -1.1965  0.1097 -0.2782
   31SAPC  H11B 4107   6.140   2.692   6.378  0.4412  0.1797  0.8642
   31SAPC     P 4108   6.365   2.845   6.279 -0.1480  0.3987 -0.2824
   31SAPC   O13 4109   6.510   2.858   6.261  0.1059  0.0869  0.1598
   31SAPC   O14 4110   6.269   2.910   6.188 -0.2084 -0.5170  0.2226
   31SAPC   O12 4111   6.326   2.691   6.280 -1.0236 -0.3925 -0.1701
   31SAPC   O11 4112   6.332   2.882   6.429 -0.4477 -0.2681  0.0049
   31SAPC    C1 4113   6.412   2.840   6.540  0.2035 -0.1869  0.3447
   31SAPC    HA 4114   6.520   2.818   6.521  0.0965 -1.4336  1.0196
   31SAPC    HB 4115   6.408   2.925   6.611 -4.7300 -0.1588  0.3819
   31SAPC    C2 4116   6.345   2.725   6.622  0.2709  0.0194  0.7102
   31SAPC    HS 4117   6.372   2.631   6.570 -0.9917 -1.4266  2.5634
   31SAPC   O21 4118   6.201   2.740   6.613  0.5169  0.2861 -0.1611
   31SAPC   C21 4119   6.124   2.633   6.647  0.6063 -1.3253  0.2391
   31SAPC   O22 4120   6.157   2.521   6.682 -0.1838 -0.1444  0.3035
   31SAPC   C22 4121   5.983   2.697   6.676  0.3672  0.3192 -0.3089
   31SAPC   H2R 4122   5.986   2.776   6.598 -1.3422  0.1932 -0.5311
   31SAPC   H2S 4123   5.903   2.627   6.642 -0.3529  1.5441 -1.2011
   31SAPC    C3 4124   6.392   2.708   6.771  0.6302  0.3398  0.3296
   31SAPC    HX 4125   6.343   2.621   6.820 -0.0849  1.9621  2.6442
   31SAPC    HY 4126   6.356   2.796   6.828 -0.6148  1.1544 -1.6015
   31SAPC   O31 4127   6.535   2.702   6.778 -0.1178  0.7982 -0.2074
   31SAPC   C31 4128   6.593   2.584   6.755 -0.5457 -0.2226 -0.3018
   31SAPC   O32 4129   6.535   2.481   6.718 -0.6972 -0.1133  1.1553
   31SAPC   C32 4130   6.735   2.588   6.802 -1.1259 -0.1399  0.8840
   31SAPC   H2X 4131   6.804   2.628   6.725  2.3278 -0.8879  3.3611
   31SAPC   H2Y 4132   6.773   2.484   6.810 -0.9256 -0.3738 -2.0285
   31SAPC   C23 4133   5.955   2.768   6.805  0.1013 -0.2278  0.2645
   31SAPC   H3R 4134   5.870   2.838   6.790 -0.6374 -1.3853 -1.1972
   31SAPC   H3S 4135   6.038   2.835   6.836  0.0706  0.4562 -1.0684
   31SAPC   C24 4136   5.906   2.673   6.906  0.0109 -0.2161 -0.1535
   31SAPC   H4R 4137   5.986   2.597   6.916  0.3597 -0.1617 -2.0839
   31SAPC   H4S 4138   5.819   2.614   6.869 -0.6357  0.8512 -0.3810
   31SAPC   C25 4139   5.864   2.739   7.031  0.5199  0.7029 -0.2193
   31SAPC   H5R 4140   5.794   2.821   7.012  0.2226 -0.2606 -3.9844
   31SAPC   C26 4141   5.896   2.700   7.162  0.7323  0.6020 -0.0448
   31SAPC   H6R 4142   5.843   2.759   7.238  1.7805  0.0280  1.1724
   31SAPC   C27 4143   5.987   2.590   7.204 -0.8984 -0.4065  0.3330
   31SAPC   H7R 4144   6.061   2.634   7.274  1.5782 -0.4911 -2.1159
   31SAPC   H7S 4145   6.047   2.551   7.120  0.3519 -1.6291  1.7339
   31SAPC   C28 4146   5.901   2.471   7.254  0.4828  0.4318 -0.8551
   31SAPC   H8R 4147   5.859   2.404   7.177  0.8228  0.1553 -0.8044
   31SAPC   C29 4148   5.878   2.448   7.384  0.0010 -0.1003  0.0527
   31SAPC   H9R 4149   5.827   2.353   7.400  0.3484 -0.2101  0.5397
   31SAPC  C210 4150   5.925   2.524   7.504 -0.4576  0.3502 -0.0451
   31SAPC  H10R 4151   5.971   2.623   7.482 -0.7693  0.2172 -1.3648
   31SAPC  H10S 4152   6.006   2.467   7.553 -1.0717 -0.1176  0.4479
   31SAPC  C211 4153   5.811   2.549   7.598 -0.0657 -1.1440  0.0854
   31SAPC  H11R 4154   5.725   2.598   7.549 -0.3382  0.9409  2.4101
   31SAPC  C212 4155   5.820   2.569   7.732 -0.0939  0.5662 -0.1396
   31SAPC  H12R 4156   5.728   2.591   7.788  0.6106  0.9364  0.9105
   31SAPC  C213 4157   5.940   2.543   7.825  0.0688  0.5089  0.4939
   31SAPC  H13R 4158   5.942   2.629   7.896 -2.3091 -0.5786  2.0106
   31SAPC  H13S 4159   6.035   2.536   7.768  0.3640 -2.0705  1.1797
   31SAPC  C214 4160   5.937   2.405   7.890  0.5499 -0.2165 -0.1535
   31SAPC  H14R 4161   5.889   2.330   7.826 -0.0771 -1.6671  1.9208
   31SAPC  C215 4162   5.955   2.375   8.022  0.4260 -0.7152  0.4637
   31SAPC  H15R 4163   5.946   2.271   8.055  0.4568 -0.7840  0.2585
   31SAPC  C216 4164   5.996   2.481   8.126 -0.7821 -0.2291  0.4438
   31SAPC  H16R 4165   5.972   2.583   8.089 -0.1843 -0.1789  0.1919
   31SAPC  H16S 4166   6.105   2.479   8.144 -1.0360 -2.6380  2.1889
   31SAPC  C217 4167   5.928   2.461   8.264 -0.5933 -0.5493  0.2403
   31SAPC  H17R 4168   5.938   2.361   8.312 -0.0125 -0.1802  0.9033
   31SAPC  H17S 4169   5.819   2.466   8.241 -0.4346 -0.2122 -0.4597
   31SAPC  C218 4170   5.967   2.560   8.372  0.2411  0.8652 -0.2706
   31SAPC  H18R 4171   6.078   2.573   8.373  0.4383 -0.6972 -0.0390
   31SAPC  H18S 4172   5.935   2.510   8.465  1.0593  0.3649 -0.2432
   31SAPC  C219 4173   5.896   2.699   8.375 -0.2584  0.0607 -0.4046
   31SAPC  H19R 4174   5.918   2.748   8.278  3.2989 -0.6612 -0.0993
   31SAPC  H19S 4175   5.951   2.752   8.456  0.2605 -1.0943  0.0122
   31SAPC  C220 4176   5.746   2.697   8.384  0.1562 -0.0385 -0.3940
   31SAPC  H20R 4177   5.715   2.644   8.477  1.0979  1.4155  0.7894
   31SAPC  H20S 4178   5.705   2.650   8.292 -0.5009 -0.3724  0.0618
   31SAPC  H20T 4179   5.718   2.804   8.384 -1.8316 -0.5069 -1.0894
   31SAPC   C33 4180   6.750   2.690   6.919 -0.4086  0.4589  0.3225
   31SAPC   H3X 4181   6.706   2.787   6.888  1.8867  0.8495 -2.0499
   31SAPC   H3Y 4182   6.857   2.712   6.940  0.1981 -1.7843 -0.1541
   31SAPC   C34 4183   6.690   2.637   7.050 -0.0665 -0.0472  0.5921
   31SAPC   H4X 4184   6.720   2.530   7.054  0.0192 -0.0539 -0.0417
   31SAPC   H4Y 4185   6.580   2.635   7.036 -0.6412 -7.1834  2.5745
   31SAPC   C35 4186   6.737   2.700   7.179  0.4630 -0.6767  1.1359
   31SAPC   H5X 4187   6.705   2.806   7.186  1.2346 -0.4583  1.4947
   31SAPC   H5Y 4188   6.848   2.702   7.170  0.5048 -4.0920 -1.2990
   31SAPC   C36 4189   6.704   2.636   7.312  0.3697  0.4963  0.0767
   31SAPC   H6X 4190   6.737   2.531   7.317 -0.4240  0.3021  3.1967
   31SAPC   H6Y 4191   6.594   2.646   7.326  0.1731 -0.2674 -0.8256
   31SAPC   C37 4192   6.768   2.710   7.428 -0.3273 -0.8219 -0.8805
   31SAPC   H7X 4193   6.760   2.820   7.416  3.2698 -0.3500 -0.0944
   31SAPC   H7Y 4194   6.879   2.705   7.415  0.2917 -0.3194  3.0836
   31SAPC   C38 4195   6.737   2.663   7.570 -0.3256  0.2227 -0.5323
   31SAPC   H8X 4196   6.792   2.570   7.593 -0.5875  0.2215  0.0916
   31SAPC   H8Y 4197   6.631   2.635   7.584 -1.3071  4.0846  1.2980
   31SAPC   C39 4198   6.777   2.763   7.682  0.0200  0.6811  0.5137
   31SAPC   H9X 4199   6.719   2.856   7.668 -0.6040 -0.1491 -3.4742
   31SAPC   H9Y 4200   6.884   2.785   7.665 -0.0298  1.3693  1.0433
   31SAPC  C310 4201   6.768   2.707   7.824 -0.5480  0.2047  0.3266
   31SAPC  H10X 4202   6.857   2.642   7.827 -0.3237  0.3696 -1.3887
   31SAPC  H10Y 4203   6.685   2.635   7.840  0.9442 -1.5820  0.2561
   31SAPC  C311 4204   6.773   2.819   7.927  0.3197  0.1002  0.5358
   31SAPC  H11X 4205   6.679   2.878   7.920 -1.5129 -2.8036 -2.9139
   31SAPC  H11Y 4206   6.864   2.879   7.902 -0.3591  0.6051 -0.8466
   31SAPC  C312 4207   6.784   2.765   8.066 -0.6931 -0.0185 -0.3338
   31SAPC  H12X 4208   6.868   2.693   8.069 -1.1246 -0.5108  0.6117
   31SAPC  H12Y 4209   6.701   2.699   8.100  0.1567 -0.6561  0.5601
   31SAPC  C313 4210   6.808   2.869   8.172  0.0714  0.2066  0.7058
   31SAPC  H13X 4211   6.724   2.942   8.172  1.7598  2.2695 -0.6469
   31SAPC  H13Y 4212   6.895   2.934   8.152 -0.2724  0.8751  1.3171
   31SAPC  C314 4213   6.827   2.794   8.306  0.2474 -0.1135  0.2866
   31SAPC  H14X 4214   6.887   2.704   8.283 -1.5900 -0.5647 -3.5567
   31SAPC  H14Y 4215   6.738   2.739   8.344 -0.2748 -0.2323 -1.0328
   31SAPC  C315 4216   6.881   2.879   8.418 -0.2532 -0.0511  0.1196
   31SAPC  H15X 4217   6.840   2.979   8.393 -2.0019 -0.6590  0.4031
   31SAPC  H15Y 4218   6.992   2.875   8.415 -0.2558 -0.0137 -0.0510
   31SAPC  C316 4219   6.826   2.841   8.554  0.2119 -0.8476 -0.4229
   31SAPC  H16X 4220   6.864   2.742   8.587 -0.3244 -0.4302  1.6166
   31SAPC  H16Y 4221   6.715   2.842   8.553  0.1339  2.1931 -2.2625
   31SAPC  C317 4222   6.869   2.950   8.660  0.2878 -0.0939 -0.0154
   31SAPC  H17X 4223   6.812   2.930   8.753 -0.7504 -1.3826 -0.8661
   31SAPC  H17Y 4224   6.830   3.047   8.624  0.4273  1.3006  3.3154
   31SAPC  C318 4225   7.017   2.956   8.695  0.4631  0.1425 -0.2513
   31SAPC  H18X 4226   7.040   2.857   8.738  3.8868  0.7811 -0.3623
   31SAPC  H18Y 4227   7.028   3.035   8.773 -0.1559 -0.6761  0.7022
   31SAPC  H18Z 4228   7.086   2.980   8.612  0.8493  2.1823  0.5930
   32SAPC     N 4229   3.713   4.847   6.063 -0.4873 -0.0809 -0.1749
   32SAPC   C12 4230   3.714   4.821   6.207 -0.3727  0.3866 -0.3854
   32SAPC  H12A 4231   3.733   4.916   6.254 -1.4720 -0.5791  2.2163
   32SAPC  H12B 4232   3.800   4.759   6.227 -0.0327  0.5713 -1.2346
   32SAPC   C13 4233   3.662   4.725   5.984 -0.8415 -0.6019  0.3038
   32SAPC  H13A 4234   3.666   4.754   5.880  0.6642  1.0241  0.7692
   32SAPC  H13B 4235   3.720   4.636   6.000  1.9772  0.9161 -0.8303
   32SAPC  H13C 4236   3.560   4.708   6.015 -0.6257 -4.2224 -0.5680
   32SAPC   C14 4237   3.629   4.967   6.034  0.0448 -0.4590 -0.4151
   32SAPC  H14A 4238   3.631   4.984   5.928 -1.1332 -1.1174 -0.5600
   32SAPC  H14B 4239   3.529   4.943   6.068  0.9447 -1.2864  1.8519
   32SAPC  H14C 4240   3.674   5.050   6.086 -0.2556 -0.7340  0.3053
   32SAPC   C15 4241   3.855   4.893   6.011  0.4838  0.7146 -0.2848
   32SAPC  H15A 4242   3.852   4.925   5.908  0.3717 -1.4649 -1.0125
   32SAPC  H15B 4243   3.889   4.972   6.076 -2.1716  1.6348  0.1216
   32SAPC  H15C 4244   3.927   4.812   6.017 -1.4233 -1.3506 -2.8720
   32SAPC   C11 4245   3.584   4.764   6.265  0.1559 -0.1799  0.4413
   32SAPC  H11A 4246   3.493   4.816   6.228  0.5518 -0.0305 -0.3439
   32SAPC  H11B 4247   3.582   4.784   6.374 -0.3042 -0.1482  0.4294
   32SAPC     P 4248   3.655   4.524   6.323  0.0576 -0.4482 -0.0886
   32SAPC   O13 4249   3.629   4.395   6.260  0.1049  0.2985  0.1520
   32SAPC   O14 4250   3.793   4.577   6.332  0.3480  0.3284  0.1706
   32SAPC   O12 4251   3.572   4.628   6.243 -0.0397 -0.0240  0.0272
   32SAPC   O11 4252   3.601   4.522   6.472 -0.6011  0.2491 -0.0171
   32SAPC    C1 4253   3.472   4.467   6.491 -0.4388 -0.2230 -0.4359
   32SAPC    HA 4254   3.398   4.551   6.492  1.6179  1.6843 -0.5669
   32SAPC    HB 4255   3.441   4.398   6.410 -3.7014 -0.0355  0.4993
   32SAPC    C2 4256   3.451   4.374   6.617  0.2088 -0.8856 -0.0232
   32SAPC    HS 4257   3.341   4.369   6.627 -0.3178  1.9055 -2.8820
   32SAPC   O21 4258   3.506   4.445   6.729  0.4679 -0.1777 -0.1355
   32SAPC   C21 4259   3.421   4.516   6.802  0.3745 -0.7401  0.1283
   32SAPC   O22 4260   3.297   4.522   6.787 -1.1145  0.6418 -0.0926
   32SAPC   C22 4261   3.484   4.589   6.920  0.1467 -0.0141  0.0368
   32SAPC   H2R 4262   3.594   4.592   6.911  0.2654 -3.0400 -0.4814
   32SAPC   H2S 4263   3.436   4.690   6.926 -1.2368 -0.6614  0.4844
   32SAPC    C3 4264   3.516   4.226   6.607  0.8618  0.2026 -0.6095
   32SAPC    HX 4265   3.625   4.233   6.590  0.9249  0.5973 -0.0531
   32SAPC    HY 4266   3.482   4.189   6.507 -2.5137  1.7354 -0.1953
   32SAPC   O31 4267   3.483   4.138   6.717 -0.0363 -0.6057  0.3563
   32SAPC   C31 4268   3.355   4.096   6.728  0.5510  0.4432 -0.1098
   32SAPC   O32 4269   3.265   4.129   6.655  0.1670 -0.2282  0.2574
   32SAPC   C32 4270   3.330   4.010   6.854 -0.7581 -0.6862 -0.1092
   32SAPC   H2X 4271   3.384   3.913   6.845  1.0230  0.3381 -1.0028
   32SAPC   H2Y 4272   3.220   4.001   6.864 -0.8100  1.3915  2.0888
   32SAPC   C23 4273   3.468   4.510   7.048 -0.3489 -0.2423  0.1880
   32SAPC   H3R 4274   3.360   4.488   7.064 -0.7035 -0.7659 -2.4381
   32SAPC   H3S 4275   3.515   4.566   7.132  2.6483  2.0201 -2.7319
   32SAPC   C24 4276   3.546   4.374   7.048  0.7149 -0.0653  0.0408
   32SAPC   H4R 4277   3.506   4.316   6.962 -3.0645  1.6680  0.3975
   32SAPC   H4S 4278   3.503   4.318   7.134  3.5322 -1.0158  0.9493
   32SAPC   C25 4279   3.693   4.377   7.074 -0.4039 -0.0002 -0.7671
   32SAPC   H5R 4280   3.757   4.382   6.985  0.6807  0.9119  0.0286
   32SAPC   C26 4281   3.753   4.372   7.192 -0.7731 -0.6399 -0.4781
   32SAPC   H6R 4282   3.862   4.384   7.198 -0.9360  0.0661  2.0188
   32SAPC   C27 4283   3.688   4.360   7.321  0.3693 -0.0918 -0.2008
   32SAPC   H7R 4284   3.743   4.292   7.390 -0.6041 -0.5701  0.1153
   32SAPC   H7S 4285   3.594   4.302   7.312  1.1663 -1.5291  0.3819
   32SAPC   C28 4286   3.651   4.490   7.390 -0.4420  0.6684  0.3222
   32SAPC   H8R 4287   3.648   4.576   7.322 -2.4366 -0.4635 -1.1557
   32SAPC   C29 4288   3.599   4.490   7.514 -0.0770  0.5460 -0.1166
   32SAPC   H9R 4289   3.592   4.580   7.576 -1.6562  0.3915 -0.0393
   32SAPC  C210 4290   3.568   4.372   7.597  0.4664  0.9205  0.1445
   32SAPC  H10R 4291   3.523   4.292   7.536 -0.5528  0.7792  1.0563
   32SAPC  H10S 4292   3.487   4.407   7.665 -0.7255 -0.2534 -0.6276
   32SAPC  C211 4293   3.681   4.313   7.688 -1.1639  0.3087  0.5623
   32SAPC  H11R 4294   3.779   4.357   7.663 -2.3767  0.7250 -4.6838
   32SAPC  C212 4295   3.676   4.221   7.793  0.8591 -0.1753  1.0982
   32SAPC  H12R 4296   3.776   4.185   7.821  2.3826  0.7706 -2.5894
   32SAPC  C213 4297   3.546   4.148   7.844  0.3274 -0.2384 -0.2464
   32SAPC  H13R 4298   3.576   4.045   7.869  0.6602 -0.5212 -1.6850
   32SAPC  H13S 4299   3.458   4.145   7.776 -1.5768 -0.5356  2.1040
   32SAPC  C214 4300   3.485   4.217   7.966 -0.1194  0.3624  0.0471
   32SAPC  H14R 4301   3.407   4.292   7.944  0.5413  0.7638 -0.9959
   32SAPC  C215 4302   3.510   4.188   8.094 -0.2469 -0.1845 -0.4313
   32SAPC  H15R 4303   3.456   4.249   8.168 -0.1422 -2.6239  1.7764
   32SAPC  C216 4304   3.613   4.095   8.143 -0.8809  0.1930 -0.4222
   32SAPC  H16R 4305   3.691   4.161   8.185 -0.5985  0.2325 -1.0031
   32SAPC  H16S 4306   3.661   4.034   8.063  0.4767  0.9873 -0.2373
   32SAPC  C217 4307   3.562   4.010   8.258 -0.7426 -0.2336  0.9170
   32SAPC  H17R 4308   3.635   3.930   8.282 -0.1268 -1.1350 -3.2459
   32SAPC  H17S 4309   3.467   3.957   8.235 -0.4791 -0.1233 -0.5578
   32SAPC  C218 4310   3.539   4.088   8.383  0.0661 -0.1916 -0.1726
   32SAPC  H18R 4311   3.440   4.138   8.377  0.5089  0.6883 -0.5497
   32SAPC  H18S 4312   3.618   4.167   8.380 -0.4937  0.3883  0.1904
   32SAPC  C219 4313   3.530   4.005   8.511 -0.2452  0.4094 -0.7711
   32SAPC  H19R 4314   3.595   3.920   8.482 -1.0053  0.6033 -3.2925
   32SAPC  H19S 4315   3.436   3.950   8.534  1.1052 -1.4509  0.5215
   32SAPC  C220 4316   3.571   4.077   8.641 -0.2886  0.4088 -0.0194
   32SAPC  H20R 4317   3.669   4.128   8.626 -0.0127 -0.7128 -2.5408
   32SAPC  H20S 4318   3.579   4.001   8.721  0.1076 -0.6810 -1.0690
   32SAPC  H20T 4319   3.499   4.161   8.654  0.9016  1.8944 -2.2631
   32SAPC   C33 4320   3.399   4.071   6.983 -0.5648  0.0202  0.0104
   32SAPC   H3X 4321   3.368   4.177   7.000 -1.2395 -0.3816  1.4485
   32SAPC   H3Y 4322   3.509   4.066   6.975 -0.6430  0.3993 -1.5416
   32SAPC   C34 4323   3.376   4.000   7.116  0.2329 -0.2965 -0.1524
   32SAPC   H4X 4324   3.446   4.039   7.192  0.6694  0.1109 -0.7482
   32SAPC   H4Y 4325   3.395   3.891   7.104  0.8865 -0.9757  4.8932
   32SAPC   C35 4326   3.239   4.026   7.181 -0.3639  0.5934 -0.3894
   32SAPC   H5X 4327   3.154   3.979   7.126 -2.2065  1.2161  1.7926
   32SAPC   H5Y 4328   3.222   4.135   7.173 -2.2131  0.3553 -0.0822
   32SAPC   C36 4329   3.224   3.974   7.326 -0.4819  0.8974  0.3476
   32SAPC   H6X 4330   3.258   3.869   7.320  0.9349  1.3095  0.7914
   32SAPC   H6Y 4331   3.116   3.964   7.352  0.3239 -0.5753  3.5858
   32SAPC   C37 4332   3.306   4.056   7.429  0.2461 -0.6367  0.0496
   32SAPC   H7X 4333   3.253   4.147   7.464 -1.4310 -1.4285 -0.3660
   32SAPC   H7Y 4334   3.393   4.105   7.380  0.2106  0.9185  1.4370
   32SAPC   C38 4335   3.362   3.971   7.545  0.1503  0.3415 -0.0604
   32SAPC   H8X 4336   3.422   4.033   7.615  0.2318 -2.4193  2.5484
   32SAPC   H8Y 4337   3.434   3.894   7.511 -1.8646 -1.3141 -0.8216
   32SAPC   C39 4338   3.242   3.925   7.631  0.3160  0.5156  0.2050
   32SAPC   H9X 4339   3.189   3.838   7.586 -0.2428  1.3495 -0.8161
   32SAPC   H9Y 4340   3.170   4.010   7.623  2.2421  2.1242 -1.1366
   32SAPC  C310 4341   3.277   3.895   7.780 -0.0770 -0.1361  0.0439
   32SAPC  H10X 4342   3.340   3.977   7.822 -0.3489  0.7288 -1.1786
   32SAPC  H10Y 4343   3.342   3.805   7.783  2.5117  1.6232  2.6414
   32SAPC  C311 4344   3.152   3.872   7.862  0.5637 -0.1440  0.2047
   32SAPC  H11X 4345   3.091   3.792   7.816  1.2916 -0.2806 -0.5409
   32SAPC  H11Y 4346   3.083   3.960   7.864  1.4957  0.5878  1.3516
   32SAPC  C312 4347   3.187   3.835   8.010 -0.1924  0.2383  0.2557
   32SAPC  H12X 4348   3.268   3.895   8.057 -0.5186  0.1140  0.9853
   32SAPC  H12Y 4349   3.228   3.731   8.009  2.5076  1.2111 -0.5987
   32SAPC  C313 4350   3.059   3.835   8.099  0.1445 -0.3488 -0.1176
   32SAPC  H13X 4351   2.988   3.760   8.059 -0.5404 -0.1909  0.7476
   32SAPC  H13Y 4352   2.995   3.925   8.095  1.4781  0.5764 -2.6313
   32SAPC  C314 4353   3.103   3.802   8.237  0.4086  0.6835 -0.0818
   32SAPC  H14X 4354   3.204   3.839   8.267  0.7109  1.3533 -1.7877
   32SAPC  H14Y 4355   3.114   3.691   8.241 -0.1814  0.6331  0.1146
   32SAPC  C315 4356   2.999   3.837   8.342  0.5194  0.0318 -0.0922
   32SAPC  H15X 4357   2.904   3.794   8.305  2.1840 -1.8156 -2.5110
   32SAPC  H15Y 4358   2.975   3.945   8.347  2.6395  0.5135  0.9520
   32SAPC  C316 4359   3.034   3.805   8.489  0.1440 -0.8011  0.1477
   32SAPC  H16X 4360   3.124   3.863   8.519  0.1033 -0.8594  0.3873
   32SAPC  H16Y 4361   3.060   3.699   8.510  1.2627 -0.7944 -1.0652
   32SAPC  C317 4362   2.920   3.825   8.589 -0.5855 -0.1500 -0.0024
   32SAPC  H17X 4363   2.839   3.758   8.554  0.6716 -0.9688 -1.4556
   32SAPC  H17Y 4364   2.903   3.935   8.588  1.4344  0.1883 -1.0301
   32SAPC  C318 4365   2.961   3.795   8.734  0.2865 -0.0092  0.0197
   32SAPC  H18X 4366   3.020   3.702   8.724  1.5149  0.6964  0.4361
   32SAPC  H18Y 4367   2.876   3.783   8.805  1.1281 -0.6151  0.9546
   32SAPC  H18Z 4368   3.024   3.881   8.765  0.4730 -0.2688  0.3692
   33POPC     N 4369   4.761   0.183  10.731  0.2510 -0.1036 -0.3104
   33POPC   C12 4370   4.622   0.141  10.787  0.2422 -0.2465 -0.6028
   33POPC  H12A 4371   4.577   0.225  10.839 -0.6788 -1.1320  0.0683
   33POPC  H12B 4372   4.638   0.060  10.857  2.7563 -1.8356 -2.8265
   33POPC   C13 4373   4.841   0.252  10.831  0.1080 -0.7931 -0.9262
   33POPC  H13A 4374   4.809   0.353  10.850  0.2225 -0.9768  0.3836
   33POPC  H13B 4375   4.831   0.206  10.929 -2.0754 -0.2603 -0.8433
   33POPC  H13C 4376   4.947   0.251  10.811  0.3002 -0.7628  0.0059
   33POPC   C14 4377   4.839   0.061  10.701 -0.5682 -0.3079 -0.6333
   33POPC  H14A 4378   4.841  -0.003  10.788 -0.9256  1.4260  0.7074
   33POPC  H14B 4379   4.789   0.007  10.622 -1.4347  0.6438 -0.7497
   33POPC  H14C 4380   4.938   0.074  10.658 -0.1394 -2.2744 -0.3282
   33POPC   C15 4381   4.767   0.280  10.613  0.5322  0.1305 -0.0828
   33POPC  H15A 4382   4.703   0.365  10.628 -0.5094 -0.7533  0.5942
   33POPC  H15B 4383   4.734   0.222  10.527  2.1309 -0.0900 -0.5966
   33POPC  H15C 4384   4.867   0.308  10.584  0.3678  0.1983 -0.5931
   33POPC   C11 4385   4.523   0.089  10.680 -0.3284 -0.6805 -0.7758
   33POPC  H11A 4386   4.427   0.060  10.726  1.0099 -1.0645  1.9453
   33POPC  H11B 4387   4.564  -0.002  10.631 -0.7490  0.0151 -2.5168
   33POPC     P 4388   4.411   0.312  10.600  0.4825  0.0957  0.5481
   33POPC   O13 4389   4.446   0.402  10.489 -0.1587 -0.1354  0.0486
   33POPC   O14 4390   4.435   0.363  10.736 -0.4216 -0.4143  0.0799
   33POPC   O12 4391   4.495   0.184  10.581 -0.7334  0.2275  0.4606
   33POPC   O11 4392   4.257   0.261  10.580  0.7202  0.5037  0.1163
   33POPC    C1 4393   4.208   0.137  10.549 -0.0497  0.2386 -0.2395
   33POPC    HA 4394   4.290   0.066  10.523 -1.7950 -0.2396 -5.6175
   33POPC    HB 4395   4.153   0.105  10.640 -0.0344  3.1198  0.8619
   33POPC    C2 4396   4.107   0.123  10.440 -0.5496 -0.2518 -0.0048
   33POPC    HS 4397   4.066   0.020  10.429  1.1651 -0.8040 -1.6100
   33POPC   O21 4398   4.164   0.173  10.310 -0.7970 -0.2064  0.3365
   33POPC   C21 4399   4.273   0.112  10.269  0.3166 -0.1411 -0.2228
   33POPC   O22 4400   4.313   0.005  10.316 -0.2987  0.5032  0.2021
   33POPC   C22 4401   4.332   0.184  10.145 -0.2914 -0.2738 -0.2796
   33POPC   H2R 4402   4.404   0.105  10.114  0.4065 -0.0830  0.7778
   33POPC   H2S 4403   4.391   0.268  10.188 -1.4039 -0.2396  1.2724
   33POPC    C3 4404   3.978   0.213  10.463 -0.6435  0.1092 -0.7412
   33POPC    HX 4405   4.023   0.311  10.490  1.9233 -1.2038  0.0869
   33POPC    HY 4406   3.940   0.164  10.555  0.1268 -2.0108 -1.5140
   33POPC   O31 4407   3.877   0.199  10.364 -0.4349  0.6074  0.2284
   33POPC   C31 4408   3.792   0.295  10.360  0.2993  0.5137  0.8755
   33POPC   O32 4409   3.791   0.392  10.434  0.3994 -0.9008 -0.0903
   33POPC   C32 4410   3.691   0.267  10.257 -0.0947  0.2490  1.0145
   33POPC   H2X 4411   3.597   0.294  10.309  0.1377  0.9842  1.0646
   33POPC   H2Y 4412   3.686   0.159  10.233  1.2081  0.4984 -0.5460
   33POPC   C23 4413   4.240   0.237  10.026 -0.4567 -0.5840 -0.6968
   33POPC   H3R 4414   4.158   0.297  10.070 -0.0413  0.1947 -0.9766
   33POPC   H3S 4415   4.201   0.143   9.981  0.0902  0.0433 -2.5372
   33POPC   C24 4416   4.307   0.322   9.926 -0.0588  0.1429  0.1784
   33POPC   H4R 4417   4.349   0.410   9.980  0.8743 -0.4439  0.4471
   33POPC   H4S 4418   4.215   0.358   9.875  0.6316  1.7684  0.0267
   33POPC   C25 4419   4.411   0.250   9.840 -0.5249 -0.0104  0.1676
   33POPC   H5R 4420   4.371   0.148   9.822  1.5352 -0.6570 -1.0991
   33POPC   H5S 4421   4.501   0.257   9.905  0.1332  1.2003 -0.8436
   33POPC   C26 4422   4.452   0.298   9.701  0.1493  0.5048 -0.2438
   33POPC   H6R 4423   4.516   0.232   9.639 -0.0767  1.8006 -1.9401
   33POPC   H6S 4424   4.493   0.400   9.715  0.7235  0.1051  1.0988
   33POPC   C27 4425   4.326   0.322   9.604 -0.1906 -0.1777  0.1772
   33POPC   H7R 4426   4.262   0.404   9.642 -0.8512 -0.3201 -0.6017
   33POPC   H7S 4427   4.261   0.232   9.615  0.4966 -0.4875  2.3236
   33POPC   C28 4428   4.366   0.342   9.457  0.5386  0.3529  0.6842
   33POPC   H8R 4429   4.439   0.261   9.437  3.6218  2.9732  0.5642
   33POPC   H8S 4430   4.426   0.436   9.455  0.9665  0.0683 -0.0120
   33POPC   C29 4431   4.254   0.362   9.360 -0.7283 -0.4907  0.0616
   33POPC   H91 4432   4.203   0.459   9.366  0.0476 -0.1424  1.7737
   33POPC  C210 4433   4.215   0.268   9.276 -0.3446  0.9560 -0.3309
   33POPC  H101 4434   4.140   0.300   9.202 -0.6278 -1.4401 -1.1557
   33POPC  C211 4435   4.276   0.133   9.260  0.2740 -0.1834  0.0868
   33POPC  H11R 4436   4.289   0.086   9.360 -1.7021  0.4038  0.6654
   33POPC  H11S 4437   4.377   0.142   9.214  1.0766 -2.3059  1.3106
   33POPC  C212 4438   4.183   0.036   9.186 -0.5036  0.2242  0.4392
   33POPC  H12R 4439   4.079   0.046   9.225 -1.2174  0.7869 -1.4777
   33POPC  H12S 4440   4.215  -0.068   9.206 -1.7150 -0.0560  1.0157
   33POPC  C213 4441   4.186   0.064   9.028  1.2299  0.0218 -0.2827
   33POPC  H13R 4442   4.287   0.058   8.984  0.1374  0.3953 -3.0419
   33POPC  H13S 4443   4.153   0.170   9.016  1.0206  0.1252  1.0796
   33POPC  C214 4444   4.091  -0.024   8.942 -0.3341  0.3399 -0.1312
   33POPC  H14R 4445   3.987  -0.036   8.978 -1.0283  1.8069 -1.5208
   33POPC  H14S 4446   4.144  -0.119   8.961 -2.4329 -0.7152  0.6400
   33POPC  C215 4447   4.084   0.033   8.796 -0.1017  1.0232 -0.3876
   33POPC  H15R 4448   4.185   0.050   8.754 -0.2491 -0.8459 -1.6396
   33POPC  H15S 4449   4.025   0.127   8.799 -0.0508  1.0284  0.9512
   33POPC  C216 4450   4.010  -0.056   8.694  0.1935 -0.6840  0.0325
   33POPC  H16R 4451   3.902  -0.065   8.718 -0.1121 -1.5116 -1.5287
   33POPC  H16S 4452   4.062  -0.154   8.692  1.6364  0.0360  0.5825
   33POPC  C217 4453   4.027  -0.004   8.550 -0.4145  0.4695 -0.7699
   33POPC  H17R 4454   4.135   0.013   8.531 -0.1402  1.6765  1.5878
   33POPC  H17S 4455   3.970   0.091   8.545  1.7774  1.8805  0.0129
   33POPC  C218 4456   3.968  -0.111   8.449 -1.1251  0.1601  0.0747
   33POPC  H18R 4457   4.000  -0.068   8.352  1.4574 -1.2105  0.2255
   33POPC  H18S 4458   3.858  -0.121   8.462 -0.9022 -2.2070  0.8001
   33POPC  H18T 4459   4.016  -0.208   8.476  0.7933  1.4482  1.5451
   33POPC   C33 4460   3.707   0.366  10.134 -0.1849  0.4102 -0.0028
   33POPC   H3X 4461   3.812   0.353  10.099 -0.9616 -2.0278 -1.6773
   33POPC   H3Y 4462   3.683   0.462  10.184 -3.5403 -0.9574  1.3408
   33POPC   C34 4463   3.607   0.344  10.020 -0.6342  0.2069  0.6202
   33POPC   H4X 4464   3.507   0.379  10.055 -1.7759 -1.5710 -0.7059
   33POPC   H4Y 4465   3.597   0.238   9.991 -1.9673  0.5876 -0.4025
   33POPC   C35 4466   3.651   0.422   9.893  0.2801 -0.1716 -0.0595
   33POPC   H5X 4467   3.716   0.368   9.821 -0.8768 -0.4399 -0.9456
   33POPC   H5Y 4468   3.700   0.518   9.915 -0.5118  0.5257 -1.2057
   33POPC   C36 4469   3.525   0.451   9.812 -0.2917  0.3561  0.1610
   33POPC   H6X 4470   3.448   0.505   9.871 -0.6726  1.5103 -1.3198
   33POPC   H6Y 4471   3.480   0.353   9.786 -0.8447 -0.0196  2.3715
   33POPC   C37 4472   3.555   0.546   9.696 -0.0784  0.5481  0.0617
   33POPC   H7X 4473   3.654   0.522   9.652 -1.9409 -5.0255 -1.9469
   33POPC   H7Y 4474   3.557   0.651   9.732 -2.1938  0.2123  1.3450
   33POPC   C38 4475   3.450   0.529   9.577 -0.0530  0.0455  0.5163
   33POPC   H8X 4476   3.348   0.557   9.612 -0.5682 -2.3988  1.1377
   33POPC   H8Y 4477   3.444   0.421   9.552 -1.1003 -0.0627  1.1487
   33POPC   C39 4478   3.494   0.611   9.458 -0.1139  0.1214  0.0679
   33POPC   H9X 4479   3.595   0.597   9.414 -0.5268 -0.9811 -0.5769
   33POPC   H9Y 4480   3.488   0.718   9.486  1.9917  0.2148  0.3284
   33POPC  C310 4481   3.402   0.578   9.338  0.6700 -0.3885 -0.2015
   33POPC  H10X 4482   3.297   0.606   9.358  0.9608  0.0709  0.7159
   33POPC  H10Y 4483   3.411   0.474   9.299 -0.6348  0.5140 -3.1597
   33POPC  C311 4484   3.435   0.664   9.216 -0.5384 -0.6173  0.4283
   33POPC  H11X 4485   3.544   0.655   9.196 -0.5089  1.1631 -0.4967
   33POPC  H11Y 4486   3.411   0.767   9.250  0.0832 -0.5256  0.5952
   33POPC  C312 4487   3.362   0.634   9.080  0.4525 -0.1323  0.7280
   33POPC  H12X 4488   3.256   0.616   9.110  0.2617 -0.8957 -0.3566
   33POPC  H12Y 4489   3.404   0.541   9.037 -0.2680  0.1528 -0.6351
   33POPC  C313 4490   3.377   0.737   8.961 -0.3051  0.1595 -0.3635
   33POPC  H13X 4491   3.484   0.758   8.945 -0.5129  0.7897 -0.9922
   33POPC  H13Y 4492   3.325   0.830   8.991  3.6192  2.0830  1.0768
   33POPC  C314 4493   3.310   0.683   8.835 -0.4184  0.6713  0.2799
   33POPC  H14X 4494   3.266   0.755   8.763  1.3634 -0.6617 -2.3101
   33POPC  H14Y 4495   3.229   0.610   8.856  0.0864 -0.2476 -0.8129
   33POPC  C315 4496   3.415   0.589   8.752  0.0593  0.4447 -0.4205
   33POPC  H15X 4497   3.368   0.519   8.680 -1.5253  1.2634 -0.2229
   33POPC  H15Y 4498   3.473   0.529   8.826  0.7148 -1.2343 -2.2120
   33POPC  C316 4499   3.515   0.669   8.659  0.0925  0.6767  0.3451
   33POPC  H16X 4500   3.590   0.713   8.728  0.4912  3.0658 -1.4859
   33POPC  H16Y 4501   3.456   0.741   8.598 -2.5499 -1.4028  0.2514
   33POPC  H16Z 4502   3.571   0.597   8.595 -2.1298 -2.0797  1.3062
   34POPC     N 4503   3.339   0.640  11.004 -0.1761  0.7487  0.0792
   34POPC   C12 4504   3.321   0.640  10.854 -0.4049 -0.4494 -0.4037
   34POPC  H12A 4505   3.356   0.545  10.817  0.5902 -0.6725  1.0548
   34POPC  H12B 4506   3.387   0.714  10.810 -0.4354 -0.8602 -1.1695
   34POPC   C13 4507   3.282   0.764  11.070  0.1803  0.2758  0.0257
   34POPC  H13A 4508   3.327   0.770  11.168  0.5879  2.9714 -0.2512
   34POPC  H13B 4509   3.306   0.858  11.022 -0.7880  1.6092  2.0392
   34POPC  H13C 4510   3.175   0.757  11.081 -0.0287 -1.4734 -2.2069
   34POPC   C14 4511   3.289   0.520  11.065 -0.1641 -0.9381  0.2646
   34POPC  H14A 4512   3.333   0.509  11.163  2.1580  0.7593 -0.5080
   34POPC  H14B 4513   3.181   0.517  11.069 -0.1115 -1.8863  1.2053
   34POPC  H14C 4514   3.315   0.431  11.009  2.2922  0.1693 -0.4864
   34POPC   C15 4515   3.485   0.652  11.034  0.6715 -0.5151  0.0273
   34POPC  H15A 4516   3.557   0.591  10.980 -0.1774 -1.6469  0.1292
   34POPC  H15B 4517   3.510   0.640  11.138  2.3639  0.7994 -0.1846
   34POPC  H15C 4518   3.521   0.750  11.007  0.1030  0.2603  1.9103
   34POPC   C11 4519   3.175   0.660  10.804 -0.2316  0.2668  0.1785
   34POPC  H11A 4520   3.177   0.667  10.693 -0.8965  0.3508  0.1661
   34POPC  H11B 4521   3.124   0.752  10.839  0.0908  0.2777  0.6190
   34POPC     P 4522   3.113   0.405  10.765 -0.1625  0.3037 -0.0685
   34POPC   O13 4523   2.998   0.314  10.791  0.2252 -0.6035 -0.5735
   34POPC   O14 4524   3.252   0.356  10.787  0.2708  0.7669 -0.5463
   34POPC   O12 4525   3.104   0.544  10.842 -0.0592  0.1401  0.5733
   34POPC   O11 4526   3.098   0.459  10.614  0.0583  0.3912 -0.2529
   34POPC    C1 4527   2.985   0.449  10.529 -0.4194  0.1844 -0.1384
   34POPC    HA 4528   2.895   0.489  10.581 -0.2845  0.4650 -0.1205
   34POPC    HB 4529   2.964   0.342  10.507 -2.8216  0.8964 -1.6542
   34POPC    C2 4530   3.003   0.529  10.390 -0.3682 -0.5232  0.1944
   34POPC    HS 4531   2.912   0.513  10.328 -1.2517  2.0140  0.6860
   34POPC   O21 4532   3.120   0.498  10.315 -0.2061 -0.0621 -0.2709
   34POPC   C21 4533   3.103   0.393  10.242  0.3056  0.3592  0.3165
   34POPC   O22 4534   3.012   0.312  10.248  0.6570 -0.0280 -0.4978
   34POPC   C22 4535   3.235   0.375  10.159 -0.3827  0.6370 -0.4541
   34POPC   H2R 4536   3.293   0.289  10.200 -0.6859  0.2060 -0.9073
   34POPC   H2S 4537   3.289   0.471  10.166  0.0542  0.3554  0.0777
   34POPC    C3 4538   3.022   0.676  10.436  0.7556 -0.2566  0.2056
   34POPC    HX 4539   3.114   0.681  10.498 -0.3901  0.5476  1.9253
   34POPC    HY 4540   2.945   0.689  10.515  1.1978  0.3764  0.5421
   34POPC   O31 4541   3.016   0.767  10.326 -0.2926  0.4406  0.2776
   34POPC   C31 4542   2.992   0.886  10.369  0.2280 -0.5595 -0.2551
   34POPC   O32 4543   2.958   0.921  10.484 -0.0121  0.5058 -0.2059
   34POPC   C32 4544   3.009   0.985  10.259  0.3734 -0.0179 -0.4664
   34POPC   H2X 4545   3.099   1.046  10.283  0.2398 -0.3166  0.8385
   34POPC   H2Y 4546   2.930   1.061  10.278  1.1468  0.9393 -0.9205
   34POPC   C23 4547   3.204   0.337  10.014  0.6489  0.2189 -0.1713
   34POPC   H3R 4548   3.132   0.253  10.002 -0.2086  0.9675 -0.4655
   34POPC   H3S 4549   3.301   0.312   9.966  1.3633 -0.5621  1.5855
   34POPC   C24 4550   3.153   0.461   9.928  0.4015 -0.0437  0.4943
   34POPC   H4R 4551   3.228   0.544   9.927 -0.0034  0.3512 -1.6170
   34POPC   H4S 4552   3.064   0.512   9.969  0.3105 -0.7217  1.1614
   34POPC   C25 4553   3.123   0.429   9.789 -0.1492  0.3027  0.3067
   34POPC   H5R 4554   3.200   0.361   9.746  0.0290 -0.8205  2.2969
   34POPC   H5S 4555   3.123   0.522   9.729  1.8803  1.1857  1.5724
   34POPC   C26 4556   2.979   0.363   9.782  0.0132  0.1064 -0.8896
   34POPC   H6R 4557   2.904   0.428   9.832 -0.4220 -0.3932 -0.8846
   34POPC   H6S 4558   2.984   0.274   9.849  1.4386  1.5335  1.0437
   34POPC   C27 4559   2.915   0.320   9.647  1.1504  0.6370 -0.1217
   34POPC   H7R 4560   2.805   0.326   9.662  1.0741 -0.8622  0.0524
   34POPC   H7S 4561   2.960   0.220   9.627  3.4308  1.6801 -0.4596
   34POPC   C28 4562   2.942   0.416   9.530  0.1392  0.3415 -0.6064
   34POPC   H8R 4563   3.047   0.427   9.494 -0.5257  0.6460 -2.5879
   34POPC   H8S 4564   2.915   0.521   9.553  1.3524  1.0526 -2.2113
   34POPC   C29 4565   2.848   0.399   9.417 -0.2906  0.1541  0.8706
   34POPC   H91 4566   2.750   0.440   9.444 -0.4645 -0.1434  0.6878
   34POPC  C210 4567   2.873   0.353   9.293  0.1484 -0.2643 -0.2669
   34POPC  H101 4568   2.797   0.362   9.214 -0.1144 -0.1125  0.0018
   34POPC  C211 4569   3.012   0.301   9.254 -0.1116 -0.4892 -0.0128
   34POPC  H11R 4570   2.995   0.212   9.191  2.1893 -0.2032 -1.1155
   34POPC  H11S 4571   3.065   0.274   9.348  0.6836 -1.2229 -0.6572
   34POPC  C212 4572   3.094   0.407   9.172  0.2892  0.2228 -0.2792
   34POPC  H12R 4573   3.189   0.356   9.145 -0.0504 -1.2161  1.1450
   34POPC  H12S 4574   3.120   0.491   9.240 -0.1994 -1.1686  1.6822
   34POPC  C213 4575   3.028   0.447   9.042  0.0180 -0.9216 -0.1650
   34POPC  H13R 4576   3.084   0.535   9.005  1.6432 -1.9328 -0.1763
   34POPC  H13S 4577   2.921   0.476   9.049 -0.2906 -1.4842 -1.9425
   34POPC  C214 4578   3.043   0.351   8.925 -0.0193  0.4056  0.8745
   34POPC  H14R 4579   3.018   0.247   8.955  0.0756  0.4864  1.2413
   34POPC  H14S 4580   3.151   0.349   8.901  0.5431  0.1802  3.1580
   34POPC  C215 4581   2.960   0.394   8.800 -0.4113  0.6848 -0.3775
   34POPC  H15R 4582   3.019   0.471   8.747 -1.7487  1.5121 -0.7262
   34POPC  H15S 4583   2.876   0.446   8.850  0.4927  1.6642  0.1546
   34POPC  C216 4584   2.909   0.285   8.710 -0.9897  0.1914  0.4179
   34POPC  H16R 4585   2.848   0.212   8.766 -2.7535 -0.8442 -2.6289
   34POPC  H16S 4586   2.992   0.236   8.654 -0.5138 -0.2373  1.4767
   34POPC  C217 4587   2.822   0.357   8.602 -0.2415 -0.1242 -0.2915
   34POPC  H17R 4588   2.889   0.441   8.576 -1.1350  1.0408  1.0739
   34POPC  H17S 4589   2.730   0.400   8.647  1.2933  1.6308  1.3146
   34POPC  C218 4590   2.783   0.259   8.478  0.0398 -0.7915 -0.5075
   34POPC  H18R 4591   2.725   0.166   8.499 -1.9590  0.3122 -0.8944
   34POPC  H18S 4592   2.870   0.212   8.428 -0.8753 -5.4190  1.6599
   34POPC  H18T 4593   2.738   0.321   8.398  0.9362 -0.3248 -0.6493
   34POPC   C33 4594   3.017   0.944  10.114  1.2098 -0.2240 -0.5890
   34POPC   H3X 4595   2.990   1.021  10.039  1.0731 -2.0998 -2.5922
   34POPC   H3Y 4596   2.940   0.868  10.088  0.4800 -0.1742  1.3406
   34POPC   C34 4597   3.160   0.902  10.071  0.7603  0.3824 -0.1143
   34POPC   H4X 4598   3.191   0.836  10.155  0.2744  0.8324  0.4336
   34POPC   H4Y 4599   3.225   0.991  10.066  0.6265  0.4313 -1.1946
   34POPC   C35 4600   3.167   0.829   9.933 -0.0131 -0.8681 -0.5778
   34POPC   H5X 4601   3.092   0.746   9.930 -1.0209 -0.1608  2.1836
   34POPC   H5Y 4602   3.270   0.793   9.916  0.4169  0.8016 -1.6808
   34POPC   C36 4603   3.129   0.922   9.814 -0.0319  0.5593 -0.3242
   34POPC   H6X 4604   3.202   1.001   9.788  0.1020  0.8882  0.9800
   34POPC   H6Y 4605   3.028   0.968   9.823 -0.0905  0.1795  1.0416
   34POPC   C37 4606   3.111   0.830   9.691  0.5674 -0.1197 -0.4336
   34POPC   H7X 4607   3.042   0.744   9.703 -0.6739  0.9641  0.4800
   34POPC   H7Y 4608   3.210   0.785   9.668  1.6926  1.4456  1.0905
   34POPC   C38 4609   3.069   0.902   9.569  0.3159 -0.9233  0.4089
   34POPC   H8X 4610   3.144   0.976   9.535  0.2004 -0.3565  1.3520
   34POPC   H8Y 4611   2.981   0.968   9.584 -0.1985 -1.4743 -0.1122
   34POPC   C39 4612   3.025   0.809   9.460  0.4001  0.1435  0.3086
   34POPC   H9X 4613   2.940   0.744   9.492 -0.3476  0.6248 -0.6366
   34POPC   H9Y 4614   3.107   0.735   9.447  1.2374  0.4595  3.1237
   34POPC  C310 4615   2.980   0.886   9.337 -0.1819 -0.2843  0.4160
   34POPC  H10X 4616   3.066   0.949   9.305  0.6356 -1.8883 -0.7083
   34POPC  H10Y 4617   2.904   0.962   9.365  0.6270 -0.0191  1.9658
   34POPC  C311 4618   2.940   0.796   9.221  0.4430 -0.0930  0.4553
   34POPC  H11X 4619   2.860   0.731   9.263  1.1042 -0.9712  0.4001
   34POPC  H11Y 4620   3.024   0.727   9.198  0.0053 -0.0187 -1.5955
   34POPC  C312 4621   2.901   0.879   9.107 -0.9609  0.0728 -0.1991
   34POPC  H12X 4622   2.991   0.938   9.078 -2.2083  2.5720  0.6969
   34POPC  H12Y 4623   2.816   0.944   9.137  1.0642  2.0707  1.5307
   34POPC  C313 4624   2.856   0.797   8.986 -0.0407  1.2391 -0.4518
   34POPC  H13X 4625   2.786   0.718   9.020 -0.3510  1.1025 -1.3904
   34POPC  H13Y 4626   2.945   0.739   8.954 -1.1478  0.4372 -2.2291
   34POPC  C314 4627   2.802   0.875   8.865 -0.2380 -0.0673  0.0118
   34POPC  H14X 4628   2.721   0.948   8.886  0.0963  0.8315 -1.6604
   34POPC  H14Y 4629   2.761   0.789   8.809  0.2699  0.0630 -0.5746
   34POPC  C315 4630   2.906   0.951   8.782  0.0575 -0.2526 -0.3652
   34POPC  H15X 4631   2.997   0.892   8.758 -0.0657 -1.6824  2.2547
   34POPC  H15Y 4632   2.942   1.039   8.838 -2.2265 -0.5738  1.8067
   34POPC  C316 4633   2.848   0.997   8.645 -0.4454 -0.0632  0.0140
   34POPC  H16X 4634   2.930   1.049   8.592 -0.8280 -0.6314 -1.1713
   34POPC  H16Y 4635   2.768   1.072   8.665  1.4475  1.1357  4.4013
   34POPC  H16Z 4636   2.811   0.905   8.594 -0.5480 -0.7054  1.1995
   35POPC     N 4637   1.544   4.076  11.135 -0.3461  0.2109  0.2584
   35POPC   C12 4638   1.679   4.008  11.099  0.4396 -0.2848  1.1900
   35POPC  H12A 4639   1.661   3.927  11.031  2.9555 -0.3844  0.5428
   35POPC  H12B 4640   1.722   3.953  11.181  2.3676  0.2210  0.5822
   35POPC   C13 4641   1.565   4.162  11.261 -0.4169 -0.0511  0.6591
   35POPC  H13A 4642   1.656   4.221  11.254 -1.0838  0.8278 -1.6929
   35POPC  H13B 4643   1.479   4.226  11.273 -2.0657 -1.9434 -0.4851
   35POPC  H13C 4644   1.574   4.103  11.350 -0.0511 -1.5731 -0.3532
   35POPC   C14 4645   1.505   4.169  11.025  0.0568  0.7145  0.2809
   35POPC  H14A 4646   1.508   4.107  10.936 -0.3524  0.2169  0.6035
   35POPC  H14B 4647   1.405   4.196  11.055  0.0926 -1.7833  3.1940
   35POPC  H14C 4648   1.572   4.253  11.018  1.2207 -0.3156 -1.5572
   35POPC   C15 4649   1.441   3.976  11.160 -0.7029 -0.4248 -0.1179
   35POPC  H15A 4650   1.352   4.035  11.179  0.7009  2.4870 -1.7791
   35POPC  H15B 4651   1.468   3.922  11.248  0.6626  1.7833  0.9014
   35POPC  H15C 4652   1.414   3.922  11.070  1.2231  0.8763 -1.5805
   35POPC   C11 4653   1.791   4.095  11.038  0.3701  0.3937 -0.3871
   35POPC  H11A 4654   1.763   4.149  10.944 -0.3151 -0.6104 -0.7828
   35POPC  H11B 4655   1.865   4.023  10.997 -1.8858 -1.6444 -1.1222
   35POPC     P 4656   1.938   4.163  11.240  0.1620  0.2633  0.1897
   35POPC   O13 4657   1.975   4.017  11.229 -0.1520 -0.0613  0.2028
   35POPC   O14 4658   1.875   4.195  11.368 -0.4164  0.2565  0.1113
   35POPC   O12 4659   1.842   4.199  11.125 -0.3249  0.1038 -0.1641
   35POPC   O11 4660   2.070   4.258  11.223 -0.1714  0.3623 -0.3977
   35POPC    C1 4661   2.081   4.345  11.108 -0.0570 -0.5603  0.8286
   35POPC    HA 4662   2.173   4.404  11.131  1.2519 -1.9594 -0.5954
   35POPC    HB 4663   1.993   4.411  11.100  0.4010  0.2098  1.8897
   35POPC    C2 4664   2.104   4.277  10.973  0.3971 -0.1757  0.7091
   35POPC    HS 4665   2.019   4.207  10.958  0.5024 -0.0911 -0.3281
   35POPC   O21 4666   2.224   4.198  10.986 -0.2584  0.0883  0.1674
   35POPC   C21 4667   2.238   4.087  10.913  0.8875 -0.0795 -0.1839
   35POPC   O22 4668   2.140   4.025  10.868  0.5257  0.0483  0.1689
   35POPC   C22 4669   2.380   4.058  10.883  0.1802  0.0724  0.1672
   35POPC   H2R 4670   2.432   4.018  10.972 -0.6271  0.3192  0.7637
   35POPC   H2S 4671   2.423   4.151  10.840 -1.0400 -0.3661 -2.1887
   35POPC    C3 4672   2.101   4.379  10.850 -0.2540 -0.4178 -0.3692
   35POPC    HX 4673   2.182   4.448  10.882 -1.1705 -0.1862  1.5636
   35POPC    HY 4674   2.009   4.442  10.847 -0.1808 -0.1684  1.4662
   35POPC   O31 4675   2.127   4.326  10.719  0.6826  0.6861 -0.0918
   35POPC   C31 4676   2.043   4.229  10.679  0.8027  0.1434 -1.1464
   35POPC   O32 4677   1.943   4.192  10.743 -0.3570 -0.1195  0.5734
   35POPC   C32 4678   2.090   4.156  10.555  0.1601  0.0839  0.5241
   35POPC   H2X 4679   2.081   4.046  10.568  2.7709 -0.0043  2.1914
   35POPC   H2Y 4680   2.198   4.178  10.545  0.0283  1.3802  1.7146
   35POPC   C23 4681   2.400   3.961  10.755 -0.3514  0.0737  0.2369
   35POPC   H3R 4682   2.500   3.972  10.708 -0.6826  1.9329 -0.1149
   35POPC   H3S 4683   2.330   4.004  10.681 -0.4078 -0.7425 -0.1897
   35POPC   C24 4684   2.374   3.817  10.789 -0.4506 -0.5898 -0.0377
   35POPC   H4R 4685   2.274   3.807  10.835 -0.8377 -0.3473 -0.8121
   35POPC   H4S 4686   2.446   3.790  10.869 -0.4104 -1.9470 -0.5027
   35POPC   C25 4687   2.403   3.707  10.686 -0.5312 -0.2631 -0.1593
   35POPC   H5R 4688   2.390   3.611  10.741 -3.7920  0.9893  1.5701
   35POPC   H5S 4689   2.510   3.718  10.661 -0.5040  0.0610  0.0935
   35POPC   C26 4690   2.325   3.710  10.560  0.3432 -0.6764  0.2973
   35POPC   H6R 4691   2.348   3.624  10.494  0.6213  0.5984 -1.3180
   35POPC   H6S 4692   2.358   3.796  10.498  3.3053 -1.9787 -0.0966
   35POPC   C27 4693   2.177   3.730  10.585  0.0424  0.2451 -0.7127
   35POPC   H7R 4694   2.170   3.819  10.650 -0.1394 -0.2619 -0.0156
   35POPC   H7S 4695   2.144   3.651  10.656 -0.0549  1.2760  0.4148
   35POPC   C28 4696   2.093   3.750  10.465 -0.0451  0.2357  0.8713
   35POPC   H8R 4697   2.132   3.835  10.405  0.1108 -1.7255 -2.0164
   35POPC   H8S 4698   1.987   3.774  10.485  0.4206  2.7696  0.5602
   35POPC   C29 4699   2.091   3.626  10.376  0.3861 -1.1856  0.3532
   35POPC   H91 4700   2.053   3.532  10.420 -0.2211 -0.4904  1.3449
   35POPC  C210 4701   2.151   3.617  10.257 -1.0424  0.0968  0.8682
   35POPC  H101 4702   2.160   3.531  10.189  1.1178  1.0071 -0.0734
   35POPC  C211 4703   2.238   3.730  10.206 -0.2029  0.5467  0.3003
   35POPC  H11R 4704   2.315   3.752  10.283  0.6855 -1.5136  0.0550
   35POPC  H11S 4705   2.171   3.817  10.188 -0.0310  0.2065 -2.3613
   35POPC  C212 4706   2.329   3.704  10.084 -0.1784 -0.1642  0.3583
   35POPC  H12R 4707   2.399   3.621  10.109  0.1265  0.6537  2.4721
   35POPC  H12S 4708   2.381   3.801  10.071  0.4426 -0.5991 -0.5580
   35POPC  C213 4709   2.247   3.671   9.968  0.5571 -0.5441  0.7837
   35POPC  H13R 4710   2.157   3.737   9.968 -0.6092 -2.0706  0.1283
   35POPC  H13S 4711   2.212   3.568   9.988  1.2597 -0.6888  1.2876
   35POPC  C214 4712   2.322   3.678   9.831 -0.4331  0.0324 -0.2553
   35POPC  H14R 4713   2.409   3.609   9.823 -1.2886 -1.0058 -0.7816
   35POPC  H14S 4714   2.355   3.784   9.823  0.9890 -0.1171  2.3073
   35POPC  C215 4715   2.226   3.661   9.711 -0.6408  0.2715  0.5270
   35POPC  H15R 4716   2.127   3.713   9.719 -0.7978  0.3100 -1.2839
   35POPC  H15S 4717   2.190   3.556   9.721 -0.9168  0.3513  0.3816
   35POPC  C216 4718   2.287   3.707   9.574 -0.6539  0.3264  0.5809
   35POPC  H16R 4719   2.385   3.656   9.565 -0.7567 -0.0012  1.2258
   35POPC  H16S 4720   2.317   3.814   9.571 -0.3763  0.2501  0.6481
   35POPC  C217 4721   2.189   3.667   9.461 -0.5270  0.5327  0.0515
   35POPC  H17R 4722   2.092   3.716   9.484  0.2935  2.8582 -1.0840
   35POPC  H17S 4723   2.180   3.557   9.465  0.5985  0.4512  2.1075
   35POPC  C218 4724   2.238   3.717   9.321 -0.3225 -0.2552 -0.0600
   35POPC  H18R 4725   2.335   3.664   9.307  0.5692  1.3352 -0.0896
   35POPC  H18S 4726   2.255   3.826   9.319 -0.4805 -0.2418 -1.4094
   35POPC  H18T 4727   2.163   3.688   9.245 -0.2080  2.7988 -1.4555
   35POPC   C33 4728   2.012   4.220  10.442  0.3551  0.1726  0.0807
   35POPC   H3X 4729   2.070   4.193  10.352  0.3989 -0.4389  0.2855
   35POPC   H3Y 4730   2.009   4.331  10.453 -0.5296  0.0755  1.0614
   35POPC   C34 4731   1.872   4.161  10.423 -0.0482 -0.3639 -0.0362
   35POPC   H4X 4732   1.820   4.171  10.521  2.6270 -0.6704  1.4969
   35POPC   H4Y 4733   1.878   4.051  10.408 -1.5173 -0.8361  2.2957
   35POPC   C35 4734   1.789   4.233  10.318  0.0495  0.1126 -1.0123
   35POPC   H5X 4735   1.793   4.344  10.317  0.3068  0.1513  0.8094
   35POPC   H5Y 4736   1.683   4.210  10.342  0.6354 -2.0708 -0.3129
   35POPC   C36 4737   1.806   4.175  10.175  0.2586 -0.4263  0.0124
   35POPC   H6X 4738   1.752   4.080  10.154  2.2408 -1.4586 -0.6978
   35POPC   H6Y 4739   1.917   4.167  10.163  0.3005 -1.0741  0.7462
   35POPC   C37 4740   1.747   4.277  10.077 -0.2365 -0.2801 -0.2695
   35POPC   H7X 4741   1.812   4.368  10.074 -1.3792  0.5529 -2.1379
   35POPC   H7Y 4742   1.648   4.320  10.102  1.0236  1.4837  2.1090
   35POPC   C38 4743   1.761   4.233   9.933  0.3071  0.6440  0.1642
   35POPC   H8X 4744   1.721   4.324   9.884 -0.1047  0.4497  0.1295
   35POPC   H8Y 4745   1.690   4.152   9.904  0.8749  0.6615 -1.3151
   35POPC   C39 4746   1.900   4.186   9.890  0.4718 -0.1519 -0.1411
   35POPC   H9X 4747   1.930   4.090   9.938 -0.4193 -0.4887 -0.2478
   35POPC   H9Y 4748   1.976   4.260   9.923  2.0205 -1.8541  0.3025
   35POPC  C310 4749   1.909   4.179   9.736  0.4244 -0.6932  0.1862
   35POPC  H10X 4750   1.865   4.275   9.701 -3.9085 -1.3478  3.1023
   35POPC  H10Y 4751   1.858   4.086   9.704  1.8030 -0.9262 -1.4538
   35POPC  C311 4752   2.048   4.165   9.679 -0.0319 -0.1540  0.2140
   35POPC  H11X 4753   2.095   4.078   9.730 -0.0146  1.2803  2.8228
   35POPC  H11Y 4754   2.122   4.238   9.718  1.2807 -1.3525  0.0593
   35POPC  C312 4755   2.068   4.174   9.525  0.3926 -0.5453 -0.7139
   35POPC  H12X 4756   2.175   4.158   9.499  0.1328 -0.9646 -1.5641
   35POPC  H12Y 4757   2.027   4.266   9.477 -2.3474 -0.3543  1.7270
   35POPC  C313 4758   1.994   4.060   9.443 -0.6979 -0.6180 -0.8214
   35POPC  H13X 4759   1.890   4.087   9.468 -1.3669 -2.2232 -1.7402
   35POPC  H13Y 4760   2.019   3.960   9.486 -0.9733  0.5828  2.4132
   35POPC  C314 4761   2.017   4.054   9.287 -0.1879  0.2956 -0.5792
   35POPC  H14X 4762   2.124   4.027   9.280 -0.2298  0.2330 -1.0386
   35POPC  H14Y 4763   2.002   4.156   9.245 -0.5456  1.0273  1.2470
   35POPC  C315 4764   1.932   3.951   9.206 -0.4151 -0.0787  0.8386
   35POPC  H15X 4765   1.826   3.985   9.205 -0.1077  1.1111 -2.3959
   35POPC  H15Y 4766   1.943   3.849   9.249 -1.8573 -0.5131  0.2397
   35POPC  C316 4767   1.969   3.948   9.056 -0.9689 -0.2210 -0.5646
   35POPC  H16X 4768   2.003   4.044   9.010  2.6264  0.1797  2.4274
   35POPC  H16Y 4769   1.891   3.896   8.997 -2.8461 -0.2293  1.7597
   35POPC  H16Z 4770   2.051   3.874   9.050 -0.9093 -0.2385  0.3787
   36POPC     N 4771   3.757   3.099  10.788 -0.3745 -0.1199  0.8326
   36POPC   C12 4772   3.716   3.183  10.907  0.4358  0.1014  0.3438
   36POPC  H12A 4773   3.796   3.248  10.940  1.4378 -0.8750 -0.1181
   36POPC  H12B 4774   3.690   3.115  10.986  0.2266 -1.2246 -0.8214
   36POPC   C13 4775   3.672   2.977  10.776  0.8213  0.1981 -0.5965
   36POPC  H13A 4776   3.571   3.007  10.752  1.4376  1.2383 -2.0575
   36POPC  H13B 4777   3.713   2.915  10.698  0.8076  1.1324 -1.3693
   36POPC  H13C 4778   3.667   2.921  10.869  0.7643  1.6815  0.3349
   36POPC   C14 4779   3.748   3.174  10.657  0.3798  0.3202 -0.4945
   36POPC  H14A 4780   3.655   3.229  10.650 -0.1176 -0.2607  1.2027
   36POPC  H14B 4781   3.819   3.255  10.649  0.8557 -0.1808 -1.5073
   36POPC  H14C 4782   3.751   3.106  10.573 -0.2340 -1.6766  1.0300
   36POPC   C15 4783   3.906   3.069  10.805  0.5960  0.9636 -0.0832
   36POPC  H15A 4784   3.922   3.024  10.902  0.4575  1.2849  0.0906
   36POPC  H15B 4785   3.964   3.160  10.803 -0.6081  1.7469 -1.3540
   36POPC  H15C 4786   3.941   3.011  10.720 -1.4493  0.9569 -0.9910
   36POPC   C11 4787   3.582   3.262  10.895  0.0560 -0.2882 -1.0537
   36POPC  H11A 4788   3.582   3.334  10.811  1.2882 -0.1560 -0.9533
   36POPC  H11B 4789   3.565   3.321  10.988 -2.8631  1.8345 -2.7736
   36POPC     P 4790   3.354   3.162  10.788 -0.4388  0.4147  0.3270
   36POPC   O13 4791   3.233   3.152  10.872 -0.3399 -0.1229  0.1698
   36POPC   O14 4792   3.379   3.057  10.682 -0.2107  0.0793  0.6845
   36POPC   O12 4793   3.476   3.166  10.886 -0.1606  0.2373  0.1918
   36POPC   O11 4794   3.352   3.305  10.721 -0.8798 -0.3648  0.1578
   36POPC    C1 4795   3.244   3.394  10.740  0.6227 -0.1800 -0.0610
   36POPC    HA 4796   3.282   3.494  10.709 -0.7371  0.6525  0.8497
   36POPC    HB 4797   3.210   3.400  10.846  0.9654 -2.4325  0.2211
   36POPC    C2 4798   3.117   3.362  10.647  0.0314 -0.5260 -0.5900
   36POPC    HS 4799   3.078   3.263  10.676  0.5193 -1.1337 -1.9043
   36POPC   O21 4800   3.161   3.363  10.507 -0.0011  0.7905 -0.1557
   36POPC   C21 4801   3.157   3.249  10.442  0.1864 -0.4810  0.3712
   36POPC   O22 4802   3.118   3.143  10.484 -0.5935  0.5287  0.2279
   36POPC   C22 4803   3.183   3.288  10.292  0.9792  0.0043 -1.0612
   36POPC   H2R 4804   3.281   3.339  10.282  0.1369  1.8356 -0.3314
   36POPC   H2S 4805   3.112   3.370  10.271  0.3554 -0.7273 -1.9139
   36POPC    C3 4806   3.002   3.461  10.665  0.9982 -0.7697 -0.9252
   36POPC    HX 4807   3.042   3.564  10.656  1.4268 -0.7210  0.9738
   36POPC    HY 4808   2.967   3.457  10.771  2.8587 -0.1031 -0.2350
   36POPC   O31 4809   2.894   3.439  10.570  0.4240  0.1500 -0.0242
   36POPC   C31 4810   2.791   3.362  10.600 -0.6329  0.4236  0.9192
   36POPC   O32 4811   2.789   3.285  10.695 -0.1435 -0.1045  0.4986
   36POPC   C32 4812   2.679   3.384  10.502  0.2296  0.0741 -0.5852
   36POPC   H2X 4813   2.723   3.406  10.402 -1.5394  0.6674 -1.2905
   36POPC   H2Y 4814   2.627   3.479  10.526 -0.6309  0.1488 -2.5090
   36POPC   C23 4815   3.163   3.180  10.184 -0.7553  0.0614  0.0894
   36POPC   H3R 4816   3.061   3.138  10.177  0.6189 -3.4093 -1.3143
   36POPC   H3S 4817   3.225   3.099  10.228  0.6204  1.3526  0.6376
   36POPC   C24 4818   3.223   3.219  10.052  0.9228  0.7785 -0.2934
   36POPC   H4R 4819   3.205   3.137   9.979 -2.0879  2.0483 -1.1362
   36POPC   H4S 4820   3.332   3.238  10.066  0.9005  0.8495 -0.2184
   36POPC   C25 4821   3.154   3.353  10.010 -0.7295 -0.1354 -0.0745
   36POPC   H5R 4822   3.197   3.434  10.073 -1.6540  0.8984 -0.7155
   36POPC   H5S 4823   3.043   3.348  10.006 -0.8735  2.2168 -0.7748
   36POPC   C26 4824   3.198   3.371   9.866 -0.5149 -0.6423  0.0241
   36POPC   H6R 4825   3.165   3.276   9.819 -1.3721 -0.3821  0.0817
   36POPC   H6S 4826   3.307   3.390   9.856 -0.6582  0.8245  0.9707
   36POPC   C27 4827   3.118   3.484   9.801  0.1528  0.1438 -0.3893
   36POPC   H7R 4828   3.143   3.580   9.851  1.8084  0.0944 -1.0437
   36POPC   H7S 4829   3.011   3.467   9.824  0.2172 -0.6923 -0.6825
   36POPC   C28 4830   3.137   3.491   9.651 -0.2597  1.2743  0.4378
   36POPC   H8R 4831   3.086   3.407   9.599 -0.7359  0.1668  2.5905
   36POPC   H8S 4832   3.243   3.495   9.616 -0.7528  2.0174 -1.0705
   36POPC   C29 4833   3.062   3.613   9.603  0.2930  0.8101 -0.2343
   36POPC   H91 4834   2.997   3.659   9.679 -1.3928 -2.1634  0.2412
   36POPC  C210 4835   3.073   3.664   9.484  0.7124 -0.5064 -0.0390
   36POPC  H101 4836   3.002   3.749   9.475  0.4540 -0.6469  0.5666
   36POPC  C211 4837   3.136   3.610   9.362 -0.3473 -0.2630  0.7651
   36POPC  H11R 4838   3.058   3.564   9.298  0.0463 -2.6932  1.9331
   36POPC  H11S 4839   3.205   3.530   9.398  1.5178  1.4238  1.1569
   36POPC  C212 4840   3.231   3.704   9.290 -0.0259  0.1953  0.9363
   36POPC  H12R 4841   3.322   3.655   9.250 -0.4902  0.9419 -1.1951
   36POPC  H12S 4842   3.272   3.785   9.353  1.2412 -0.3861  0.8826
   36POPC  C213 4843   3.177   3.765   9.153  0.7069 -0.3696  0.2319
   36POPC  H13R 4844   3.078   3.815   9.165  0.7856 -0.1288 -0.1243
   36POPC  H13S 4845   3.155   3.680   9.086 -0.0238 -0.1126  0.1369
   36POPC  C214 4846   3.279   3.863   9.102 -0.3016  1.0442 -0.6126
   36POPC  H14R 4847   3.380   3.817   9.108 -0.0223  1.7682  0.5499
   36POPC  H14S 4848   3.280   3.961   9.154 -2.2254  1.3021 -1.0153
   36POPC  C215 4849   3.252   3.908   8.964 -0.0702  0.5299  0.4216
   36POPC  H15R 4850   3.326   3.988   8.942 -0.6524  1.8119  2.7609
   36POPC  H15S 4851   3.157   3.966   8.962 -0.2423  0.3791  2.2877
   36POPC  C216 4852   3.273   3.805   8.851  0.0382  0.2299 -0.0449
   36POPC  H16R 4853   3.262   3.851   8.751 -2.4622 -2.0082 -0.9001
   36POPC  H16S 4854   3.197   3.728   8.874  0.3130 -0.3781 -1.1448
   36POPC  C217 4855   3.405   3.729   8.854  0.0605 -0.5061  0.4821
   36POPC  H17R 4856   3.405   3.674   8.950  1.1289 -0.3014  0.6131
   36POPC  H17S 4857   3.495   3.794   8.847  1.2998 -2.2177 -0.4753
   36POPC  C218 4858   3.424   3.626   8.739  0.6343 -0.2711  0.8550
   36POPC  H18R 4859   3.455   3.685   8.650  1.2265 -0.2588  1.0613
   36POPC  H18S 4860   3.329   3.580   8.705  0.6000  1.8306 -2.2718
   36POPC  H18T 4861   3.498   3.551   8.774  2.1275  1.1033  0.7555
   36POPC   C33 4862   2.569   3.270  10.497 -0.1629 -0.1906 -0.7090
   36POPC   H3X 4863   2.538   3.251  10.603 -0.8029 -2.8642 -1.2974
   36POPC   H3Y 4864   2.623   3.179  10.462  2.0736  0.4073  0.9345
   36POPC   C34 4865   2.440   3.314  10.427  0.0708 -0.5030  0.2967
   36POPC   H4X 4866   2.387   3.386  10.493 -1.1828 -1.1041 -0.0118
   36POPC   H4Y 4867   2.381   3.219  10.426  0.4041 -0.7095  0.1704
   36POPC   C35 4868   2.456   3.367  10.282  0.6966  0.1497 -0.3065
   36POPC   H5X 4869   2.510   3.464  10.290 -0.2730  0.6459  0.2907
   36POPC   H5Y 4870   2.353   3.393  10.253  0.6464  1.5895  1.0140
   36POPC   C36 4871   2.525   3.283  10.184  0.5843 -0.0511 -0.4125
   36POPC   H6X 4872   2.475   3.187  10.159 -1.4190  0.1784  2.2718
   36POPC   H6Y 4873   2.625   3.265  10.228  0.2520 -0.5189  0.1521
   36POPC   C37 4874   2.540   3.342  10.048  0.5251  0.3899  0.5955
   36POPC   H7X 4875   2.567   3.450  10.057  2.0234  0.3141 -1.8507
   36POPC   H7Y 4876   2.449   3.328   9.986  1.2487  1.9690 -0.9375
   36POPC   C38 4877   2.661   3.277   9.972 -0.3481  0.5357 -1.3331
   36POPC   H8X 4878   2.663   3.166   9.980  1.3430  0.5953 -0.3305
   36POPC   H8Y 4879   2.750   3.312  10.029 -0.7366  0.5005 -0.6923
   36POPC   C39 4880   2.676   3.327   9.834 -0.0424 -0.5194 -0.0695
   36POPC   H9X 4881   2.782   3.304   9.809 -0.0906 -1.8379  0.8239
   36POPC   H9Y 4882   2.662   3.437   9.842  0.5156 -0.4433 -0.1090
   36POPC  C310 4883   2.583   3.267   9.721  0.1144  0.4958 -0.2322
   36POPC  H10X 4884   2.478   3.288   9.751 -0.5186 -1.4369 -0.9598
   36POPC  H10Y 4885   2.587   3.156   9.718 -0.2272  0.4098  1.4013
   36POPC  C311 4886   2.604   3.329   9.584  0.2223  0.5515  0.0824
   36POPC  H11X 4887   2.573   3.436   9.585 -0.5028  0.3614 -1.0242
   36POPC  H11Y 4888   2.544   3.265   9.517 -1.4543  3.6669 -1.6158
   36POPC  C312 4889   2.753   3.323   9.533 -0.2930 -0.2037 -0.1293
   36POPC  H12X 4890   2.785   3.217   9.537 -1.5187 -0.5569  0.6470
   36POPC  H12Y 4891   2.823   3.367   9.608  0.1190 -0.4597 -0.3573
   36POPC  C313 4892   2.777   3.379   9.397 -0.5730  0.0241 -0.4608
   36POPC  H13X 4893   2.884   3.350   9.382 -0.6005 -0.6307  0.4985
   36POPC  H13Y 4894   2.786   3.490   9.406  1.1277 -0.2352  2.6814
   36POPC  C314 4895   2.686   3.339   9.283 -0.2248  0.2167  0.8941
   36POPC  H14X 4896   2.597   3.405   9.294 -1.3276 -0.2788 -3.3032
   36POPC  H14Y 4897   2.672   3.231   9.308  2.9772 -0.4825  0.0347
   36POPC  C315 4898   2.740   3.348   9.142  0.1092 -0.0232  0.5838
   36POPC  H15X 4899   2.676   3.293   9.070  1.1416 -0.1228 -0.2827
   36POPC  H15Y 4900   2.843   3.307   9.142  0.7004  1.3347 -1.0520
   36POPC  C316 4901   2.765   3.499   9.092  0.5508  0.4331 -0.1454
   36POPC  H16X 4902   2.668   3.553   9.084  0.5045  0.7055  1.7577
   36POPC  H16Y 4903   2.813   3.490   8.992 -0.5215 -1.1428 -0.5678
   36POPC  H16Z 4904   2.838   3.561   9.148  1.4072  0.3476 -1.1406
   37POPC     N 4905   2.924   3.740   6.394 -0.0909 -0.2013 -0.2917
   37POPC   C12 4906   2.963   3.608   6.468 -0.1168  0.0671 -0.5004
   37POPC  H12A 4907   2.997   3.640   6.566 -3.0161 -0.1168  0.6555
   37POPC  H12B 4908   3.043   3.560   6.414  2.3067  1.2287  1.8019
   37POPC   C13 4909   2.869   3.711   6.260 -0.0408  0.1972  0.1746
   37POPC  H13A 4910   2.865   3.798   6.196 -0.2751 -0.9494 -1.4454
   37POPC  H13B 4911   2.933   3.640   6.209  0.6249 -0.4451  1.8644
   37POPC  H13C 4912   2.769   3.670   6.268  0.1374  0.0741  2.0228
   37POPC   C14 4913   2.829   3.820   6.478 -0.4865  0.2040 -0.1676
   37POPC  H14A 4914   2.798   3.913   6.434 -3.0224 -0.7634 -0.5589
   37POPC  H14B 4915   2.745   3.759   6.508 -0.6782  0.6577  0.2265
   37POPC  H14C 4916   2.880   3.845   6.570 -1.1715 -1.1176  0.5971
   37POPC   C15 4917   3.048   3.814   6.376 -0.2093  0.0536 -0.3107
   37POPC  H15A 4918   3.042   3.902   6.314 -0.7307  0.2575  0.0180
   37POPC  H15B 4919   3.121   3.748   6.331 -0.5853 -2.0044  1.9032
   37POPC  H15C 4920   3.085   3.842   6.474 -2.5081  1.2813  0.2851
   37POPC   C11 4921   2.855   3.496   6.494  0.3968  0.2935 -0.1951
   37POPC  H11A 4922   2.901   3.431   6.572  0.7634 -0.2976 -0.8892
   37POPC  H11B 4923   2.859   3.437   6.400  2.6707  0.0570 -0.0281
   37POPC     P 4924   2.588   3.499   6.468  0.7902 -0.4262 -0.5546
   37POPC   O13 4925   2.612   3.475   6.328 -0.3687  0.8949  0.6599
   37POPC   O14 4926   2.496   3.610   6.498  0.3452 -0.6503 -0.0491
   37POPC   O12 4927   2.721   3.541   6.536  0.1425 -0.2554  0.3561
   37POPC   O11 4928   2.543   3.361   6.537  0.4796  0.3139  0.4458
   37POPC    C1 4929   2.410   3.310   6.535 -0.4114  0.2783 -0.1936
   37POPC    HA 4930   2.408   3.211   6.483  0.9084 -0.3851  0.9693
   37POPC    HB 4931   2.331   3.378   6.498 -0.2556  1.6743  1.8753
   37POPC    C2 4932   2.369   3.264   6.681  0.3467 -0.0785  0.1509
   37POPC    HS 4933   2.322   3.352   6.730  1.1771  0.7355 -0.4742
   37POPC   O21 4934   2.484   3.213   6.755  0.4216 -0.0463  0.5045
   37POPC   C21 4935   2.558   3.315   6.808  0.4739  0.5811  0.5556
   37POPC   O22 4936   2.516   3.425   6.824 -0.7333 -0.0415  0.4777
   37POPC   C22 4937   2.695   3.261   6.844  0.5825 -0.6060  0.5083
   37POPC   H2R 4938   2.767   3.298   6.768  0.8117 -1.3924  0.3415
   37POPC   H2S 4939   2.690   3.151   6.834  0.7131 -0.4330 -2.1751
   37POPC    C3 4940   2.261   3.153   6.688 -0.2228  0.2278 -0.1751
   37POPC    HX 4941   2.296   3.071   6.622  0.6628 -0.8188  1.5214
   37POPC    HY 4942   2.166   3.193   6.646 -0.3487 -0.3441 -0.4427
   37POPC   O31 4943   2.234   3.097   6.820  0.3182 -0.6669 -0.0421
   37POPC   C31 4944   2.277   2.976   6.860 -0.1273 -0.2151 -0.1691
   37POPC   O32 4945   2.346   2.900   6.791  0.7146 -0.5875 -0.4510
   37POPC   C32 4946   2.239   2.960   7.008 -0.1046 -0.0176 -0.1234
   37POPC   H2X 4947   2.128   2.967   7.006 -0.0576  0.6911 -0.7074
   37POPC   H2Y 4948   2.282   3.044   7.066  1.4540  0.4671 -1.8634
   37POPC   C23 4949   2.738   3.303   6.986  0.4256  0.7278  0.4692
   37POPC   H3R 4950   2.741   3.414   6.992  1.7599  0.6822  1.0554
   37POPC   H3S 4951   2.844   3.270   6.999  0.3388  0.3690  0.2881
   37POPC   C24 4952   2.667   3.254   7.109 -0.1289  0.0477  0.2838
   37POPC   H4R 4953   2.729   3.282   7.196 -0.6032  0.9850  0.3352
   37POPC   H4S 4954   2.657   3.143   7.109 -3.1006  0.2181  2.0966
   37POPC   C25 4955   2.522   3.292   7.115  0.5844  0.0782  0.4198
   37POPC   H5R 4956   2.460   3.223   7.054  0.2799  0.0259  0.7847
   37POPC   H5S 4957   2.510   3.391   7.066 -1.3346 -0.1038  0.4292
   37POPC   C26 4958   2.464   3.305   7.257  0.1189  0.3547  0.7447
   37POPC   H6R 4959   2.525   3.377   7.316  1.1924  1.0360 -1.1110
   37POPC   H6S 4960   2.457   3.203   7.299  0.7002 -0.5026 -1.1482
   37POPC   C27 4961   2.326   3.369   7.268  0.7279  0.8023  0.0485
   37POPC   H7R 4962   2.263   3.321   7.191  0.9204  0.2609  0.2260
   37POPC   H7S 4963   2.335   3.476   7.237  1.3230  1.2127  1.5186
   37POPC   C28 4964   2.274   3.372   7.413 -0.3311 -0.2604 -0.6636
   37POPC   H8R 4965   2.337   3.452   7.458  0.8166 -0.9375 -1.0290
   37POPC   H8S 4966   2.280   3.274   7.466 -0.9572  0.0239 -0.0419
   37POPC   C29 4967   2.122   3.400   7.438  0.7034 -0.1703 -0.1223
   37POPC   H91 4968   2.065   3.387   7.345 -0.7270  0.7947  0.5825
   37POPC  C210 4969   2.062   3.460   7.541 -0.6674 -0.3027 -0.2591
   37POPC  H101 4970   1.952   3.459   7.549 -0.6658 -0.4269 -0.2437
   37POPC  C211 4971   2.131   3.507   7.669 -0.2354  0.4135  0.4714
   37POPC  H11R 4972   2.102   3.614   7.678 -2.0020  0.0610 -0.4848
   37POPC  H11S 4973   2.241   3.510   7.659 -0.4162  1.5328 -1.5673
   37POPC  C212 4974   2.096   3.426   7.799 -0.1313  0.5849 -1.2206
   37POPC  H12R 4975   2.096   3.318   7.775  1.9429  0.3730 -0.4244
   37POPC  H12S 4976   1.992   3.457   7.825 -0.5439 -1.3805 -0.3414
   37POPC  C213 4977   2.191   3.454   7.919  0.4821 -0.0446 -0.9935
   37POPC  H13R 4978   2.202   3.562   7.943  2.5667 -0.3486 -0.3633
   37POPC  H13S 4979   2.292   3.415   7.893 -0.4507 -1.8752 -2.0411
   37POPC  C214 4980   2.137   3.391   8.047  0.4397 -0.7748  0.0583
   37POPC  H14R 4981   2.128   3.281   8.030  0.7987 -0.7565 -0.2562
   37POPC  H14S 4982   2.036   3.427   8.073  0.9681 -0.0291  1.1450
   37POPC  C215 4983   2.225   3.423   8.162  0.2855  0.7592 -0.6444
   37POPC  H15R 4984   2.233   3.533   8.169 -1.2599  1.0324 -2.5444
   37POPC  H15S 4985   2.318   3.366   8.143 -0.7355 -0.9578 -0.7601
   37POPC  C216 4986   2.154   3.366   8.290  0.3547  0.4713 -0.3480
   37POPC  H16R 4987   2.132   3.260   8.265 -0.1783  0.2717  0.8763
   37POPC  H16S 4988   2.058   3.422   8.301  1.1417  2.0348 -1.1138
   37POPC  C217 4989   2.235   3.377   8.423  0.4698 -0.3375 -0.5763
   37POPC  H17R 4990   2.224   3.486   8.444 -2.2119 -0.9172  1.6689
   37POPC  H17S 4991   2.339   3.351   8.397  0.7381  0.9253 -0.8348
   37POPC  C218 4992   2.177   3.292   8.539  0.1294  0.0199 -0.6471
   37POPC  H18R 4993   2.209   3.303   8.645 -1.4089 -2.3161  0.1361
   37POPC  H18S 4994   2.187   3.185   8.514 -0.8085 -0.4018  0.6656
   37POPC  H18T 4995   2.067   3.306   8.540 -0.1142 -1.7112 -0.9659
   37POPC   C33 4996   2.280   2.821   7.061  0.2411  0.5996 -0.0116
   37POPC   H3X 4997   2.292   2.753   6.974 -1.2090  1.6198 -1.0532
   37POPC   H3Y 4998   2.203   2.778   7.130  0.3748 -1.0962 -0.8581
   37POPC   C34 4999   2.419   2.820   7.140  0.2648 -0.3234  0.4630
   37POPC   H4X 5000   2.493   2.871   7.076  1.4402 -1.6872  0.6925
   37POPC   H4Y 5001   2.452   2.714   7.137  0.3224 -0.4182  2.8585
   37POPC   C35 5002   2.426   2.883   7.278  0.2557  0.6707 -0.2941
   37POPC   H5X 5003   2.377   2.819   7.356  3.3060  1.3068  2.3652
   37POPC   H5Y 5004   2.379   2.984   7.281 -0.7959  0.2004  2.1532
   37POPC   C36 5005   2.571   2.871   7.325 -0.0499 -0.0694  0.0808
   37POPC   H6X 5006   2.639   2.926   7.256 -0.5804 -2.1412 -2.2212
   37POPC   H6Y 5007   2.596   2.763   7.316 -1.5344 -0.8407  3.5584
   37POPC   C37 5008   2.583   2.906   7.474 -0.1397  0.3710 -0.7594
   37POPC   H7X 5009   2.673   2.858   7.519 -0.5382  2.0187  1.9996
   37POPC   H7Y 5010   2.496   2.868   7.531 -0.6230  0.8494 -1.1670
   37POPC   C38 5011   2.587   3.053   7.505 -0.2665 -0.6993  0.4195
   37POPC   H8X 5012   2.495   3.114   7.490 -0.0276 -0.5713 -0.6038
   37POPC   H8Y 5013   2.679   3.089   7.453 -0.7984  0.1881  0.0561
   37POPC   C39 5014   2.619   3.073   7.658 -0.2632 -0.0475 -0.5687
   37POPC   H9X 5015   2.668   3.172   7.654 -0.7512  0.1739 -1.2353
   37POPC   H9Y 5016   2.695   3.006   7.705 -0.8134  0.3194  0.9000
   37POPC  C310 5017   2.489   3.097   7.742  0.1523  0.3015  0.1084
   37POPC  H10X 5018   2.436   3.000   7.755 -1.9698  1.4549  0.4561
   37POPC  H10Y 5019   2.434   3.163   7.673 -1.4561 -0.1929  0.8687
   37POPC  C311 5020   2.502   3.163   7.883 -1.0531  0.1756  0.4783
   37POPC  H11X 5021   2.527   3.078   7.950 -0.7180  1.0433  1.4750
   37POPC  H11Y 5022   2.406   3.210   7.912 -0.3963  1.4712  0.6231
   37POPC  C312 5023   2.610   3.271   7.882  0.1969  0.1982 -0.0601
   37POPC  H12X 5024   2.604   3.344   7.799  3.6533 -1.9671 -2.5215
   37POPC  H12Y 5025   2.709   3.222   7.868  0.4051  0.0126  1.8019
   37POPC  C313 5026   2.603   3.335   8.020  0.4491  0.5981  0.2599
   37POPC  H13X 5027   2.608   3.248   8.088  2.4132  0.5427  0.0937
   37POPC  H13Y 5028   2.509   3.394   8.022 -1.8683 -2.8208 -0.5386
   37POPC  C314 5029   2.713   3.429   8.052  0.8644 -0.0104  0.4362
   37POPC  H14X 5030   2.669   3.496   8.130 -2.2845 -1.5150  0.1017
   37POPC  H14Y 5031   2.738   3.496   7.967  0.2484  0.5472  0.6833
   37POPC  C315 5032   2.847   3.370   8.091  0.8801  0.8142  0.1863
   37POPC  H15X 5033   2.867   3.296   8.011 -3.7264  0.1527 -0.6441
   37POPC  H15Y 5034   2.837   3.314   8.186 -2.0386 -0.0644 -0.5207
   37POPC  C316 5035   2.948   3.480   8.109  0.1349  0.3469 -0.2626
   37POPC  H16X 5036   2.955   3.550   8.023 -1.0769 -0.9927 -1.5066
   37POPC  H16Y 5037   3.051   3.445   8.134 -0.8443 -1.1481  1.9845
   37POPC  H16Z 5038   2.920   3.548   8.192 -0.7918  0.9626 -1.0519
   38POPC     N 5039   3.081   2.954   6.151 -0.2151  0.0499 -0.0271
   38POPC   C12 5040   3.096   2.989   6.300  0.2186  0.2166 -0.8653
   38POPC  H12A 5041   3.052   2.909   6.358  0.2473  1.6868  1.2903
   38POPC  H12B 5042   3.030   3.074   6.312 -1.9386 -1.0584 -2.6775
   38POPC   C13 5043   2.938   2.906   6.137  0.4504  0.2789 -0.6055
   38POPC  H13A 5044   2.907   2.835   6.213  1.5707 -0.1438 -0.5231
   38POPC  H13B 5045   2.875   2.992   6.153  1.6884  1.0373  0.2840
   38POPC  H13C 5046   2.916   2.857   6.043 -0.7603 -1.4330  0.5165
   38POPC   C14 5047   3.104   3.072   6.057 -0.9926  0.0417 -0.7035
   38POPC  H14A 5048   3.039   3.156   6.078 -0.7698  0.1912 -0.6091
   38POPC  H14B 5049   3.202   3.112   6.079 -1.1504  0.4545 -0.7329
   38POPC  H14C 5050   3.103   3.044   5.953 -0.6061  1.9813 -1.2826
   38POPC   C15 5051   3.171   2.839   6.111  1.2771 -0.7134 -0.0931
   38POPC  H15A 5052   3.180   2.837   6.003  3.6593 -0.1073  0.0398
   38POPC  H15B 5053   3.153   2.742   6.155 -2.1267  0.8819  2.4566
   38POPC  H15C 5054   3.275   2.869   6.112  1.3979 -0.8684 -2.2955
   38POPC   C11 5055   3.234   3.043   6.347 -0.8045 -0.3495 -0.3376
   38POPC  H11A 5056   3.304   2.957   6.334  1.2019  0.9219  1.4182
   38POPC  H11B 5057   3.231   3.064   6.456 -1.6309  1.0735 -0.6143
   38POPC     P 5058   3.195   3.302   6.315 -0.5208  0.0966 -0.0597
   38POPC   O13 5059   3.051   3.277   6.315  0.4844 -0.6431  0.8456
   38POPC   O14 5060   3.242   3.394   6.213  0.0395 -0.5298  0.3059
   38POPC   O12 5061   3.273   3.164   6.284 -0.3288 -0.2840  0.2620
   38POPC   O11 5062   3.248   3.336   6.458  0.2223  0.3384 -0.6810
   38POPC    C1 5063   3.388   3.384   6.476  0.3475  0.0729 -0.4775
   38POPC    HA 5064   3.387   3.431   6.577  0.3040  1.4968 -1.1259
   38POPC    HB 5065   3.416   3.456   6.397 -0.6469 -0.9108 -1.7677
   38POPC    C2 5066   3.494   3.274   6.482 -1.2995  0.5034  0.0613
   38POPC    HS 5067   3.513   3.248   6.376  1.2778 -0.1158  0.6039
   38POPC   O21 5068   3.446   3.169   6.565  0.0376 -0.5394 -0.1645
   38POPC   C21 5069   3.516   3.051   6.539  0.5594  0.0138 -0.5828
   38POPC   O22 5070   3.598   3.036   6.454 -0.2723 -0.0686 -0.2268
   38POPC   C22 5071   3.467   2.959   6.647 -0.2134  0.7116  0.1274
   38POPC   H2R 5072   3.366   2.920   6.621  0.5170 -0.1773 -1.5753
   38POPC   H2S 5073   3.470   2.998   6.750 -0.4383 -3.1393  1.7848
   38POPC    C3 5074   3.635   3.341   6.532  0.7538 -0.0168 -0.2364
   38POPC    HX 5075   3.650   3.437   6.479  0.5560  1.2750  1.9148
   38POPC    HY 5076   3.714   3.272   6.496  0.8790  0.0809 -0.1515
   38POPC   O31 5077   3.623   3.375   6.675  0.2012  0.1556 -0.4558
   38POPC   C31 5078   3.701   3.303   6.753 -0.2305  0.3515  0.3443
   38POPC   O32 5079   3.767   3.204   6.722 -0.0649  0.2617 -0.0188
   38POPC   C32 5080   3.683   3.361   6.896 -0.5315 -0.4556 -0.0573
   38POPC   H2X 5081   3.573   3.364   6.912 -0.3782 -0.7736  1.1700
   38POPC   H2Y 5082   3.717   3.466   6.884 -1.4301  0.1117  1.9670
   38POPC   C23 5083   3.556   2.827   6.650  0.3808  0.0595  0.4265
   38POPC   H3R 5084   3.664   2.851   6.649  0.6744 -0.9423  2.6088
   38POPC   H3S 5085   3.537   2.768   6.558  0.8259  0.1475  0.2769
   38POPC   C24 5086   3.515   2.741   6.769  0.6268  0.4751  0.8529
   38POPC   H4R 5087   3.407   2.715   6.762  0.4402  0.9347  1.8064
   38POPC   H4S 5088   3.540   2.792   6.865  2.5914 -1.1145  1.2475
   38POPC   C25 5089   3.605   2.613   6.772 -0.1251 -0.1942 -0.1266
   38POPC   H5R 5090   3.713   2.636   6.767 -0.5283  2.2628  0.8058
   38POPC   H5S 5091   3.586   2.553   6.681  1.3646 -0.8353 -0.0403
   38POPC   C26 5092   3.578   2.535   6.898 -0.1514 -0.0762  0.3316
   38POPC   H6R 5093   3.472   2.503   6.896  0.1899 -1.3077  0.9539
   38POPC   H6S 5094   3.590   2.592   6.993  3.1633  0.5664 -0.3561
   38POPC   C27 5095   3.662   2.402   6.912 -0.0645 -0.8704 -0.0401
   38POPC   H7R 5096   3.770   2.429   6.922  0.0094 -0.8422 -0.8518
   38POPC   H7S 5097   3.649   2.352   6.814 -1.5529  1.9703 -1.3950
   38POPC   C28 5098   3.629   2.308   7.029  0.3257 -0.1635  0.1158
   38POPC   H8R 5099   3.682   2.213   7.010  0.0858 -0.1110 -0.8785
   38POPC   H8S 5100   3.522   2.280   7.013  0.6593 -0.4903 -1.7224
   38POPC   C29 5101   3.658   2.367   7.161  0.5858 -0.2397  0.1494
   38POPC   H91 5102   3.661   2.477   7.160 -0.7731 -0.1865 -0.7216
   38POPC  C210 5103   3.689   2.301   7.274 -0.1079 -0.5762 -0.0903
   38POPC  H101 5104   3.734   2.352   7.360  1.6605 -0.7602 -0.8644
   38POPC  C211 5105   3.685   2.151   7.285  0.1265 -0.1094 -0.5361
   38POPC  H11R 5106   3.771   2.119   7.347 -0.6772  1.0494  1.2661
   38POPC  H11S 5107   3.694   2.100   7.187  0.9072 -2.2516  0.5826
   38POPC  C212 5108   3.573   2.093   7.366  0.4364 -0.0916  0.0171
   38POPC  H12R 5109   3.568   1.983   7.349 -0.5163  0.0448 -0.6632
   38POPC  H12S 5110   3.473   2.130   7.335  0.4440  1.7955  1.9989
   38POPC  C213 5111   3.568   2.130   7.517  0.1639  0.0394  0.3743
   38POPC  H13R 5112   3.598   2.231   7.552 -0.2305  0.6706 -1.0599
   38POPC  H13S 5113   3.642   2.061   7.562  0.6445  0.8095  0.7916
   38POPC  C214 5114   3.435   2.089   7.582  0.2868 -0.0054  0.4371
   38POPC  H14R 5115   3.406   1.985   7.557 -0.0808 -0.2872  1.9660
   38POPC  H14S 5116   3.360   2.160   7.542  1.8448  0.0819 -2.6809
   38POPC  C215 5117   3.441   2.099   7.737  0.6341  0.4987 -0.9645
   38POPC  H15R 5118   3.459   2.204   7.770  1.0901 -0.3907  1.8720
   38POPC  H15S 5119   3.522   2.037   7.780  1.4221  1.0212 -1.6485
   38POPC  C216 5120   3.305   2.055   7.799  0.5802 -0.2608  0.2220
   38POPC  H16R 5121   3.288   1.954   7.757  2.7281  0.0915 -1.7345
   38POPC  H16S 5122   3.228   2.130   7.771  1.4712  0.6369  0.0945
   38POPC  C217 5123   3.299   2.040   7.947 -0.3067 -0.2435  0.5764
   38POPC  H17R 5124   3.382   1.975   7.983 -0.7507 -0.8244  0.5631
   38POPC  H17S 5125   3.202   1.990   7.970  0.1874 -2.2538 -1.3180
   38POPC  C218 5126   3.311   2.174   8.028  0.2906  0.0830  0.3245
   38POPC  H18R 5127   3.224   2.241   8.018 -0.0081  0.6307  4.8292
   38POPC  H18S 5128   3.405   2.231   8.009 -0.4634  0.7050 -1.8137
   38POPC  H18T 5129   3.297   2.138   8.132 -2.4272 -2.6281 -0.8282
   38POPC   C33 5130   3.750   3.280   7.004 -0.7359  0.3191  0.5927
   38POPC   H3X 5131   3.859   3.268   6.986 -0.8046  0.0101  0.3666
   38POPC   H3Y 5132   3.700   3.181   7.014 -1.3611  0.5692  0.0595
   38POPC   C34 5133   3.737   3.355   7.132  0.6560  0.2723  0.6662
   38POPC   H4X 5134   3.628   3.370   7.148 -0.1143 -2.4258 -1.3276
   38POPC   H4Y 5135   3.777   3.459   7.130 -0.5904  0.7594 -0.4086
   38POPC   C35 5136   3.800   3.278   7.252 -0.4296 -0.7068 -0.0415
   38POPC   H5X 5137   3.909   3.269   7.235 -0.5300 -2.5613  0.0765
   38POPC   H5Y 5138   3.760   3.176   7.266  0.6950 -1.0084  1.2120
   38POPC   C36 5139   3.781   3.357   7.383  0.6916  0.6006 -0.4831
   38POPC   H6X 5140   3.671   3.365   7.400  0.4260  1.8163 -2.4552
   38POPC   H6Y 5141   3.826   3.459   7.384  1.9342  0.0755  1.4831
   38POPC   C37 5142   3.849   3.276   7.502  0.4105  0.4063 -1.2237
   38POPC   H7X 5143   3.957   3.296   7.486  0.0306  3.8556 -0.2426
   38POPC   H7Y 5144   3.832   3.167   7.490 -0.8414  0.5628 -0.9904
   38POPC   C38 5145   3.795   3.326   7.633  0.8432  0.0626 -0.3341
   38POPC   H8X 5146   3.698   3.276   7.653  0.5473  1.1827  1.2254
   38POPC   H8Y 5147   3.763   3.432   7.628  0.4844 -0.0380 -0.2160
   38POPC   C39 5148   3.890   3.291   7.752  0.6591  0.1610 -0.0972
   38POPC   H9X 5149   3.984   3.346   7.727  0.4877  0.4765 -0.0601
   38POPC   H9Y 5150   3.912   3.183   7.743 -0.5522 -0.1914  0.9048
   38POPC  C310 5151   3.848   3.336   7.896  0.6353  0.5182  0.5390
   38POPC  H10X 5152   3.744   3.317   7.929 -0.4995 -0.2159 -2.9943
   38POPC  H10Y 5153   3.848   3.447   7.895 -1.8988  0.5704 -0.5340
   38POPC  C311 5154   3.941   3.298   8.015 -0.2912  0.2739 -0.1737
   38POPC  H11X 5155   4.047   3.321   7.990 -0.3056  0.8777  0.2820
   38POPC  H11Y 5156   3.946   3.187   8.022  1.5361  0.2749 -0.8872
   38POPC  C312 5157   3.896   3.380   8.141  0.0632  0.7234 -0.6346
   38POPC  H12X 5158   3.961   3.346   8.225 -1.7836  2.5554  1.7248
   38POPC  H12Y 5159   3.791   3.356   8.169  0.6831 -0.1131  1.1609
   38POPC  C313 5160   3.903   3.526   8.119 -0.1427 -0.0557  0.1259
   38POPC  H13X 5161   3.801   3.555   8.085  1.5936  5.0798 -1.7385
   38POPC  H13Y 5162   3.970   3.551   8.034 -0.7164 -0.0489 -0.3302
   38POPC  C314 5163   3.928   3.606   8.253 -0.0847  0.2076  0.4015
   38POPC  H14X 5164   4.033   3.586   8.282 -0.5475 -1.3026  1.1215
   38POPC  H14Y 5165   3.863   3.581   8.339  0.5479  0.4782  0.9632
   38POPC  C315 5166   3.897   3.755   8.229  0.3928  0.3413 -0.4674
   38POPC  H15X 5167   3.787   3.765   8.231  0.5517  2.5453  0.0777
   38POPC  H15Y 5168   3.933   3.793   8.130  1.3881  0.7464  0.0274
   38POPC  C316 5169   3.954   3.850   8.332 -0.6513  0.9185 -0.4460
   38POPC  H16X 5170   3.940   3.811   8.435 -0.5011  0.4494 -0.6011
   38POPC  H16Y 5171   3.908   3.951   8.338  0.9541  1.6112  2.6941
   38POPC  H16Z 5172   4.062   3.867   8.312  0.1249 -2.1583  0.5816
   39POPC     N 5173   1.651   3.169   5.921 -0.2263  0.2641  0.4056
   39POPC   C12 5174   1.720   3.174   6.053  0.3780  0.4376 -0.3212
   39POPC  H12A 5175   1.825   3.196   6.038  0.0944  1.8645 -0.3386
   39POPC  H12B 5176   1.722   3.072   6.089 -0.1245  0.6281  0.2594
   39POPC   C13 5177   1.661   3.309   5.863  0.3617 -0.2514  0.1110
   39POPC  H13A 5178   1.597   3.322   5.777  1.7921 -0.8488 -1.0839
   39POPC  H13B 5179   1.648   3.386   5.938  0.2949 -0.4937  0.3492
   39POPC  H13C 5180   1.762   3.332   5.832 -0.2039 -0.5467 -2.1185
   39POPC   C14 5181   1.709   3.072   5.821 -0.4615 -0.3988  0.6930
   39POPC  H14A 5182   1.699   2.966   5.841  0.3434 -0.6020  0.0612
   39POPC  H14B 5183   1.668   3.097   5.724  0.4229  1.4896  0.7646
   39POPC  H14C 5184   1.813   3.099   5.815 -0.7287  0.3094 -2.1048
   39POPC   C15 5185   1.504   3.135   5.936 -0.3601 -0.4774  0.2329
   39POPC  H15A 5186   1.479   3.133   6.041  1.5866 -0.7210  0.7335
   39POPC  H15B 5187   1.484   3.035   5.900 -0.8689 -0.1677 -0.3653
   39POPC  H15C 5188   1.449   3.209   5.880  1.6370  1.7968  1.1357
   39POPC   C11 5189   1.672   3.261   6.170 -0.9418 -0.2272  0.3736
   39POPC  H11A 5190   1.652   3.363   6.131  2.0216  1.2397  2.3221
   39POPC  H11B 5191   1.746   3.282   6.250 -0.8836  2.8188 -0.3503
   39POPC     P 5192   1.533   3.088   6.314  0.4419  0.3268 -0.0638
   39POPC   O13 5193   1.641   2.992   6.277 -0.1820 -0.8661  0.2375
   39POPC   O14 5194   1.390   3.037   6.301 -0.1111 -0.7267 -0.5779
   39POPC   O12 5195   1.546   3.213   6.215  0.4195 -0.2634 -0.2461
   39POPC   O11 5196   1.552   3.151   6.458 -0.0809  0.0315 -0.1957
   39POPC    C1 5197   1.505   3.279   6.500 -0.0709  0.2581  0.1376
   39POPC    HA 5198   1.415   3.309   6.443 -1.1020  0.5161  1.8288
   39POPC    HB 5199   1.588   3.351   6.486  0.1505  0.5486  2.5744
   39POPC    C2 5200   1.466   3.283   6.647  0.0560 -0.5263  0.5895
   39POPC    HS 5201   1.447   3.388   6.678 -1.7204 -0.5157 -0.4142
   39POPC   O21 5202   1.557   3.213   6.728 -0.2357  0.3959 -0.6324
   39POPC   C21 5203   1.661   3.276   6.784 -0.4670  0.7771  0.3011
   39POPC   O22 5204   1.679   3.395   6.779 -0.1546 -0.1321  0.1400
   39POPC   C22 5205   1.753   3.183   6.857  0.2690 -0.4619 -0.2884
   39POPC   H2R 5206   1.837   3.239   6.903 -1.3875  0.2743  2.1006
   39POPC   H2S 5207   1.785   3.104   6.786 -0.5889 -0.7516 -0.3677
   39POPC    C3 5208   1.324   3.217   6.668 -0.9314 -0.0042 -0.1584
   39POPC    HX 5209   1.361   3.112   6.661  1.7775  0.8790 -0.3283
   39POPC    HY 5210   1.254   3.231   6.583 -0.7290  0.7017 -0.2129
   39POPC   O31 5211   1.271   3.242   6.803  0.0845  0.1050  0.3635
   39POPC   C31 5212   1.209   3.359   6.808  0.0797  0.5039 -0.6307
   39POPC   O32 5213   1.200   3.438   6.713  0.1876  0.4608 -0.2173
   39POPC   C32 5214   1.190   3.394   6.955  0.1123 -0.2443 -0.2017
   39POPC   H2X 5215   1.099   3.457   6.951  0.7732  0.6701 -3.1669
   39POPC   H2Y 5216   1.174   3.302   7.015  0.8879  0.5228  1.2561
   39POPC   C23 5217   1.672   3.102   6.975 -0.5829  0.1870 -0.1266
   39POPC   H3R 5218   1.593   3.029   6.945 -1.4598  0.6731  0.8978
   39POPC   H3S 5219   1.619   3.180   7.035 -2.2437 -0.5619 -0.5483
   39POPC   C24 5220   1.760   3.020   7.071  0.0799  0.1715  0.6719
   39POPC   H4R 5221   1.817   2.950   7.006  2.5419  0.8640  1.9395
   39POPC   H4S 5222   1.693   2.970   7.144 -0.3996  0.6358  0.5587
   39POPC   C25 5223   1.865   3.095   7.145  0.4383  0.2788  0.6383
   39POPC   H5R 5224   1.822   3.188   7.188  0.4953 -0.0345  1.3979
   39POPC   H5S 5225   1.932   3.132   7.064 -0.9593 -0.4510 -0.9249
   39POPC   C26 5226   1.934   3.005   7.247  0.0296 -0.1456  0.3353
   39POPC   H6R 5227   1.986   2.915   7.207  1.5710 -0.4877  2.8702
   39POPC   H6S 5228   1.855   2.970   7.316  0.0637 -0.0259  0.4347
   39POPC   C27 5229   2.037   3.074   7.336  0.1075 -0.0827 -0.3594
   39POPC   H7R 5230   1.991   3.160   7.391  0.4839 -0.0407 -0.1047
   39POPC   H7S 5231   2.128   3.099   7.278 -1.2342  1.2382 -1.9995
   39POPC   C28 5232   2.082   2.972   7.447 -0.5222 -0.5092  0.1020
   39POPC   H8R 5233   2.130   2.888   7.392 -0.4140  1.0413 -2.3314
   39POPC   H8S 5234   1.989   2.934   7.495 -1.4803 -1.0278 -2.0410
   39POPC   C29 5235   2.175   3.038   7.540 -1.0662 -0.2427 -0.2617
   39POPC   H91 5236   2.274   3.052   7.494 -0.7057 -1.0010  0.2608
   39POPC  C210 5237   2.147   3.072   7.668 -0.3405  0.5283  0.3189
   39POPC  H101 5238   2.225   3.133   7.716  0.0308  1.7864 -1.7444
   39POPC  C211 5239   2.027   3.035   7.749  0.0622  0.4404 -0.3347
   39POPC  H11R 5240   1.946   2.992   7.686  0.6425 -0.4410 -0.4946
   39POPC  H11S 5241   1.987   3.128   7.795  1.0839  0.4777  0.5067
   39POPC  C212 5242   2.052   2.927   7.867 -0.6277 -0.2673 -0.2280
   39POPC  H12R 5243   2.097   2.838   7.819 -0.5248 -1.3457  1.7622
   39POPC  H12S 5244   1.954   2.890   7.906 -1.8973  3.5650  0.7514
   39POPC  C213 5245   2.134   2.972   7.997  1.2004  0.5876  0.0410
   39POPC  H13R 5246   2.064   3.036   8.055 -1.5521 -2.0134 -0.1724
   39POPC  H13S 5247   2.227   3.027   7.970  1.7949 -0.5451 -0.2668
   39POPC  C214 5248   2.156   2.851   8.085  0.1812  0.6484  0.1457
   39POPC  H14R 5249   2.209   2.775   8.024 -1.0280  1.4056 -2.0078
   39POPC  H14S 5250   2.057   2.802   8.098 -0.0754  0.4553 -2.1277
   39POPC  C215 5251   2.223   2.868   8.220 -0.2996 -0.2022 -0.3775
   39POPC  H15R 5252   2.270   2.773   8.251 -1.9118 -1.0025 -0.2683
   39POPC  H15S 5253   2.150   2.900   8.298 -1.7493  1.2598 -2.2300
   39POPC  C216 5254   2.352   2.958   8.205  0.3506  0.2946 -0.2050
   39POPC  H16R 5255   2.316   3.061   8.185  3.4742  1.1843 -1.9842
   39POPC  H16S 5256   2.409   2.910   8.122  0.6872  2.0193 -1.0269
   39POPC  C217 5257   2.445   2.958   8.329 -0.1794 -0.4570 -0.1154
   39POPC  H17R 5258   2.471   2.851   8.348 -1.9636 -0.9194 -0.1159
   39POPC  H17S 5259   2.392   2.993   8.420 -1.5731 -0.9482 -0.7139
   39POPC  C218 5260   2.568   3.041   8.295  0.4468 -0.1900  0.0886
   39POPC  H18R 5261   2.531   3.145   8.290 -0.5744 -0.5639 -0.4197
   39POPC  H18S 5262   2.610   3.002   8.200  1.1156 -0.3004  0.4212
   39POPC  H18T 5263   2.643   3.046   8.377 -1.2606 -2.3907  1.9256
   39POPC   C33 5264   1.314   3.475   7.002  0.0250 -0.1581  0.5060
   39POPC   H3X 5265   1.334   3.547   6.920  0.5602  1.0641  1.6632
   39POPC   H3Y 5266   1.406   3.413   7.012  1.6679  1.9165 -0.8674
   39POPC   C34 5267   1.283   3.569   7.113 -0.2123 -0.3212 -0.0739
   39POPC   H4X 5268   1.185   3.614   7.088 -0.1998  0.3858  1.0659
   39POPC   H4Y 5269   1.360   3.649   7.122 -0.7193  0.0752  0.9767
   39POPC   C35 5270   1.265   3.493   7.245 -0.3618  0.1621  0.4934
   39POPC   H5X 5271   1.369   3.474   7.278 -0.4403  0.0319  0.6670
   39POPC   H5Y 5272   1.220   3.393   7.223 -0.4277 -0.1317  1.8518
   39POPC   C36 5273   1.192   3.573   7.354 -0.5951  0.1145  0.0169
   39POPC   H6X 5274   1.087   3.590   7.322  0.0114  0.0987 -2.1308
   39POPC   H6Y 5275   1.254   3.661   7.380 -0.5456  0.5849 -1.5769
   39POPC   C37 5276   1.175   3.491   7.487  0.0818 -0.2132  0.4916
   39POPC   H7X 5277   1.272   3.453   7.526 -0.6440 -2.4225  0.3118
   39POPC   H7Y 5278   1.105   3.414   7.449 -0.3893  1.0515 -1.3485
   39POPC   C38 5279   1.115   3.583   7.599 -0.6188  0.3462 -0.5779
   39POPC   H8X 5280   1.014   3.604   7.555 -0.7254 -1.5314 -1.3429
   39POPC   H8Y 5281   1.177   3.674   7.610  2.9657 -2.1284  1.5057
   39POPC   C39 5282   1.107   3.512   7.740  0.0087  0.3819 -0.2638
   39POPC   H9X 5283   1.197   3.447   7.748  1.0877  1.6816 -1.2156
   39POPC   H9Y 5284   1.025   3.439   7.724  2.3053 -2.0622 -1.6983
   39POPC  C310 5285   1.118   3.616   7.852 -0.0746  0.8306 -0.3337
   39POPC  H10X 5286   1.058   3.707   7.829 -2.7256 -0.8202 -0.3899
   39POPC  H10Y 5287   1.221   3.654   7.868 -0.7935  1.7270  2.9705
   39POPC  C311 5288   1.066   3.558   7.985 -0.1300  0.5694  0.1054
   39POPC  H11X 5289   1.136   3.478   8.016 -0.1569  0.3341 -0.4235
   39POPC  H11Y 5290   0.966   3.513   7.969  0.5548 -1.1304  0.3689
   39POPC  C312 5291   1.049   3.664   8.094 -0.0228 -0.2097 -0.3051
   39POPC  H12X 5292   0.981   3.735   8.042  0.0789  0.0341 -0.1125
   39POPC  H12Y 5293   1.143   3.713   8.128  0.0812 -0.5448 -0.1039
   39POPC  C313 5294   0.974   3.620   8.223 -0.2861  0.2988 -0.0888
   39POPC  H13X 5295   0.867   3.608   8.195  0.0150 -1.9359 -0.4589
   39POPC  H13Y 5296   0.976   3.698   8.302 -1.8040  0.7610 -0.4723
   39POPC  C314 5297   1.025   3.486   8.272  0.2802 -0.1819 -1.0832
   39POPC  H14X 5298   1.136   3.481   8.274  0.2468 -0.9684  0.2367
   39POPC  H14Y 5299   1.013   3.413   8.189 -1.9407 -1.8136  0.5685
   39POPC  C315 5300   0.983   3.430   8.412 -0.4129  0.0950 -0.1169
   39POPC  H15X 5301   1.028   3.490   8.494 -1.3831  0.9662 -0.2033
   39POPC  H15Y 5302   1.020   3.325   8.416  1.6683  0.8132  0.9176
   39POPC  C316 5303   0.831   3.436   8.432  0.1524  0.7132  0.6282
   39POPC  H16X 5304   0.783   3.375   8.352 -0.4576  2.3294 -0.3022
   39POPC  H16Y 5305   0.789   3.540   8.431 -2.9976 -0.4427 -0.1894
   39POPC  H16Z 5306   0.806   3.391   8.530  0.1456 -1.2503 -0.2258
   40POPC     N 5307   0.274   1.553   6.172  0.4581 -0.1716  0.2169
   40POPC   C12 5308   0.173   1.655   6.221  0.0083  0.5002  0.0531
   40POPC  H12A 5309   0.125   1.713   6.144 -0.9260 -0.1113  0.1577
   40POPC  H12B 5310   0.243   1.724   6.265  2.6361 -0.8656 -1.6776
   40POPC   C13 5311   0.376   1.530   6.280 -1.1930 -0.0805  0.5080
   40POPC  H13A 5312   0.428   1.438   6.261 -1.5216 -0.1843  0.0835
   40POPC  H13B 5313   0.449   1.607   6.300  1.0446 -2.1541  0.6431
   40POPC  H13C 5314   0.314   1.515   6.367 -0.0306 -1.3164  1.1528
   40POPC   C14 5315   0.208   1.423   6.137  0.3133  0.0050 -0.4979
   40POPC  H14A 5316   0.161   1.379   6.224 -0.6513  0.8444 -0.5790
   40POPC  H14B 5317   0.137   1.439   6.057 -2.0193  0.7337  1.5985
   40POPC  H14C 5318   0.275   1.343   6.106  0.3783 -0.1313 -0.0025
   40POPC   C15 5319   0.342   1.597   6.049  0.5346 -0.6768  0.8359
   40POPC  H15A 5320   0.275   1.609   5.965 -0.5274 -1.9081  1.4774
   40POPC  H15B 5321   0.418   1.525   6.023  0.9235 -0.4145  1.2311
   40POPC  H15C 5322   0.399   1.688   6.064  0.8370 -0.4874 -1.2041
   40POPC   C11 5323   0.069   1.620   6.322 -0.1987 -0.3430  0.6272
   40POPC  H11A 5324   0.020   1.714   6.358 -0.4811 -0.1138 -0.3246
   40POPC  H11B 5325   0.115   1.575   6.412 -0.1986 -0.4875  0.5550
   40POPC     P 5326  -0.120   1.441   6.376 -0.2707 -0.2989 -0.3424
   40POPC   O13 5327  -0.063   1.308   6.380 -0.4974  1.0182  0.3708
   40POPC   O14 5328  -0.264   1.456   6.346 -0.3444 -0.5937  0.0716
   40POPC   O12 5329  -0.034   1.531   6.278  0.4753  0.6095  0.5543
   40POPC   O11 5330  -0.100   1.507   6.521 -0.2846  0.4332  0.1905
   40POPC    C1 5331  -0.172   1.431   6.627 -0.3093 -0.2155  1.2184
   40POPC    HA 5332  -0.161   1.322   6.609 -2.6903 -0.1269 -1.5285
   40POPC    HB 5333  -0.280   1.456   6.623 -0.6060 -1.5646 -0.4579
   40POPC    C2 5334  -0.111   1.460   6.765 -0.1653  0.2964 -0.0124
   40POPC    HS 5335  -0.140   1.377   6.833  2.4838 -0.2876  0.5255
   40POPC   O21 5336  -0.167   1.588   6.817 -0.8546 -0.4741  0.1603
   40POPC   C21 5337  -0.191   1.585   6.946  0.0614  0.9360 -0.7174
   40POPC   O22 5338  -0.179   1.486   7.017 -0.2305  0.3663 -0.8528
   40POPC   C22 5339  -0.228   1.721   7.005  0.1999  0.2204 -0.4364
   40POPC   H2R 5340  -0.318   1.752   6.949 -1.5246 -1.7261  1.0954
   40POPC   H2S 5341  -0.148   1.796   6.987  0.7709  0.0844  1.3401
   40POPC    C3 5342   0.048   1.459   6.772 -0.2770  0.0558  0.4958
   40POPC    HX 5343   0.089   1.520   6.689  0.2804 -1.1956 -0.1706
   40POPC    HY 5344   0.084   1.358   6.744  0.9308  0.4348  0.6321
   40POPC   O31 5345   0.108   1.510   6.897  0.1860 -0.2279 -0.4183
   40POPC   C31 5346   0.214   1.449   6.921  0.2201  0.1041 -0.2891
   40POPC   O32 5347   0.267   1.354   6.866  0.2269  0.5760  0.1166
   40POPC   C32 5348   0.258   1.501   7.060 -0.3633  0.5792 -0.1941
   40POPC   H2X 5349   0.333   1.581   7.042  1.1685 -0.7143  0.2401
   40POPC   H2Y 5350   0.315   1.420   7.110  2.1972  3.1999  1.5503
   40POPC   C23 5351  -0.282   1.714   7.150 -0.3112  0.7118  0.2934
   40POPC   H3R 5352  -0.199   1.677   7.213  1.1420 -0.6168 -2.2183
   40POPC   H3S 5353  -0.355   1.631   7.158  0.0635 -0.0694 -2.7731
   40POPC   C24 5354  -0.347   1.849   7.187  0.1484 -0.5295 -0.3032
   40POPC   H4R 5355  -0.440   1.870   7.130 -0.0193  3.3701  1.0594
   40POPC   H4S 5356  -0.279   1.934   7.163 -1.2638 -0.0066 -2.7692
   40POPC   C25 5357  -0.388   1.877   7.333 -0.0324  0.2151  0.6547
   40POPC   H5R 5358  -0.491   1.847   7.361 -0.4554  2.9082  2.3788
   40POPC   H5S 5359  -0.376   1.983   7.364  0.3395  0.8699 -1.5384
   40POPC   C26 5360  -0.308   1.795   7.436 -0.0793  0.5105  0.4369
   40POPC   H6R 5361  -0.200   1.803   7.409 -0.5811 -0.0416 -2.0135
   40POPC   H6S 5362  -0.322   1.685   7.429  0.9939  0.4312 -1.1320
   40POPC   C27 5363  -0.333   1.831   7.578  0.2529  0.0667 -0.1655
   40POPC   H7R 5364  -0.442   1.828   7.599  0.5077  2.4036  1.9936
   40POPC   H7S 5365  -0.308   1.936   7.602 -0.3668 -0.2165  1.9925
   40POPC   C28 5366  -0.262   1.732   7.663  0.0764  0.1961 -0.8712
   40POPC   H8R 5367  -0.158   1.707   7.635 -0.1349 -1.3175 -0.4136
   40POPC   H8S 5368  -0.313   1.635   7.642  1.2019 -0.0553 -2.5714
   40POPC   C29 5369  -0.290   1.773   7.810  0.0315 -0.7403 -0.3339
   40POPC   H91 5370  -0.397   1.774   7.835  0.1796  3.8048  1.0250
   40POPC  C210 5371  -0.200   1.797   7.909 -0.1216 -0.3263  0.0768
   40POPC  H101 5372  -0.236   1.832   8.007 -3.3536  1.4911 -1.5935
   40POPC  C211 5373  -0.056   1.783   7.889  0.2624  0.3092 -0.6515
   40POPC  H11R 5374  -0.006   1.872   7.847  2.0320  0.0364  0.7269
   40POPC  H11S 5375  -0.036   1.696   7.823 -1.2816 -2.6071  2.4431
   40POPC  C212 5376   0.018   1.747   8.019 -0.7601 -1.0517  0.2327
   40POPC  H12R 5377   0.002   1.819   8.103 -0.3340 -1.2655  0.5022
   40POPC  H12S 5378   0.126   1.756   7.993 -1.1598  1.8726 -0.8413
   40POPC  C213 5379  -0.003   1.601   8.066 -0.3567  0.5086  0.4141
   40POPC  H13R 5380   0.049   1.527   8.002 -0.6624  0.9356 -0.3391
   40POPC  H13S 5381  -0.110   1.572   8.063 -0.3001  0.3220  0.1123
   40POPC  C214 5382   0.031   1.583   8.218 -0.0326  0.5814  0.0422
   40POPC  H14R 5383  -0.009   1.483   8.246 -2.9525  0.7991 -2.7104
   40POPC  H14S 5384  -0.017   1.659   8.284  1.3219 -0.1180  1.9030
   40POPC  C215 5385   0.182   1.595   8.241  0.4283 -0.8329  0.5413
   40POPC  H15R 5386   0.230   1.665   8.169  0.2433 -2.8830 -1.6867
   40POPC  H15S 5387   0.229   1.502   8.203  3.5471  1.3604 -1.4372
   40POPC  C216 5388   0.230   1.618   8.387 -0.1057  0.7474  0.3653
   40POPC  H16R 5389   0.206   1.524   8.440 -0.0887 -0.0752 -1.0331
   40POPC  H16S 5390   0.185   1.707   8.435  2.5436  1.2679  2.1215
   40POPC  C217 5391   0.377   1.666   8.384  0.1153 -0.4382  1.0535
   40POPC  H17R 5392   0.383   1.759   8.324  3.2228 -1.3447 -0.2479
   40POPC  H17S 5393   0.446   1.590   8.340 -1.8413 -0.6402 -1.9241
   40POPC  C218 5394   0.428   1.698   8.526  0.7709 -0.2163  0.4575
   40POPC  H18R 5395   0.404   1.617   8.599  0.3968  0.4797  1.1209
   40POPC  H18S 5396   0.374   1.785   8.569 -1.3132 -1.1875 -0.0907
   40POPC  H18T 5397   0.539   1.701   8.528  0.8736 -2.6363  1.5683
   40POPC   C33 5398   0.153   1.561   7.155  0.1457 -0.1173 -0.8200
   40POPC   H3X 5399   0.081   1.478   7.172  1.0827 -1.0306 -1.2018
   40POPC   H3Y 5400   0.109   1.654   7.112 -0.6885  0.5162  1.2689
   40POPC   C34 5401   0.228   1.589   7.289  0.0359  0.0875  0.3192
   40POPC   H4X 5402   0.329   1.630   7.266 -0.2988  0.1145 -1.2000
   40POPC   H4Y 5403   0.241   1.486   7.328  0.8038 -0.0151 -0.1712
   40POPC   C35 5404   0.148   1.681   7.383  0.3392 -0.3883 -0.3337
   40POPC   H5X 5405   0.057   1.621   7.406 -0.8796  1.6998  0.5282
   40POPC   H5Y 5406   0.108   1.775   7.340 -0.0084 -0.0650  0.6661
   40POPC   C36 5407   0.222   1.707   7.510 -0.4134  0.5355 -0.3105
   40POPC   H6X 5408   0.141   1.732   7.583  0.2227  0.3194  0.4878
   40POPC   H6Y 5409   0.293   1.793   7.516 -0.1167  0.2708  0.0543
   40POPC   C37 5410   0.290   1.577   7.564 -0.2173 -0.1695  0.2082
   40POPC   H7X 5411   0.369   1.548   7.492 -2.2806  0.1753 -2.3454
   40POPC   H7Y 5412   0.214   1.496   7.557 -0.2611 -0.1159  0.0511
   40POPC   C38 5413   0.336   1.590   7.713 -0.5001  0.4347  0.4100
   40POPC   H8X 5414   0.280   1.672   7.763  1.6290  1.8060  0.6660
   40POPC   H8Y 5415   0.444   1.616   7.707 -0.7603  1.5955  0.4371
   40POPC   C39 5416   0.326   1.466   7.803  1.0249  0.1158 -0.3870
   40POPC   H9X 5417   0.294   1.372   7.753 -1.8127  0.3936  0.7779
   40POPC   H9Y 5418   0.252   1.481   7.884  0.2693 -0.8104 -0.8827
   40POPC  C310 5419   0.458   1.451   7.883 -0.3045 -0.1815 -0.0057
   40POPC  H10X 5420   0.487   1.544   7.935  1.7535 -0.7005 -0.1070
   40POPC  H10Y 5421   0.538   1.421   7.811 -0.7951 -2.2691  0.2406
   40POPC  C311 5422   0.437   1.345   7.992 -0.0349  0.7683 -0.7344
   40POPC  H11X 5423   0.412   1.246   7.948 -1.0921  1.3726 -1.5443
   40POPC  H11Y 5424   0.347   1.372   8.052 -0.5392  0.7415 -1.4551
   40POPC  C312 5425   0.554   1.333   8.088 -0.1900 -0.3875  0.8627
   40POPC  H12X 5426   0.573   1.438   8.118 -0.6186  0.0672 -0.3607
   40POPC  H12Y 5427   0.649   1.315   8.033 -0.5837 -1.8526  0.6124
   40POPC  C313 5428   0.535   1.224   8.196 -0.4884 -0.0888 -0.6143
   40POPC  H13X 5429   0.544   1.120   8.157  0.5083 -0.0188 -0.6003
   40POPC  H13Y 5430   0.435   1.228   8.243 -0.7866 -2.8812 -0.8399
   40POPC  C314 5431   0.647   1.238   8.302 -0.6121  0.4745  0.7749
   40POPC  H14X 5432   0.751   1.242   8.263  0.2224  2.7640  2.9657
   40POPC  H14Y 5433   0.647   1.144   8.361 -0.6852  0.3156  0.5239
   40POPC  C315 5434   0.631   1.349   8.394 -0.8957  0.0785  0.1338
   40POPC  H15X 5435   0.541   1.339   8.458  0.5428  0.6392  2.3668
   40POPC  H15Y 5436   0.620   1.445   8.339 -1.0873 -0.1820 -0.2787
   40POPC  C316 5437   0.754   1.367   8.490  0.1137  0.5060  0.3939
   40POPC  H16X 5438   0.754   1.466   8.540  1.6899  1.8126 -1.9950
   40POPC  H16Y 5439   0.850   1.366   8.433 -0.7705 -1.1727 -1.1544
   40POPC  H16Z 5440   0.764   1.281   8.560  1.3766 -0.3204 -0.7434
   41CHL1    C3 5441   4.214   1.194  10.031  0.5895 -0.1024 -0.8854
   41CHL1    H3 5442   4.319   1.229  10.021  0.2729  0.7040 -1.4901
   41CHL1    O3 5443   4.177   1.162  10.163  0.0163 -0.2650 -0.4348
   41CHL1   H3' 5444   4.216   1.231  10.217  0.2323  1.0692 -2.2086
   41CHL1    C4 5445   4.120   1.306   9.983  0.3001  0.0062 -0.1812
   41CHL1   H4A 5446   4.014   1.275   9.998  0.4212 -2.3653 -3.1802
   41CHL1   H4B 5447   4.142   1.395  10.046  0.1640  1.1208 -1.6548
   41CHL1    C5 5448   4.139   1.344   9.839 -0.6188  0.1029 -0.4922
   41CHL1    C6 5449   4.175   1.469   9.797 -0.4555 -0.1615  0.2421
   41CHL1    H6 5450   4.184   1.551   9.869  0.5427  0.7550 -0.8831
   41CHL1    C7 5451   4.185   1.503   9.650  0.1299  0.0381  0.8214
   41CHL1   H7A 5452   4.138   1.601   9.630 -1.6975 -0.9918 -0.1801
   41CHL1   H7B 5453   4.294   1.507   9.629  0.4255 -2.9468  1.2436
   41CHL1    C8 5454   4.128   1.406   9.548 -0.1392  0.1479  0.1346
   41CHL1    H8 5455   4.019   1.426   9.553  0.2147  2.0515  1.0205
   41CHL1   C14 5456   4.181   1.438   9.404  0.2710  0.2799  0.6316
   41CHL1   H14 5457   4.292   1.448   9.402  0.3395  0.2958 -2.9406
   41CHL1   C15 5458   4.141   1.576   9.350  0.0127 -0.5592 -0.0028
   41CHL1  H15A 5459   4.034   1.604   9.362 -0.9894 -2.7378 -2.6597
   41CHL1  H15B 5460   4.217   1.650   9.384  1.7064 -2.2056 -0.0516
   41CHL1   C16 5461   4.153   1.561   9.199  0.3854 -1.1058 -0.1458
   41CHL1  H16A 5462   4.052   1.587   9.161  0.5217  1.7458  1.2184
   41CHL1  H16B 5463   4.232   1.626   9.157 -0.8908 -0.2239 -1.2434
   41CHL1   C17 5464   4.179   1.414   9.166 -0.3121 -0.0890 -0.5120
   41CHL1   H17 5465   4.290   1.414   9.157 -0.1928  1.0139  0.7597
   41CHL1   C13 5466   4.134   1.337   9.295 -0.5858  0.4871  0.0935
   41CHL1   C18 5467   3.983   1.331   9.287  0.4159  0.3851 -0.3374
   41CHL1  H18A 5468   3.950   1.265   9.205  2.1990  2.9322 -3.3222
   41CHL1  H18B 5469   3.935   1.302   9.383  1.2397  0.6522  0.1674
   41CHL1  H18C 5470   3.941   1.431   9.262  0.4139  0.2502 -0.8824
   41CHL1   C12 5471   4.188   1.205   9.334 -0.0147 -0.9346 -0.6259
   41CHL1  H12A 5472   4.167   1.127   9.259 -0.6646  0.6302 -2.1561
   41CHL1  H12B 5473   4.298   1.217   9.337 -0.1921  0.8390  1.1656
   41CHL1   C11 5474   4.137   1.153   9.474 -0.0641  0.5690  0.0884
   41CHL1  H11A 5475   4.029   1.129   9.469 -0.0737  0.6808 -0.3176
   41CHL1  H11B 5476   4.192   1.059   9.499 -1.5620 -0.4885 -0.4956
   41CHL1    C9 5477   4.161   1.256   9.588  0.6074 -0.3273  0.0387
   41CHL1    H9 5478   4.272   1.262   9.593  0.7362 -1.8799 -0.3670
   41CHL1   C10 5479   4.116   1.230   9.738 -0.2471  0.0724  0.1718
   41CHL1   C19 5480   3.964   1.184   9.722 -0.4676 -0.0556 -0.7802
   41CHL1  H19A 5481   3.907   1.246   9.649  0.2660 -0.3087 -1.5817
   41CHL1  H19B 5482   3.954   1.082   9.681 -0.4834 -1.1850  1.8329
   41CHL1  H19C 5483   3.916   1.176   9.822  2.9102 -1.0338  0.9051
   41CHL1    C1 5484   4.202   1.113   9.788 -0.1142  0.6023 -0.1630
   41CHL1   H1A 5485   4.171   1.022   9.733  2.1388 -0.0300 -0.4919
   41CHL1   H1B 5486   4.307   1.139   9.763  0.8014 -0.5953  2.1420
   41CHL1    C2 5487   4.187   1.070   9.942  0.1668  0.6942 -0.2174
   41CHL1   H2A 5488   4.253   0.982   9.954 -1.6000 -0.8715 -1.3880
   41CHL1   H2B 5489   4.085   1.032   9.962  0.2090 -0.3635 -1.7958
   41CHL1   C20 5490   4.128   1.359   9.027 -0.4092  0.5739  0.2700
   41CHL1   H20 5491   4.033   1.302   9.028 -0.3227  0.4008 -0.5444
   41CHL1   C21 5492   4.225   1.251   8.983 -0.1913  0.2438  0.3818
   41CHL1  H21A 5493   4.169   1.196   8.904 -1.4491 -0.0769  1.4723
   41CHL1  H21B 5494   4.221   1.171   9.060 -0.5273  0.2219  0.3423
   41CHL1  H21C 5495   4.329   1.285   8.961  0.4651 -0.0239  2.7999
   41CHL1   C22 5496   4.126   1.471   8.910 -0.9107 -0.4480 -1.3131
   41CHL1  H22A 5497   4.057   1.552   8.942  0.5536  0.6090 -0.7136
   41CHL1  H22B 5498   4.227   1.515   8.898 -0.8998 -0.1739 -0.3005
   41CHL1   C23 5499   4.075   1.417   8.781  0.5215  0.3932  0.4184
   41CHL1  H23A 5500   4.137   1.332   8.747 -1.3502 -1.4634  1.4028
   41CHL1  H23B 5501   3.976   1.369   8.796  0.5436  0.4991  0.9203
   41CHL1   C24 5502   4.055   1.531   8.672  0.2600  0.6789  0.4692
   41CHL1  H24A 5503   3.965   1.591   8.697 -1.1379 -1.5160  0.9761
   41CHL1  H24B 5504   4.138   1.604   8.682  2.1339 -1.3057  0.1674
   41CHL1   C25 5505   4.051   1.485   8.527  0.8660  0.0712  0.4649
   41CHL1   H25 5506   4.051   1.374   8.520 -1.3733  0.0291  0.3621
   41CHL1   C26 5507   3.921   1.538   8.459  0.0378  0.1101  0.1531
   41CHL1  H26A 5508   3.916   1.515   8.350  2.0146  0.2573 -0.0055
   41CHL1  H26B 5509   3.834   1.501   8.517  0.4560  1.1840  1.5123
   41CHL1  H26C 5510   3.919   1.649   8.469 -2.1109 -0.0232  1.9896
   41CHL1   C27 5511   4.172   1.542   8.459 -0.0800  1.1743  0.1766
   41CHL1  H27A 5512   4.185   1.525   8.350  0.7991 -0.7493  0.5273
   41CHL1  H27B 5513   4.166   1.652   8.472 -1.7276  1.2155 -0.6664
   41CHL1  H27C 5514   4.268   1.509   8.504  0.5076  1.3940 -0.8785
   42CHL1    C3 5515   5.272   0.986   9.964 -0.3247 -0.2124 -0.6492
   42CHL1    H3 5516   5.298   0.885   9.925 -2.2806 -1.2014  0.4360
   42CHL1    O3 5517   5.257   0.989  10.108  0.3591  0.1336 -0.4955
   42CHL1   H3' 5518   5.228   1.079  10.124  2.0357  0.8577 -1.2695
   42CHL1    C4 5519   5.373   1.091   9.917  0.0909  0.3199 -0.1582
   42CHL1   H4A 5520   5.343   1.190   9.956 -2.7168 -0.3807 -0.2798
   42CHL1   H4B 5521   5.464   1.041   9.958 -0.2605  0.5861  0.9749
   42CHL1    C5 5522   5.371   1.099   9.765 -0.1174 -0.0297  0.4056
   42CHL1    C6 5523   5.490   1.087   9.707 -0.1232  0.0352  0.0138
   42CHL1    H6 5524   5.583   1.077   9.765  1.6421  0.1224 -2.6219
   42CHL1    C7 5525   5.502   1.088   9.552  0.4493 -0.6212 -0.3430
   42CHL1   H7A 5526   5.595   1.141   9.521  0.1689  0.5401  0.7312
   42CHL1   H7B 5527   5.502   0.984   9.513  1.0416 -0.4167 -0.9024
   42CHL1    C8 5528   5.374   1.152   9.482 -0.2805 -0.1737 -0.6901
   42CHL1    H8 5529   5.382   1.262   9.496 -0.2767 -0.3314  0.7190
   42CHL1   C14 5530   5.383   1.119   9.335  0.0912  0.3805  0.2840
   42CHL1   H14 5531   5.381   1.009   9.320  0.7748  0.3920  0.0852
   42CHL1   C15 5532   5.513   1.168   9.259  0.7564 -0.2012  0.0968
   42CHL1  H15A 5533   5.533   1.276   9.277 -0.0635  0.1455 -0.9916
   42CHL1  H15B 5534   5.593   1.102   9.299 -0.0667 -1.4678 -0.2747
   42CHL1   C16 5535   5.476   1.152   9.112 -0.1985  0.0941 -0.4378
   42CHL1  H16A 5536   5.508   1.243   9.057  0.2047  1.2357  1.6160
   42CHL1  H16B 5537   5.516   1.056   9.074  1.2045  0.4868  0.0070
   42CHL1   C17 5538   5.313   1.132   9.109 -0.2246 -0.0358  0.1574
   42CHL1   H17 5539   5.294   1.023   9.101 -0.7690  0.1621 -1.7561
   42CHL1   C13 5540   5.263   1.164   9.252  0.2852 -0.6203 -0.8314
   42CHL1   C18 5541   5.243   1.321   9.261  0.3616  0.2539  0.2953
   42CHL1  H18A 5542   5.325   1.382   9.219  0.2307  0.4973  0.3945
   42CHL1  H18B 5543   5.148   1.342   9.207  1.6701 -2.0376 -3.2642
   42CHL1  H18C 5544   5.220   1.349   9.366 -0.8837 -0.1976  0.1695
   42CHL1   C12 5545   5.137   1.084   9.299 -0.2430  0.2493 -1.5044
   42CHL1  H12A 5546   5.046   1.128   9.253 -1.5110  0.9844  1.5084
   42CHL1  H12B 5547   5.151   0.975   9.280 -1.4867 -0.6097  1.8709
   42CHL1   C11 5548   5.116   1.107   9.455 -0.1699  0.1935 -0.1605
   42CHL1  H11A 5549   5.071   1.208   9.463 -2.8727 -1.0602  2.0971
   42CHL1  H11B 5550   5.035   1.044   9.499 -0.0823  0.2116  0.0270
   42CHL1    C9 5551   5.248   1.086   9.539 -0.4754  0.3869  0.0916
   42CHL1    H9 5552   5.261   0.978   9.519  0.3134  0.7959 -1.8502
   42CHL1   C10 5553   5.231   1.103   9.693 -0.4361  0.3464 -0.0462
   42CHL1   C19 5554   5.184   1.255   9.719  0.4466 -0.8337 -0.1915
   42CHL1  H19A 5555   5.080   1.270   9.685 -0.1067 -2.3214  0.7699
   42CHL1  H19B 5556   5.182   1.297   9.822 -0.0668  2.4072 -1.4229
   42CHL1  H19C 5557   5.252   1.319   9.658  4.5379 -0.1690  4.3990
   42CHL1    C1 5558   5.137   1.001   9.752 -0.1007 -0.0931  0.5911
   42CHL1   H1A 5559   5.029   1.005   9.723 -0.3163 -1.5653  1.1070
   42CHL1   H1B 5560   5.175   0.901   9.722  1.2220  0.8374 -1.0155
   42CHL1    C2 5561   5.131   1.014   9.908 -0.5450  0.2155 -0.5937
   42CHL1   H2A 5562   5.058   0.938   9.944  2.6986 -2.7776  0.1244
   42CHL1   H2B 5563   5.096   1.109   9.953  0.4550 -0.6069  2.1119
   42CHL1   C20 5564   5.241   1.196   8.986  0.3687 -0.0034  0.0626
   42CHL1   H20 5565   5.142   1.227   9.023  0.1076  1.1153 -1.4599
   42CHL1   C21 5566   5.220   1.090   8.878 -0.5198  0.4665 -0.0457
   42CHL1  H21A 5567   5.158   1.017   8.935  1.5667  0.0169  1.7906
   42CHL1  H21B 5568   5.317   1.038   8.863 -0.9451 -0.8213  1.4139
   42CHL1  H21C 5569   5.169   1.125   8.786 -1.5051  3.0093  1.3570
   42CHL1   C22 5570   5.300   1.336   8.933  0.2393  0.1330 -0.3041
   42CHL1  H22A 5571   5.297   1.403   9.022 -1.7746  2.6415 -2.0921
   42CHL1  H22B 5572   5.395   1.316   8.880  0.4873  0.5483 -0.0205
   42CHL1   C23 5573   5.202   1.402   8.837 -1.0201 -0.3275  0.1692
   42CHL1  H23A 5574   5.169   1.329   8.760 -1.4531  1.5503 -1.5047
   42CHL1  H23B 5575   5.109   1.431   8.890 -1.4482 -2.0159  0.4087
   42CHL1   C24 5576   5.248   1.535   8.771 -0.0338 -0.4355  0.0628
   42CHL1  H24A 5577   5.255   1.607   8.856 -1.2906  1.1609 -1.1304
   42CHL1  H24B 5578   5.352   1.539   8.732  0.5314 -0.4786  1.4960
   42CHL1   C25 5579   5.150   1.606   8.672 -0.6639  0.3216  0.5586
   42CHL1   H25 5580   5.142   1.532   8.590  0.9632 -2.2370  2.5477
   42CHL1   C26 5581   5.019   1.654   8.734  0.2883  0.6487  0.6235
   42CHL1  H26A 5582   5.034   1.688   8.839 -1.3743  0.7297  0.8584
   42CHL1  H26B 5583   4.966   1.728   8.671  0.0907  0.3089  0.3872
   42CHL1  H26C 5584   4.954   1.566   8.753  0.8535 -0.1881 -1.0863
   42CHL1   C27 5585   5.226   1.719   8.596  0.3784  0.3200 -0.2760
   42CHL1  H27A 5586   5.151   1.760   8.526 -0.1918 -0.8132 -0.3500
   42CHL1  H27B 5587   5.251   1.798   8.671  0.4148 -1.2600  1.4481
   42CHL1  H27C 5588   5.325   1.689   8.553  2.2524  1.9488  2.5620
   43CHL1    C3 5589   5.810   2.322   9.998 -0.0358  0.4150  0.0815
   43CHL1    H3 5590   5.917   2.309   9.972 -0.5914 -1.5634 -1.4473
   43CHL1    O3 5591   5.799   2.281  10.137  0.1439 -0.1365  0.2583
   43CHL1   H3' 5592   5.712   2.315  10.160  0.1555  2.4527 -2.7598
   43CHL1    C4 5593   5.767   2.468   9.977 -0.2157  0.5407 -0.0366
   43CHL1   H4A 5594   5.663   2.477  10.015  0.0127  0.4731  0.6167
   43CHL1   H4B 5595   5.831   2.531  10.041  1.2890  0.9052 -1.7946
   43CHL1    C5 5596   5.782   2.503   9.832 -0.3526 -0.8575 -0.5048
   43CHL1    C6 5597   5.862   2.613   9.803 -0.5457 -0.0344  0.9786
   43CHL1    H6 5598   5.915   2.669   9.881  3.1892 -1.5463 -0.2702
   43CHL1    C7 5599   5.891   2.666   9.663  1.1746  0.1359  0.3404
   43CHL1   H7A 5600   5.885   2.777   9.660 -1.8035  0.0345 -1.6444
   43CHL1   H7B 5601   5.990   2.631   9.627 -0.3022 -2.0824 -1.9307
   43CHL1    C8 5602   5.781   2.596   9.572  0.0543 -0.1661  0.8182
   43CHL1    H8 5603   5.690   2.655   9.598 -0.5587 -1.4470  1.6819
   43CHL1   C14 5604   5.829   2.619   9.429  0.3657  0.7169 -0.6840
   43CHL1   H14 5605   5.917   2.552   9.418  0.3976  0.1518  2.1526
   43CHL1   C15 5606   5.883   2.755   9.379  0.7599 -0.0378  0.0833
   43CHL1  H15A 5607   5.809   2.830   9.415  1.2844  1.1912 -1.2970
   43CHL1  H15B 5608   5.984   2.772   9.421 -0.0559 -0.0501  2.1445
   43CHL1   C16 5609   5.879   2.735   9.227  0.0496 -0.2734  0.8114
   43CHL1  H16A 5610   5.833   2.824   9.180  2.8640  0.4437 -0.7690
   43CHL1  H16B 5611   5.984   2.745   9.192 -0.2371  3.9052  0.6059
   43CHL1   C17 5612   5.808   2.606   9.194  0.4562  0.6328 -0.1676
   43CHL1   H17 5613   5.890   2.530   9.188  1.4443  1.7833 -3.2720
   43CHL1   C13 5614   5.734   2.565   9.322  0.5858 -0.8030  0.0732
   43CHL1   C18 5615   5.602   2.651   9.329  0.5825  0.6122  0.1869
   43CHL1  H18A 5616   5.546   2.646   9.425 -0.9743 -1.7218 -0.7651
   43CHL1  H18B 5617   5.624   2.758   9.309  1.3655  0.5516  0.6638
   43CHL1  H18C 5618   5.531   2.622   9.249  0.4313 -2.9609  1.4695
   43CHL1   C12 5619   5.712   2.417   9.337  0.1977  0.1380 -0.8517
   43CHL1  H12A 5620   5.647   2.370   9.259  1.5312  0.1559 -2.0089
   43CHL1  H12B 5621   5.809   2.366   9.319  2.0651  1.8398  3.1541
   43CHL1   C11 5622   5.666   2.379   9.484 -0.2517  0.3951  0.4012
   43CHL1  H11A 5623   5.558   2.405   9.495 -0.1221  0.8856  0.5914
   43CHL1  H11B 5624   5.668   2.268   9.480 -0.1943  0.4343 -2.4388
   43CHL1    C9 5625   5.752   2.443   9.594 -0.1940 -0.3063  0.4565
   43CHL1    H9 5626   5.848   2.389   9.579  0.8055  1.1545  1.3385
   43CHL1   C10 5627   5.704   2.411   9.738 -0.5863  0.0907  0.0428
   43CHL1   C19 5628   5.547   2.433   9.746  0.2032 -0.3275  0.2440
   43CHL1  H19A 5629   5.489   2.353   9.695  0.7952 -0.7773  0.2629
   43CHL1  H19B 5630   5.499   2.431   9.846 -1.6685  2.7293 -0.4699
   43CHL1  H19C 5631   5.520   2.530   9.699 -0.6443 -0.4063  0.5527
   43CHL1    C1 5632   5.735   2.261   9.768  0.2314 -0.0977 -0.1369
   43CHL1   H1A 5633   5.668   2.200   9.703 -1.1488  0.4001  0.7624
   43CHL1   H1B 5634   5.839   2.240   9.735  0.2147  2.3894 -2.0596
   43CHL1    C2 5635   5.718   2.227   9.916 -0.9703  0.4757  0.2308
   43CHL1   H2A 5636   5.752   2.122   9.930 -0.7329  0.6078  0.6541
   43CHL1   H2B 5637   5.617   2.241   9.960 -1.2173 -1.1558  0.2409
   43CHL1   C20 5638   5.734   2.599   9.053 -0.0413 -0.5711 -0.7555
   43CHL1   H20 5639   5.648   2.528   9.062 -1.4742  1.2565  1.0960
   43CHL1   C21 5640   5.841   2.537   8.958  0.1247 -0.2781 -1.4255
   43CHL1  H21A 5641   5.807   2.513   8.856 -3.2082  0.4452 -0.5906
   43CHL1  H21B 5642   5.880   2.445   9.007  0.7751 -0.0944 -1.5900
   43CHL1  H21C 5643   5.937   2.594   8.957  0.2646 -0.1868  2.3568
   43CHL1   C22 5644   5.663   2.727   9.000 -0.6445 -0.3280  0.5059
   43CHL1  H22A 5645   5.594   2.676   8.929  0.1033 -2.7338  1.3993
   43CHL1  H22B 5646   5.611   2.784   9.080 -1.3869  2.7998 -2.0323
   43CHL1   C23 5647   5.743   2.833   8.914  0.0503  0.0364  0.0023
   43CHL1  H23A 5648   5.838   2.872   8.955  2.1256 -0.5827 -3.7751
   43CHL1  H23B 5649   5.778   2.777   8.824 -1.5397  0.7308 -1.0915
   43CHL1   C24 5650   5.677   2.963   8.878  0.2436 -0.3019 -0.1737
   43CHL1  H24A 5651   5.660   3.021   8.971  0.5693 -1.1994  0.4504
   43CHL1  H24B 5652   5.757   3.011   8.817  0.3772  0.1484  0.3438
   43CHL1   C25 5653   5.542   2.950   8.807  0.4160  0.3154 -1.0843
   43CHL1   H25 5654   5.475   2.903   8.882  1.2350  0.9362  0.0616
   43CHL1   C26 5655   5.467   3.078   8.769 -0.1089  0.8510 -0.3402
   43CHL1  H26A 5656   5.521   3.140   8.693 -0.2749  0.3047 -0.9166
   43CHL1  H26B 5657   5.365   3.058   8.730 -0.2479  0.3276  0.2791
   43CHL1  H26C 5658   5.453   3.142   8.858 -0.7653  2.5470 -1.6096
   43CHL1   C27 5659   5.552   2.861   8.687  0.0378 -0.0479  0.5332
   43CHL1  H27A 5660   5.593   2.760   8.709  1.7692  0.2752 -0.9790
   43CHL1  H27B 5661   5.449   2.844   8.650  0.7890 -2.4542 -0.6877
   43CHL1  H27C 5662   5.605   2.911   8.603 -0.4214 -1.2321 -0.4943
   44CHL1    C3 5663   5.801   1.850  10.178 -0.1215  0.6135 -0.8433
   44CHL1    H3 5664   5.770   1.956  10.163  2.1552  1.4565 -0.0376
   44CHL1    O3 5665   5.778   1.819  10.313  0.1222  0.4536 -0.1815
   44CHL1   H3' 5666   5.683   1.823  10.325  0.0984 -1.7372  0.9581
   44CHL1    C4 5667   5.720   1.747  10.097  0.3368 -0.3950  0.0436
   44CHL1   H4A 5668   5.746   1.642  10.123 -2.0750 -1.6620 -2.2083
   44CHL1   H4B 5669   5.619   1.769  10.137  1.2467  0.9000  1.8244
   44CHL1    C5 5670   5.737   1.782   9.952  0.3899 -0.4056 -0.0793
   44CHL1    C6 5671   5.632   1.827   9.876 -0.3551 -0.5885  0.2225
   44CHL1    H6 5672   5.532   1.824   9.921 -0.4914  0.5066  0.0238
   44CHL1    C7 5673   5.645   1.872   9.733  0.4780  0.1996  0.1203
   44CHL1   H7A 5674   5.563   1.836   9.669 -0.1234 -2.0873  2.0412
   44CHL1   H7B 5675   5.628   1.982   9.743  1.0781  0.3099  0.0134
   44CHL1    C8 5676   5.783   1.837   9.670 -0.2017  0.1032  1.0707
   44CHL1    H8 5677   5.776   1.730   9.642 -2.8163  0.0900  1.5576
   44CHL1   C14 5678   5.804   1.932   9.550  0.3266 -0.4314 -0.3550
   44CHL1   H14 5679   5.816   2.031   9.600 -0.5071 -0.5271  0.0599
   44CHL1   C15 5680   5.689   1.954   9.461  0.3539  0.1006  0.5573
   44CHL1  H15A 5681   5.635   1.865   9.422 -0.9105  0.5999  1.1359
   44CHL1  H15B 5682   5.616   2.025   9.504  1.1737  0.1551  1.9051
   44CHL1   C16 5683   5.762   2.020   9.336 -0.4264  0.4750 -0.3338
   44CHL1  H16A 5684   5.763   1.951   9.249 -0.0650  0.0610 -0.0065
   44CHL1  H16B 5685   5.710   2.112   9.301  1.1734  1.7067  0.3901
   44CHL1   C17 5686   5.908   2.048   9.372 -0.3709 -0.2106 -0.2358
   44CHL1   H17 5687   5.915   2.135   9.441  0.4665 -0.8949  0.5639
   44CHL1   C13 5688   5.931   1.927   9.472 -0.2562 -0.1265 -0.4546
   44CHL1   C18 5689   5.939   1.793   9.389 -0.3600  0.7587 -0.2959
   44CHL1  H18A 5690   5.860   1.775   9.313  0.5348 -1.0444 -0.8665
   44CHL1  H18B 5691   6.043   1.784   9.352 -0.1619  0.4468  0.3098
   44CHL1  H18C 5692   5.931   1.703   9.455 -2.8417  0.5529 -0.7682
   44CHL1   C12 5693   6.046   1.940   9.574  0.5741 -0.1847 -0.0954
   44CHL1  H12A 5694   6.138   1.919   9.516  1.5885  0.6415  1.1544
   44CHL1  H12B 5695   6.046   2.042   9.618  1.8851  0.4121 -1.4024
   44CHL1   C11 5696   6.035   1.838   9.688 -0.2247  0.6342 -0.6525
   44CHL1  H11A 5697   6.051   1.736   9.648 -0.0964  1.1798 -2.0759
   44CHL1  H11B 5698   6.116   1.845   9.763  0.6259 -2.9267 -1.0839
   44CHL1    C9 5699   5.901   1.854   9.767  0.8281  0.9293  0.5546
   44CHL1    H9 5700   5.887   1.961   9.794 -1.2624  0.4218  1.6927
   44CHL1   C10 5701   5.884   1.781   9.905  0.1149 -0.2670  0.0876
   44CHL1   C19 5702   5.933   1.637   9.882  0.3575 -0.2752  0.3687
   44CHL1  H19A 5703   5.892   1.588   9.791 -0.0108 -3.7979  2.2307
   44CHL1  H19B 5704   6.042   1.633   9.864  0.0734 -1.4941 -1.3131
   44CHL1  H19C 5705   5.908   1.572   9.969  2.8966 -0.5177  0.9808
   44CHL1    C1 5706   5.978   1.860  10.002  0.3990 -1.1487  0.0748
   44CHL1   H1A 5707   6.085   1.838   9.982  1.2487  2.6713 -0.3779
   44CHL1   H1B 5708   5.964   1.970   9.992  2.2684 -0.6687  1.9662
   44CHL1    C2 5709   5.955   1.841  10.151  0.0861  0.2258  0.0352
   44CHL1   H2A 5710   6.003   1.919  10.214 -1.8073  1.0480  0.5367
   44CHL1   H2B 5711   5.996   1.743  10.183  2.1690  1.5332  1.6246
   44CHL1   C20 5712   6.005   2.070   9.253  0.0398 -0.4986 -1.4136
   44CHL1   H20 5713   6.075   1.985   9.249  0.0665 -0.5204 -0.6542
   44CHL1   C21 5714   6.090   2.191   9.294 -0.6385  0.1314 -0.2843
   44CHL1  H21A 5715   6.035   2.275   9.341  1.5246  0.2063  2.3591
   44CHL1  H21B 5716   6.157   2.226   9.213  2.1469  1.3176  2.3060
   44CHL1  H21C 5717   6.162   2.163   9.374 -0.6609  2.1063  0.4768
   44CHL1   C22 5718   5.934   2.086   9.116  0.1036  0.4067 -0.3743
   44CHL1  H22A 5719   5.901   1.985   9.083  0.9977  0.1962 -0.6657
   44CHL1  H22B 5720   5.850   2.158   9.117 -0.4656  0.0015  4.3054
   44CHL1   C23 5721   6.031   2.134   9.016  0.2598 -0.2209 -0.1722
   44CHL1  H23A 5722   6.038   2.245   9.024 -0.3769 -0.0841 -1.3227
   44CHL1  H23B 5723   6.132   2.087   9.021 -0.2726 -1.5173 -1.1453
   44CHL1   C24 5724   5.972   2.116   8.874 -0.6051  0.5020  0.7501
   44CHL1  H24A 5725   5.921   2.018   8.878 -0.7879  0.6221  1.8817
   44CHL1  H24B 5726   5.895   2.192   8.847 -1.2077 -0.5390 -0.5203
   44CHL1   C25 5727   6.090   2.118   8.779 -0.6494 -0.7420 -0.0378
   44CHL1   H25 5728   6.163   2.048   8.827  0.1187  0.2311  0.2508
   44CHL1   C26 5729   6.055   2.071   8.636 -0.3252  0.1702 -0.2356
   44CHL1  H26A 5730   6.155   2.056   8.588 -0.6011 -0.9794 -0.4700
   44CHL1  H26B 5731   5.985   1.985   8.644  0.9318 -0.7152  2.7745
   44CHL1  H26C 5732   6.004   2.151   8.578  0.0309  0.0929 -0.6629
   44CHL1   C27 5733   6.163   2.255   8.774 -0.6087 -0.1436 -0.0887
   44CHL1  H27A 5734   6.259   2.246   8.718 -0.7437 -1.2989 -0.1532
   44CHL1  H27B 5735   6.094   2.324   8.722  1.0708  1.4280 -0.3581
   44CHL1  H27C 5736   6.188   2.287   8.878 -4.0274  0.3607  0.6817
   45CHL1    C3 5737   1.160   3.590  10.265  0.3582  0.4093  0.0660
   45CHL1    H3 5738   1.243   3.524  10.296 -1.4553 -1.2358  1.7125
   45CHL1    O3 5739   1.122   3.671  10.378  0.8765 -0.2415  0.2112
   45CHL1   H3' 5740   1.148   3.612  10.449 -0.0987  2.1263  2.7150
   45CHL1    C4 5741   1.207   3.688  10.161 -0.2193 -0.1889  0.7088
   45CHL1   H4A 5742   1.123   3.755  10.135 -1.0483 -0.8562  1.5923
   45CHL1   H4B 5743   1.299   3.739  10.198 -0.0452  0.3217 -0.3779
   45CHL1    C5 5744   1.245   3.606  10.038  0.5740 -0.3469  0.4125
   45CHL1    C6 5745   1.369   3.612   9.978  0.2400  0.3999 -0.0312
   45CHL1    H6 5746   1.450   3.667  10.028  0.9975 -0.6742 -0.0353
   45CHL1    C7 5747   1.409   3.537   9.853 -0.5995 -0.2075 -0.4040
   45CHL1   H7A 5748   1.452   3.618   9.790  2.2859 -0.0112  1.6227
   45CHL1   H7B 5749   1.496   3.470   9.866  1.1365  1.8819 -0.6941
   45CHL1    C8 5750   1.299   3.459   9.776  0.1954  0.0838  0.2865
   45CHL1    H8 5751   1.343   3.363   9.741  1.1718 -0.1750  2.0735
   45CHL1   C14 5752   1.257   3.530   9.646  0.2134 -0.1302 -0.2399
   45CHL1   H14 5753   1.212   3.630   9.666 -0.7881  0.0089 -2.6959
   45CHL1   C15 5754   1.383   3.533   9.552 -0.2755 -0.3954  0.3615
   45CHL1  H15A 5755   1.371   3.610   9.472  1.3573 -0.9663 -0.4753
   45CHL1  H15B 5756   1.486   3.545   9.591  0.4774 -2.3875 -0.8678
   45CHL1   C16 5757   1.368   3.400   9.466  0.1446  0.5729 -0.4572
   45CHL1  H16A 5758   1.408   3.406   9.363  1.1827 -0.9019 -0.1695
   45CHL1  H16B 5759   1.419   3.318   9.521  0.3761  0.5188 -0.7482
   45CHL1   C17 5760   1.217   3.355   9.480  0.3643 -0.2230  0.2907
   45CHL1   H17 5761   1.222   3.266   9.547 -0.6583  0.5956  1.5117
   45CHL1   C13 5762   1.139   3.463   9.567 -0.7548 -0.6256 -0.1318
   45CHL1   C18 5763   1.078   3.580   9.482 -0.1784 -0.0594 -0.0366
   45CHL1  H18A 5764   1.159   3.638   9.431  0.8261 -0.1005  1.4518
   45CHL1  H18B 5765   0.994   3.541   9.420  1.7973 -1.5093 -1.9637
   45CHL1  H18C 5766   1.032   3.654   9.551  1.5138  0.2362  0.8348
   45CHL1   C12 5767   1.035   3.396   9.651 -0.1404  0.0473  0.4381
   45CHL1  H12A 5768   0.964   3.480   9.670  1.1880  0.7615  2.6527
   45CHL1  H12B 5769   0.973   3.325   9.593 -0.7102  2.7919 -2.5811
   45CHL1   C11 5770   1.082   3.330   9.787  0.3832 -0.1819 -0.0714
   45CHL1  H11A 5771   0.993   3.283   9.835 -0.9214  0.6955 -1.5142
   45CHL1  H11B 5772   1.136   3.239   9.752  0.9507 -0.4048  1.3068
   45CHL1    C9 5773   1.181   3.418   9.866 -0.7683  0.0323 -0.5103
   45CHL1    H9 5774   1.238   3.346   9.929  1.2195  2.8255  1.1246
   45CHL1   C10 5775   1.133   3.515   9.977  0.3133 -0.3111 -0.7379
   45CHL1   C19 5776   1.009   3.588   9.919 -1.0877  0.1638  0.4548
   45CHL1  H19A 5777   0.935   3.513   9.885 -0.3391 -0.1107 -0.6243
   45CHL1  H19B 5778   0.949   3.647   9.991 -2.0091 -1.2931  0.9274
   45CHL1  H19C 5779   1.046   3.652   9.836  3.2618 -3.3221 -0.6943
   45CHL1    C1 5780   1.081   3.424  10.100 -0.0268 -0.2381  0.2199
   45CHL1   H1A 5781   0.992   3.363  10.075 -1.0639  0.5932  1.7269
   45CHL1   H1B 5782   1.163   3.351  10.117  0.9785  0.9801  0.7618
   45CHL1    C2 5783   1.047   3.499  10.218 -0.5102 -0.3089 -0.3381
   45CHL1   H2A 5784   1.012   3.435  10.301 -1.4773  0.3011 -0.2478
   45CHL1   H2B 5785   0.952   3.557  10.207 -0.4978  0.5046  2.8139
   45CHL1   C20 5786   1.143   3.298   9.354  0.6416  0.2578  0.4100
   45CHL1   H20 5787   1.037   3.307   9.385  0.5005  2.5960 -0.5384
   45CHL1   C21 5788   1.194   3.152   9.346  0.0190  0.6672 -0.2013
   45CHL1  H21A 5789   1.135   3.096   9.270  0.4987 -0.4773  0.2474
   45CHL1  H21B 5790   1.159   3.099   9.437 -0.9383 -0.1011 -0.9863
   45CHL1  H21C 5791   1.299   3.134   9.314  0.4393  0.9453  0.9804
   45CHL1   C22 5792   1.164   3.371   9.222 -0.6149 -0.0337  0.1252
   45CHL1  H22A 5793   1.137   3.479   9.223 -0.9708 -0.1240  0.7634
   45CHL1  H22B 5794   1.270   3.368   9.189 -0.8882  1.2311 -0.9432
   45CHL1   C23 5795   1.095   3.304   9.103  0.0529  0.7883  0.2277
   45CHL1  H23A 5796   1.111   3.196   9.082 -1.7419  1.1982 -4.3880
   45CHL1  H23B 5797   0.985   3.317   9.106 -0.1966  0.3885 -3.0378
   45CHL1   C24 5798   1.134   3.373   8.975 -0.0461  0.1889  0.6186
   45CHL1  H24A 5799   1.113   3.481   8.964  1.2949  0.4316  0.3086
   45CHL1  H24B 5800   1.243   3.360   8.959  0.0285 -0.0224  1.2683
   45CHL1   C25 5801   1.058   3.307   8.855 -0.7316  0.2489  0.6699
   45CHL1   H25 5802   1.046   3.198   8.875 -1.5852 -0.4227 -2.8531
   45CHL1   C26 5803   0.917   3.361   8.842  0.2259 -0.3144 -0.1086
   45CHL1  H26A 5804   0.865   3.372   8.940 -1.4492 -0.5420 -0.9415
   45CHL1  H26B 5805   0.917   3.458   8.789 -0.5856 -1.0422 -1.5135
   45CHL1  H26C 5806   0.850   3.294   8.784  1.9304 -3.8263  1.6464
   45CHL1   C27 5807   1.131   3.335   8.722  0.0944 -0.4840 -0.7006
   45CHL1  H27A 5808   1.232   3.289   8.723 -0.3803 -1.5720  1.1016
   45CHL1  H27B 5809   1.060   3.290   8.649 -0.4662  0.5124 -0.7874
   45CHL1  H27C 5810   1.141   3.445   8.709  2.2329 -0.8436 -2.7865
   46CHL1    C3 5811   4.514   3.241   9.967  0.2141 -0.1056  0.0806
   46CHL1    H3 5812   4.588   3.183   9.907  0.8471  0.2746  0.4796
   46CHL1    O3 5813   4.547   3.241  10.102 -0.5429 -0.4412 -0.3278
   46CHL1   H3' 5814   4.477   3.298  10.136 -1.1479  1.4258 -4.0908
   46CHL1    C4 5815   4.500   3.379   9.898 -0.2231  0.2377 -0.0153
   46CHL1   H4A 5816   4.434   3.443   9.960  1.6036  0.5171  1.7370
   46CHL1   H4B 5817   4.601   3.424   9.909 -0.0683  0.3419 -1.6383
   46CHL1    C5 5818   4.461   3.362   9.753 -0.4150  0.4647 -0.2817
   46CHL1    C6 5819   4.537   3.403   9.651  0.0538  0.5159  0.3936
   46CHL1    H6 5820   4.636   3.444   9.676 -0.7635  2.5045  0.5744
   46CHL1    C7 5821   4.500   3.394   9.506 -0.3534  0.1915  0.5080
   46CHL1   H7A 5822   4.529   3.484   9.448  3.1318 -0.9449  0.2221
   46CHL1   H7B 5823   4.569   3.318   9.463  0.4567  0.8727  0.5798
   46CHL1    C8 5824   4.355   3.360   9.473  0.3985  1.2734  0.8976
   46CHL1    H8 5825   4.281   3.442   9.479 -0.5670  0.8610 -2.7318
   46CHL1   C14 5826   4.344   3.304   9.331  0.8401  0.0308 -0.4412
   46CHL1   H14 5827   4.404   3.211   9.335  1.2039  0.2904  1.5018
   46CHL1   C15 5828   4.404   3.383   9.219  0.0235 -0.6846 -0.1618
   46CHL1  H15A 5829   4.375   3.491   9.219  2.3540  0.0010  0.1914
   46CHL1  H15B 5830   4.515   3.381   9.218  0.1060  0.8575  1.0099
   46CHL1   C16 5831   4.339   3.314   9.093  0.6568  0.1820  0.2406
   46CHL1  H16A 5832   4.298   3.397   9.031  0.9319  0.6076  0.6117
   46CHL1  H16B 5833   4.419   3.266   9.033  0.2360  1.6537 -1.6091
   46CHL1   C17 5834   4.231   3.213   9.149 -0.7331  0.0914  0.2130
   46CHL1   H17 5835   4.286   3.116   9.148 -2.4915 -0.9887  1.7766
   46CHL1   C13 5836   4.204   3.264   9.296  0.3626  0.6326  0.0208
   46CHL1   C18 5837   4.115   3.384   9.281  1.0335 -0.6841 -0.6000
   46CHL1  H18A 5838   4.019   3.362   9.229 -1.5901  3.4108  1.9892
   46CHL1  H18B 5839   4.091   3.438   9.374  1.3317  1.7748 -1.8660
   46CHL1  H18C 5840   4.169   3.464   9.225 -2.5289  1.1419 -1.7067
   46CHL1   C12 5841   4.138   3.157   9.387 -0.4058 -1.0406  0.2108
   46CHL1  H12A 5842   4.029   3.137   9.376 -0.9168  0.2944  2.3164
   46CHL1  H12B 5843   4.198   3.068   9.358 -0.8099 -1.0273 -0.6889
   46CHL1   C11 5844   4.169   3.197   9.537 -0.3677  0.0765  1.1795
   46CHL1  H11A 5845   4.096   3.280   9.548 -1.6622 -0.9416  0.5178
   46CHL1  H11B 5846   4.143   3.121   9.614 -2.3815 -0.0884  0.4048
   46CHL1    C9 5847   4.311   3.253   9.571  0.1654 -0.0293 -0.2952
   46CHL1    H9 5848   4.375   3.165   9.550  0.7109  0.1251  0.6345
   46CHL1   C10 5849   4.333   3.291   9.727 -0.3830 -0.0923  0.1539
   46CHL1   C19 5850   4.215   3.369   9.775  0.7052 -0.1540 -0.2985
   46CHL1  H19A 5851   4.124   3.306   9.771 -0.0987  0.9530 -0.1539
   46CHL1  H19B 5852   4.234   3.409   9.877  1.0754 -1.3139  0.1005
   46CHL1  H19C 5853   4.197   3.458   9.710  0.2843  0.2087  0.3083
   46CHL1    C1 5854   4.329   3.160   9.819 -0.3033  1.1792 -0.9993
   46CHL1   H1A 5855   4.231   3.108   9.814 -0.6351  1.8802 -2.0704
   46CHL1   H1B 5856   4.403   3.101   9.760 -1.9348  0.6670 -2.6264
   46CHL1    C2 5857   4.372   3.185   9.962 -0.5271  0.5644 -0.2760
   46CHL1   H2A 5858   4.382   3.083  10.006 -0.4679  0.4121 -0.6453
   46CHL1   H2B 5859   4.298   3.242  10.022 -1.6954  1.1097 -2.1638
   46CHL1   C20 5860   4.117   3.180   9.059 -0.0293 -0.2081 -0.2266
   46CHL1   H20 5861   4.040   3.260   9.070 -0.3429 -0.8264  4.5001
   46CHL1   C21 5862   4.046   3.049   9.111  0.1808  0.8744 -0.1817
   46CHL1  H21A 5863   3.967   3.070   9.187  0.1592  0.9428 -0.2231
   46CHL1  H21B 5864   4.120   2.981   9.159  0.9119  1.9403  0.2430
   46CHL1  H21C 5865   3.993   2.995   9.030 -0.7007 -0.2737  1.1080
   46CHL1   C22 5866   4.157   3.174   8.914 -0.2990  0.0181  0.3292
   46CHL1  H22A 5867   4.187   3.278   8.889  1.9544 -0.4476  0.8687
   46CHL1  H22B 5868   4.250   3.114   8.911 -0.2936 -0.0223  1.1344
   46CHL1   C23 5869   4.047   3.132   8.816  0.7833  0.1751  0.4442
   46CHL1  H23A 5870   4.021   3.024   8.816 -1.1308  0.5908  0.3541
   46CHL1  H23B 5871   3.948   3.171   8.850 -0.8540 -3.5669  0.3892
   46CHL1   C24 5872   4.080   3.164   8.663 -0.6592 -0.3498  0.2026
   46CHL1  H24A 5873   4.067   3.274   8.659  1.2536 -0.0405  1.6114
   46CHL1  H24B 5874   4.182   3.131   8.634 -1.6408 -0.9769 -3.0030
   46CHL1   C25 5875   3.972   3.098   8.569  0.0168  0.1828 -0.0911
   46CHL1   H25 5876   3.999   2.990   8.572  0.1013  0.2067 -0.0084
   46CHL1   C26 5877   3.828   3.130   8.610 -0.0767 -0.2643 -0.1886
   46CHL1  H26A 5878   3.754   3.073   8.550  0.2418  0.0191 -0.8634
   46CHL1  H26B 5879   3.809   3.096   8.714  0.8610 -0.9914 -0.2429
   46CHL1  H26C 5880   3.805   3.238   8.600 -1.5713 -0.4719  0.6693
   46CHL1   C27 5881   3.996   3.129   8.422  0.4774  0.3688  0.6988
   46CHL1  H27A 5882   4.099   3.096   8.395 -0.1150 -0.1428 -1.0204
   46CHL1  H27B 5883   3.924   3.078   8.355 -0.7652 -0.2374  2.4334
   46CHL1  H27C 5884   3.995   3.238   8.400  2.1782  0.1196 -0.8786
   47CHL1    C3 5885   5.018   0.415   9.884 -0.0445 -0.5940 -0.3694
   47CHL1    H3 5886   5.121   0.453   9.865 -0.3629 -0.4764 -2.0850
   47CHL1    O3 5887   5.020   0.365  10.018  0.0417  0.2359  0.4739
   47CHL1   H3' 5888   4.939   0.315  10.027 -1.6453  2.6062 -0.3067
   47CHL1    C4 5889   4.908   0.526   9.865 -0.1229  0.1435 -0.6579
   47CHL1   H4A 5890   4.813   0.472   9.885  0.7545 -0.8593  1.0758
   47CHL1   H4B 5891   4.913   0.603   9.945  1.0614 -2.3895  1.9244
   47CHL1    C5 5892   4.895   0.579   9.727 -0.6406 -0.2851  0.6128
   47CHL1    C6 5893   4.911   0.710   9.701 -0.4565 -0.3498 -0.0139
   47CHL1    H6 5894   4.922   0.779   9.785  2.9078 -0.8050  0.0685
   47CHL1    C7 5895   4.903   0.773   9.564  0.2831  0.0191 -0.6052
   47CHL1   H7A 5896   4.842   0.866   9.567  0.8292  0.3671  0.2150
   47CHL1   H7B 5897   5.005   0.803   9.533  0.2737  0.8067  0.0906
   47CHL1    C8 5898   4.856   0.672   9.453 -0.3406 -0.6547  0.4319
   47CHL1    H8 5899   4.745   0.666   9.461 -0.5118  1.8204  0.6107
   47CHL1   C14 5900   4.893   0.728   9.321 -0.4870 -0.1272 -0.7367
   47CHL1   H14 5901   5.004   0.740   9.325 -0.3307 -1.6369  1.0374
   47CHL1   C15 5902   4.830   0.860   9.276 -0.9607 -0.5787  0.4981
   47CHL1  H15A 5903   4.723   0.862   9.303 -1.2518 -1.1920 -0.5488
   47CHL1  H15B 5904   4.875   0.952   9.318 -2.0135  1.3142 -2.2724
   47CHL1   C16 5905   4.847   0.855   9.124  0.6195  0.4566  0.4930
   47CHL1  H16A 5906   4.750   0.878   9.076  0.2309 -3.3080 -0.8344
   47CHL1  H16B 5907   4.921   0.930   9.090  0.1034  1.3023  1.2170
   47CHL1   C17 5908   4.892   0.713   9.086  0.3982 -0.2948  0.4600
   47CHL1   H17 5909   5.001   0.726   9.103  0.4860 -0.3330 -0.0645
   47CHL1   C13 5910   4.856   0.625   9.205 -0.0356 -0.0942 -0.5359
   47CHL1   C18 5911   4.703   0.602   9.194 -0.0778  0.0216 -0.4389
   47CHL1  H18A 5912   4.683   0.529   9.113 -0.3797 -1.0199  0.5521
   47CHL1  H18B 5913   4.655   0.557   9.284  4.1865 -1.0602  1.5539
   47CHL1  H18C 5914   4.640   0.690   9.167 -1.7172 -0.7152  0.7541
   47CHL1   C12 5915   4.936   0.493   9.223 -0.4514  0.1095  0.3757
   47CHL1  H12A 5916   4.912   0.418   9.145  0.5349 -1.0958  1.1987
   47CHL1  H12B 5917   5.047   0.506   9.220 -0.6076  1.4742 -1.1771
   47CHL1   C11 5918   4.898   0.432   9.355 -0.2713  0.4852  0.4354
   47CHL1  H11A 5919   4.791   0.403   9.356 -0.3321  0.6918  0.1489
   47CHL1  H11B 5920   4.952   0.335   9.364  3.2901  2.1008 -1.5185
   47CHL1    C9 5921   4.924   0.530   9.473  0.8101 -0.8952  0.1681
   47CHL1    H9 5922   5.032   0.556   9.478  0.6428 -0.1895  0.1204
   47CHL1   C10 5923   4.888   0.477   9.615 -0.0353  0.7155  0.3317
   47CHL1   C19 5924   4.739   0.432   9.615 -0.1433  0.6779  0.0949
   47CHL1  H19A 5925   4.721   0.341   9.554  0.7477  1.3642 -1.2463
   47CHL1  H19B 5926   4.706   0.411   9.719  0.6288  0.2982  0.2788
   47CHL1  H19C 5927   4.674   0.513   9.578 -1.8916 -0.8855 -0.4007
   47CHL1    C1 5928   4.983   0.355   9.635  0.3323 -0.1240  0.1904
   47CHL1   H1A 5929   4.962   0.269   9.568  0.1766  1.3228 -1.7121
   47CHL1   H1B 5930   5.088   0.386   9.614  0.6757  0.1616  2.1075
   47CHL1    C2 5931   4.995   0.305   9.784 -0.6260  0.3806 -0.9428
   47CHL1   H2A 5932   5.083   0.237   9.791 -0.0390  1.2508  0.6547
   47CHL1   H2B 5933   4.903   0.245   9.799  1.0392 -1.9597  0.6998
   47CHL1   C20 5934   4.870   0.672   8.944 -0.3167 -0.6106  0.6054
   47CHL1   H20 5935   4.884   0.562   8.941 -1.8768 -0.8260 -2.9274
   47CHL1   C21 5936   4.991   0.734   8.865  0.3590 -0.1559  0.3454
   47CHL1  H21A 5937   4.985   0.703   8.758  0.1591 -2.2799  0.9413
   47CHL1  H21B 5938   5.090   0.702   8.903  0.9708  2.4388  1.1641
   47CHL1  H21C 5939   4.979   0.845   8.872 -0.1046 -0.3084  3.0280
   47CHL1   C22 5940   4.722   0.699   8.881  0.8923  0.1288  0.0577
   47CHL1  H22A 5941   4.644   0.647   8.941 -0.0508  0.9186 -0.4529
   47CHL1  H22B 5942   4.707   0.809   8.885 -2.3792 -0.1120 -2.1774
   47CHL1   C23 5943   4.716   0.661   8.736  0.0623  0.0575 -0.0208
   47CHL1  H23A 5944   4.797   0.703   8.672 -1.7255  0.8450 -1.8760
   47CHL1  H23B 5945   4.744   0.554   8.726  1.2462  0.4935 -1.8014
   47CHL1   C24 5946   4.581   0.674   8.661  0.2336  0.5581  0.6611
   47CHL1  H24A 5947   4.512   0.593   8.693  0.6822 -0.2617 -0.4181
   47CHL1  H24B 5948   4.528   0.771   8.677  1.0875  0.9539  1.1923
   47CHL1   C25 5949   4.591   0.647   8.515  0.3048  0.6433  0.5063
   47CHL1   H25 5950   4.654   0.557   8.499  1.1760  1.3710 -0.2784
   47CHL1   C26 5951   4.461   0.611   8.446 -0.0367  0.6443  0.2003
   47CHL1  H26A 5952   4.427   0.523   8.504 -0.0046 -0.5681 -1.5334
   47CHL1  H26B 5953   4.470   0.574   8.341  0.5818  1.2333  0.0399
   47CHL1  H26C 5954   4.386   0.693   8.455 -0.1769  0.8787 -2.2214
   47CHL1   C27 5955   4.664   0.771   8.456  0.2440  0.9019  0.6691
   47CHL1  H27A 5956   4.765   0.796   8.497  1.5289  0.9124 -2.2330
   47CHL1  H27B 5957   4.686   0.758   8.347 -1.5791 -0.3270  0.4058
   47CHL1  H27C 5958   4.605   0.864   8.448 -0.5235  0.3355 -0.8002
   48CHL1    C3 5959   6.009   6.450  10.115 -0.0643 -0.2317 -0.1666
   48CHL1    H3 5960   6.020   6.345  10.149  2.1071  0.7085  2.4050
   48CHL1    O3 5961   5.996   6.521  10.244 -0.5906 -0.0680 -0.4929
   48CHL1   H3' 5962   5.928   6.467  10.286 -0.6710 -0.1925 -0.7742
   48CHL1    C4 5963   6.134   6.493  10.046  0.2797  0.4117 -0.6395
   48CHL1   H4A 5964   6.130   6.602  10.023 -1.4670  0.5466  0.0792
   48CHL1   H4B 5965   6.219   6.475  10.115 -0.1440  1.3124  0.1539
   48CHL1    C5 5966   6.156   6.422   9.918  0.1324  0.0179 -0.3617
   48CHL1    C6 5967   6.265   6.344   9.893  0.2105 -0.5640  0.4846
   48CHL1    H6 5968   6.346   6.341   9.967 -0.1819 -1.5299  0.8894
   48CHL1    C7 5969   6.279   6.264   9.769  0.7748  0.2135  0.0969
   48CHL1   H7A 5970   6.383   6.271   9.730  1.6934  0.5215  2.4482
   48CHL1   H7B 5971   6.259   6.157   9.793  2.6478 -0.2942 -0.4585
   48CHL1    C8 5972   6.176   6.303   9.652  0.5719  0.0320  0.6002
   48CHL1    H8 5973   6.212   6.399   9.610 -0.7474  1.1125  1.7935
   48CHL1   C14 5974   6.176   6.193   9.547  0.9457 -0.2750 -0.3945
   48CHL1   H14 5975   6.133   6.104   9.598 -0.4722  0.7500  0.2516
   48CHL1   C15 5976   6.307   6.149   9.483  0.3583  0.2518  0.0731
   48CHL1  H15A 5977   6.369   6.230   9.438 -0.8193  1.0551 -0.1218
   48CHL1  H15B 5978   6.364   6.102   9.566  0.8082  2.6731  1.2208
   48CHL1   C16 5979   6.274   6.059   9.366 -0.1663  0.5424  0.6825
   48CHL1  H16A 5980   6.334   6.090   9.277  0.3281 -0.7818  0.5376
   48CHL1  H16B 5981   6.302   5.954   9.389  0.7518  0.2853 -1.3590
   48CHL1   C17 5982   6.120   6.077   9.352  0.0059 -0.0912 -0.6042
   48CHL1   H17 5983   6.070   6.004   9.420  0.6472 -1.1166 -1.2107
   48CHL1   C13 5984   6.080   6.209   9.431 -0.0283 -0.2418  0.4951
   48CHL1   C18 5985   6.118   6.327   9.338 -0.2274 -0.1002 -0.0741
   48CHL1  H18A 5986   6.216   6.298   9.295  0.9314  0.5451  1.9978
   48CHL1  H18B 5987   6.041   6.345   9.259  0.7680 -0.2293 -1.1021
   48CHL1  H18C 5988   6.125   6.421   9.397 -0.0399  0.2928 -0.7108
   48CHL1   C12 5989   5.935   6.236   9.494  0.4384 -0.9594  0.2532
   48CHL1  H12A 5990   5.865   6.264   9.413 -0.1623 -0.5313  0.9056
   48CHL1  H12B 5991   5.904   6.148   9.555 -0.7070 -1.8098 -1.4796
   48CHL1   C11 5992   5.939   6.352   9.593 -0.1153  0.5820  0.2938
   48CHL1  H11A 5993   5.957   6.439   9.527  0.9965 -1.9279 -2.9568
   48CHL1  H11B 5994   5.834   6.365   9.629 -0.1522  1.3747 -0.0667
   48CHL1    C9 5995   6.039   6.329   9.706  0.3994 -0.0886  0.2936
   48CHL1    H9 5996   5.999   6.231   9.741  1.4894 -1.5049 -2.1513
   48CHL1   C10 5997   6.031   6.422   9.830 -0.2051  0.0839  0.5178
   48CHL1   C19 5998   6.027   6.565   9.772  0.1115 -0.6109  0.2476
   48CHL1  H19A 5999   6.022   6.644   9.849 -1.1710 -1.0206  0.6054
   48CHL1  H19B 6000   6.119   6.578   9.711  0.9120  2.2080  1.8846
   48CHL1  H19C 6001   5.931   6.585   9.719  0.2447  2.1597  0.8850
   48CHL1    C1 6002   5.902   6.396   9.904  0.6102 -0.4119 -0.3536
   48CHL1   H1A 6003   5.818   6.424   9.837 -0.0065 -3.7501 -1.1785
   48CHL1   H1B 6004   5.898   6.290   9.936  1.1181  0.2635  2.1887
   48CHL1    C2 6005   5.885   6.478  10.038  0.4273 -0.7483 -0.0304
   48CHL1   H2A 6006   5.801   6.442  10.100  1.5742 -0.1078  1.9859
   48CHL1   H2B 6007   5.869   6.585  10.013 -0.0460 -1.4740 -3.3861
   48CHL1   C20 6008   6.063   6.064   9.207 -0.1001 -1.0124 -0.0288
   48CHL1   H20 6009   6.115   6.151   9.160  1.9230 -1.8257  0.5804
   48CHL1   C21 6010   5.909   6.075   9.212  0.2677  0.4993  0.3478
   48CHL1  H21A 6011   5.866   6.175   9.192 -0.0422  0.0098 -1.5870
   48CHL1  H21B 6012   5.870   6.030   9.307 -0.9280 -2.8540 -1.5510
   48CHL1  H21C 6013   5.860   6.011   9.135  0.3422  0.0625  0.6565
   48CHL1   C22 6014   6.106   5.933   9.131  0.1533 -0.7376  0.3678
   48CHL1  H22A 6015   6.213   5.903   9.132  0.8841  1.4827 -1.5523
   48CHL1  H22B 6016   6.038   5.853   9.167 -1.9019  0.0158 -1.6033
   48CHL1   C23 6017   6.082   5.945   8.976  0.4698 -0.0376 -0.3465
   48CHL1  H23A 6018   5.973   5.958   8.960  0.4440  0.4143  0.1737
   48CHL1  H23B 6019   6.148   6.029   8.945  1.1280 -0.4137  0.0113
   48CHL1   C24 6020   6.119   5.816   8.895 -0.3009 -0.3571 -0.9565
   48CHL1  H24A 6021   6.229   5.807   8.886 -0.1355 -1.2151  1.3582
   48CHL1  H24B 6022   6.080   5.723   8.941  0.1322 -0.1522 -0.1663
   48CHL1   C25 6023   6.070   5.797   8.752 -0.2046  0.1312 -0.4726
   48CHL1   H25 6024   6.081   5.690   8.724 -0.6071 -0.0905  0.1952
   48CHL1   C26 6025   5.924   5.829   8.732  0.1458 -0.0484  0.2447
   48CHL1  H26A 6026   5.883   5.797   8.634 -0.9259  0.1362  0.6134
   48CHL1  H26B 6027   5.865   5.782   8.814  0.6254  0.3188  0.8095
   48CHL1  H26C 6028   5.910   5.939   8.738  1.1474  0.2080 -1.5038
   48CHL1   C27 6029   6.143   5.872   8.642 -0.4055 -0.2362 -0.3094
   48CHL1  H27A 6030   6.252   5.880   8.660 -0.0110 -1.2555 -2.0058
   48CHL1  H27B 6031   6.133   5.802   8.557 -1.3257 -0.7870  0.2302
   48CHL1  H27C 6032   6.101   5.973   8.624 -1.3221 -0.6739 -0.7051
   49CHL1    C3 6033   5.961   3.603   9.994  0.6090  0.5699 -0.0750
   49CHL1    H3 6034   6.067   3.621   9.965  0.1837 -0.1616 -2.3232
   49CHL1    O3 6035   5.947   3.615  10.135  0.3362 -0.4540  0.8899
   49CHL1   H3' 6036   5.960   3.708  10.155 -0.2806 -0.2087  0.1919
   49CHL1    C4 6037   5.871   3.718   9.944 -0.4852  0.0603 -0.1061
   49CHL1   H4A 6038   5.769   3.714   9.988 -0.8024  0.8481 -0.7345
   49CHL1   H4B 6039   5.914   3.816   9.972  0.3540  0.5605 -2.8402
   49CHL1    C5 6040   5.860   3.715   9.793  0.1646  0.6679  0.0709
   49CHL1    C6 6041   5.885   3.816   9.711  0.2388  0.0777 -0.1324
   49CHL1    H6 6042   5.904   3.916   9.755 -1.1208 -0.0125  0.6911
   49CHL1    C7 6043   5.864   3.814   9.562 -0.7675 -0.0513  0.1866
   49CHL1   H7A 6044   5.834   3.917   9.530  2.8066  0.5398 -1.7099
   49CHL1   H7B 6045   5.966   3.797   9.522 -0.5658  0.3708  0.5177
   49CHL1    C8 6046   5.778   3.699   9.521 -0.4350 -0.2008 -0.0976
   49CHL1    H8 6047   5.676   3.725   9.555  0.3725  2.3484  0.5545
   49CHL1   C14 6048   5.764   3.686   9.366 -0.6041  0.0032  0.1489
   49CHL1   H14 6049   5.867   3.682   9.324 -0.0631  0.1202  1.3988
   49CHL1   C15 6050   5.707   3.805   9.291  0.4769 -0.8955 -0.5372
   49CHL1  H15A 6051   5.632   3.859   9.352  0.4098  1.1028 -2.2613
   49CHL1  H15B 6052   5.781   3.888   9.280 -0.0313 -0.1672  1.2214
   49CHL1   C16 6053   5.663   3.744   9.155  0.5196  0.6284  0.0133
   49CHL1  H16A 6054   5.553   3.748   9.146  0.5908  1.5631 -0.6041
   49CHL1  H16B 6055   5.713   3.789   9.067  0.5315  1.5812  0.4828
   49CHL1   C17 6056   5.691   3.586   9.160  0.4404  0.4930  0.9319
   49CHL1   H17 6057   5.793   3.565   9.120 -0.0586 -0.4434  0.1144
   49CHL1   C13 6058   5.688   3.564   9.309  0.5583  0.0045 -0.2464
   49CHL1   C18 6059   5.545   3.572   9.371 -0.6684  0.3511 -0.6305
   49CHL1  H18A 6060   5.485   3.489   9.328 -2.6349  0.9709  0.7873
   49CHL1  H18B 6061   5.537   3.555   9.480 -0.7980  2.3966 -0.2728
   49CHL1  H18C 6062   5.497   3.669   9.343  1.8505  1.4439 -1.4167
   49CHL1   C12 6063   5.768   3.444   9.367  0.3997  0.1190  0.5332
   49CHL1  H12A 6064   5.717   3.349   9.342 -1.1150  1.2816 -0.9542
   49CHL1  H12B 6065   5.866   3.433   9.315 -0.1524  0.2539 -0.5543
   49CHL1   C11 6066   5.778   3.440   9.515 -0.2267 -0.6089 -0.7273
   49CHL1  H11A 6067   5.677   3.420   9.557 -0.4039  0.6495 -0.5029
   49CHL1  H11B 6068   5.841   3.353   9.543 -0.8903 -1.2421 -1.1857
   49CHL1    C9 6069   5.835   3.573   9.577  0.5590  0.0339  0.4352
   49CHL1    H9 6070   5.946   3.571   9.569  0.6296 -0.3056  1.3557
   49CHL1   C10 6071   5.817   3.575   9.730 -0.1622 -0.1503  0.2859
   49CHL1   C19 6072   5.674   3.550   9.785 -0.0263 -0.3256  0.4822
   49CHL1  H19A 6073   5.626   3.451   9.774  0.5017 -0.6081  0.6863
   49CHL1  H19B 6074   5.669   3.567   9.895 -0.6011  2.6772  0.0752
   49CHL1  H19C 6075   5.602   3.623   9.742  0.7666  0.4643  0.4631
   49CHL1    C1 6076   5.898   3.464   9.791  0.1091 -0.0787 -0.0350
   49CHL1   H1A 6077   5.854   3.366   9.763 -0.3455  0.0170  0.3340
   49CHL1   H1B 6078   6.000   3.455   9.747 -1.0071 -1.2737 -2.5152
   49CHL1    C2 6079   5.917   3.466   9.944 -0.1473  1.1192 -0.4474
   49CHL1   H2A 6080   5.992   3.388   9.968 -0.1609  1.0228 -0.7229
   49CHL1   H2B 6081   5.827   3.430   9.997 -0.6118 -0.1677 -2.0221
   49CHL1   C20 6082   5.590   3.509   9.072  0.4852  0.2325 -0.1123
   49CHL1   H20 6083   5.489   3.533   9.109  1.3301  2.2891  1.0480
   49CHL1   C21 6084   5.618   3.360   9.092  0.5033  0.1829 -0.2827
   49CHL1  H21A 6085   5.549   3.307   9.022 -2.7294  1.2172  1.8903
   49CHL1  H21B 6086   5.595   3.318   9.192 -0.1955 -2.2742 -1.3976
   49CHL1  H21C 6087   5.722   3.328   9.072  1.4972  2.3214  1.0766
   49CHL1   C22 6088   5.603   3.550   8.924  0.1632  0.3272 -0.3605
   49CHL1  H22A 6089   5.581   3.658   8.908  1.1525  0.4377 -1.0835
   49CHL1  H22B 6090   5.704   3.534   8.879 -0.2995 -1.2055 -0.9278
   49CHL1   C23 6091   5.500   3.480   8.831 -0.9075  0.6630  0.5414
   49CHL1  H23A 6092   5.512   3.369   8.830 -3.4573  0.3170  0.3239
   49CHL1  H23B 6093   5.402   3.504   8.878  0.0612  1.5597  2.1722
   49CHL1   C24 6094   5.499   3.548   8.687  0.3440 -0.5836 -0.1384
   49CHL1  H24A 6095   5.479   3.656   8.701  3.1340 -0.0672  0.3034
   49CHL1  H24B 6096   5.604   3.540   8.654  0.0175  0.5223 -1.5334
   49CHL1   C25 6097   5.412   3.481   8.578  0.8081  0.3522  0.2396
   49CHL1   H25 6098   5.439   3.373   8.575 -0.9781 -0.1268 -0.5351
   49CHL1   C26 6099   5.258   3.489   8.611 -0.1804 -1.3585 -0.0488
   49CHL1  H26A 6100   5.242   3.434   8.706  2.6520 -1.3206  0.5293
   49CHL1  H26B 6101   5.228   3.596   8.621  1.0923 -1.0464  0.6540
   49CHL1  H26C 6102   5.195   3.442   8.533  1.1594  0.7285 -2.5504
   49CHL1   C27 6103   5.431   3.550   8.439  0.2834  0.1213 -0.1655
   49CHL1  H27A 6104   5.413   3.659   8.445  0.9802  0.2728 -0.6095
   49CHL1  H27B 6105   5.538   3.533   8.411  0.3010  0.3021 -0.2066
   49CHL1  H27C 6106   5.369   3.490   8.368  0.7056 -0.3325 -0.1598
   50CHL1    C3 6107   0.458   5.926   9.967 -0.3240  0.4033  0.1436
   50CHL1    H3 6108   0.360   5.974   9.944  0.1105  0.7263 -1.1195
   50CHL1    O3 6109   0.511   5.951  10.094  0.6122 -0.1917 -0.0794
   50CHL1   H3' 6110   0.585   5.893  10.114  0.7440 -0.2247 -0.6507
   50CHL1    C4 6111   0.434   5.774   9.966 -0.3242  0.0263 -0.1340
   50CHL1   H4A 6112   0.534   5.730   9.985  0.4671  0.8909 -2.1122
   50CHL1   H4B 6113   0.368   5.742  10.050  1.4695 -0.7698  1.0294
   50CHL1    C5 6114   0.393   5.720   9.830 -0.0064  0.2315 -0.2765
   50CHL1    C6 6115   0.280   5.649   9.811  0.1973  0.6441  0.3580
   50CHL1    H6 6116   0.213   5.629   9.896 -1.4941  1.7268 -0.6711
   50CHL1    C7 6117   0.223   5.605   9.677 -0.7380 -0.0181 -0.1507
   50CHL1   H7A 6118   0.188   5.500   9.689 -2.5567  0.7086  1.5407
   50CHL1   H7B 6119   0.133   5.668   9.660 -0.6343  1.0835  2.7843
   50CHL1    C8 6120   0.331   5.603   9.567  0.0382 -0.3892 -0.5089
   50CHL1    H8 6121   0.401   5.521   9.595 -1.7492 -1.2052  1.9767
   50CHL1   C14 6122   0.273   5.584   9.433  1.6114  0.1447  0.5727
   50CHL1   H14 6123   0.209   5.672   9.415  0.6500 -0.9296 -1.6649
   50CHL1   C15 6124   0.182   5.463   9.401  0.6673  0.3344 -0.0778
   50CHL1  H15A 6125   0.221   5.368   9.441 -3.8188 -1.3372  0.9679
   50CHL1  H15B 6126   0.084   5.486   9.448  0.4435 -0.0022 -0.3810
   50CHL1   C16 6127   0.174   5.468   9.244 -0.7186  0.3284  0.3115
   50CHL1  H16A 6128   0.195   5.368   9.200  1.3403  2.0426 -2.9412
   50CHL1  H16B 6129   0.075   5.509   9.214  0.3079  2.8727  0.2080
   50CHL1   C17 6130   0.285   5.565   9.194 -0.0795  0.5184  0.5582
   50CHL1   H17 6131   0.244   5.665   9.169  1.2059  0.9403  0.0433
   50CHL1   C13 6132   0.371   5.602   9.314  0.3886  0.2528 -0.0721
   50CHL1   C18 6133   0.478   5.494   9.342  1.0743 -0.0422  0.4330
   50CHL1  H18A 6134   0.428   5.394   9.339 -0.5358  0.7641 -0.7509
   50CHL1  H18B 6135   0.558   5.499   9.265  0.4879 -1.8915 -0.3695
   50CHL1  H18C 6136   0.533   5.505   9.438  2.1335 -0.2532 -0.1261
   50CHL1   C12 6137   0.431   5.740   9.310 -0.7069 -0.4885  0.8406
   50CHL1  H12A 6138   0.504   5.742   9.226 -0.9263 -2.6109  0.5260
   50CHL1  H12B 6139   0.355   5.818   9.289  0.6208  0.4757 -0.6216
   50CHL1   C11 6140   0.490   5.777   9.443  1.1976 -0.2935 -0.1139
   50CHL1  H11A 6141   0.593   5.739   9.454  0.5986 -1.8211  0.6209
   50CHL1  H11B 6142   0.505   5.887   9.451 -1.6437  0.0682  2.0839
   50CHL1    C9 6143   0.403   5.737   9.568  0.7323  0.3453  0.0315
   50CHL1    H9 6144   0.323   5.814   9.567 -0.1070 -0.4810 -1.6051
   50CHL1   C10 6145   0.472   5.767   9.708  0.1937 -0.9547 -0.3091
   50CHL1   C19 6146   0.602   5.680   9.720 -0.7334 -0.9996  0.4966
   50CHL1  H19A 6147   0.665   5.693   9.630 -0.2436  2.3116  1.1776
   50CHL1  H19B 6148   0.667   5.710   9.805 -0.5512  0.7956 -0.2171
   50CHL1  H19C 6149   0.575   5.573   9.720  0.2138 -1.2507  0.6846
   50CHL1    C1 6150   0.503   5.923   9.726  0.2258 -0.4024 -0.1022
   50CHL1   H1A 6151   0.572   5.956   9.645 -0.1636 -0.1922 -0.3549
   50CHL1   H1B 6152   0.404   5.974   9.719  0.3877 -0.1765 -0.8180
   50CHL1    C2 6153   0.564   5.964   9.862  0.0390 -0.3233 -0.1414
   50CHL1   H2A 6154   0.582   6.073   9.872 -0.4242 -0.3068  0.6164
   50CHL1   H2B 6155   0.660   5.910   9.874  0.2968 -0.8630 -3.6341
   50CHL1   C20 6156   0.348   5.521   9.056 -0.5703  0.9045 -0.0268
   50CHL1   H20 6157   0.401   5.424   9.075 -0.5712  1.1499  1.3612
   50CHL1   C21 6158   0.448   5.626   9.003 -0.3737  0.9228  0.3455
   50CHL1  H21A 6159   0.545   5.625   9.057 -0.3093 -0.6878  0.2407
   50CHL1  H21B 6160   0.404   5.728   9.014 -2.3057  0.2539 -0.7602
   50CHL1  H21C 6161   0.475   5.613   8.896  1.1696 -1.8884  0.9916
   50CHL1   C22 6162   0.244   5.486   8.951 -0.4414 -0.3382  0.7858
   50CHL1  H22A 6163   0.155   5.434   8.991  0.1964 -2.4785 -0.3947
   50CHL1  H22B 6164   0.202   5.572   8.894  1.7319  1.0204  1.0949
   50CHL1   C23 6165   0.301   5.400   8.839  0.1376  0.4408  0.2232
   50CHL1  H23A 6166   0.388   5.448   8.789 -0.9618  1.2443 -0.9833
   50CHL1  H23B 6167   0.346   5.304   8.873  1.5680  0.1180 -2.3031
   50CHL1   C24 6168   0.201   5.379   8.725  0.1819  0.1827  0.4420
   50CHL1  H24A 6169   0.111   5.337   8.775 -0.1494  2.4440  1.8959
   50CHL1  H24B 6170   0.179   5.477   8.679  1.2904 -0.7178 -2.1586
   50CHL1   C25 6171   0.244   5.288   8.605  0.4178  0.0374 -0.7845
   50CHL1   H25 6172   0.294   5.201   8.652 -2.9459 -1.6225  0.0008
   50CHL1   C26 6173   0.118   5.221   8.552  1.0813 -0.0605  0.4569
   50CHL1  H26A 6174   0.144   5.132   8.491  1.5111 -0.8574  1.7807
   50CHL1  H26B 6175   0.052   5.190   8.636  0.7626 -0.2951  0.1253
   50CHL1  H26C 6176   0.055   5.296   8.498 -0.0407 -0.0189  1.7587
   50CHL1   C27 6177   0.333   5.356   8.499 -0.3327 -0.1488 -0.2100
   50CHL1  H27A 6178   0.280   5.446   8.460  0.9954  0.1780 -1.3139
   50CHL1  H27B 6179   0.431   5.380   8.543  0.4431 -1.2206 -1.2827
   50CHL1  H27C 6180   0.349   5.286   8.414 -0.6149  0.6341 -0.9284
   51CHL1    C3 6181   3.908   3.388  10.111 -0.7239  0.0907  0.8885
   51CHL1    H3 6182   4.013   3.378  10.077 -0.6516  0.7708  0.8965
   51CHL1    O3 6183   3.898   3.378  10.251  0.3681 -0.2866 -0.6673
   51CHL1   H3' 6184   3.831   3.311  10.267  1.9945 -1.6918  0.8719
   51CHL1    C4 6185   3.868   3.534  10.058 -0.0014  0.3540  0.0753
   51CHL1   H4A 6186   3.772   3.566  10.103  0.6286 -0.3394  1.9892
   51CHL1   H4B 6187   3.937   3.602  10.111  0.0933  0.2459  0.0910
   51CHL1    C5 6188   3.862   3.548   9.912 -0.2068  0.1145  0.4213
   51CHL1    C6 6189   3.929   3.646   9.844  0.6532 -0.0928 -0.2037
   51CHL1    H6 6190   3.979   3.719   9.910  0.5393 -1.4231  1.4493
   51CHL1    C7 6191   3.935   3.651   9.692  0.1314  0.1939 -0.1709
   51CHL1   H7A 6192   3.943   3.754   9.650  0.2752 -0.1040 -0.8869
   51CHL1   H7B 6193   4.026   3.594   9.664 -1.4735 -2.3278 -0.5341
   51CHL1    C8 6194   3.805   3.591   9.634 -0.0344  0.8859 -0.8479
   51CHL1    H8 6195   3.721   3.655   9.671 -1.0315  0.0558 -1.6159
   51CHL1   C14 6196   3.817   3.600   9.486 -0.0116  0.2303  0.3019
   51CHL1   H14 6197   3.914   3.553   9.463  0.2406  0.6935  0.4084
   51CHL1   C15 6198   3.843   3.732   9.406  0.8829  0.1900 -0.8295
   51CHL1  H15A 6199   3.772   3.808   9.447  0.3858  0.0986 -1.4952
   51CHL1  H15B 6200   3.941   3.784   9.413  1.1337 -0.4045  0.0954
   51CHL1   C16 6201   3.797   3.703   9.262 -0.5021  0.1881 -0.4999
   51CHL1  H16A 6202   3.713   3.774   9.245 -0.4479  0.2207 -0.6330
   51CHL1  H16B 6203   3.883   3.708   9.192  1.7565  0.8231  2.1612
   51CHL1   C17 6204   3.745   3.554   9.258 -0.1436 -0.0441  0.1428
   51CHL1   H17 6205   3.834   3.490   9.242 -0.5112 -0.1302 -1.7118
   51CHL1   C13 6206   3.714   3.530   9.408 -0.1332 -0.1847  1.0401
   51CHL1   C18 6207   3.578   3.599   9.445  0.1073 -0.7036 -0.3424
   51CHL1  H18A 6208   3.587   3.708   9.428  0.0327 -0.0308  3.0559
   51CHL1  H18B 6209   3.504   3.546   9.381  0.1000 -2.1606  0.7977
   51CHL1  H18C 6210   3.555   3.588   9.554 -0.2134 -0.6073 -0.4000
   51CHL1   C12 6211   3.714   3.380   9.450 -0.3163  0.2673 -0.5112
   51CHL1  H12A 6212   3.639   3.311   9.406 -0.0794 -1.3902  1.5340
   51CHL1  H12B 6213   3.814   3.342   9.420 -0.4435  0.6123 -1.4209
   51CHL1   C11 6214   3.703   3.362   9.603 -0.0537 -0.6415  0.7581
   51CHL1  H11A 6215   3.598   3.383   9.633  0.5965  0.3198  2.5131
   51CHL1  H11B 6216   3.730   3.258   9.632  3.4393 -0.2827 -0.7162
   51CHL1    C9 6217   3.801   3.449   9.682  0.0233 -0.1680  0.4083
   51CHL1    H9 6218   3.903   3.408   9.666 -0.1302 -0.9294  1.3026
   51CHL1   C10 6219   3.783   3.436   9.838  0.7849 -0.0049  0.4830
   51CHL1   C19 6220   3.637   3.459   9.872 -0.0202  0.4039  0.2700
   51CHL1  H19A 6221   3.624   3.458   9.982 -0.0909 -1.3522  0.2671
   51CHL1  H19B 6222   3.604   3.557   9.831 -5.1313 -1.1618 -0.0864
   51CHL1  H19C 6223   3.585   3.370   9.831  1.8545 -1.1540  1.1473
   51CHL1    C1 6224   3.829   3.297   9.879  0.3127  0.1176  0.0782
   51CHL1   H1A 6225   3.750   3.227   9.842 -0.7877  1.8341 -0.9494
   51CHL1   H1B 6226   3.925   3.266   9.832 -0.3766 -2.5039  0.2281
   51CHL1    C2 6227   3.835   3.279  10.037  0.2128 -0.4039 -0.1634
   51CHL1   H2A 6228   3.886   3.181  10.050  0.1000 -0.3452  0.8321
   51CHL1   H2B 6229   3.729   3.263  10.065  0.9974 -2.7377  1.8647
   51CHL1   C20 6230   3.638   3.531   9.153 -0.5285  0.1833  0.0177
   51CHL1   H20 6231   3.548   3.590   9.182 -0.7478  0.4141 -1.0871
   51CHL1   C21 6232   3.584   3.386   9.137  0.6184 -0.3606  0.2190
   51CHL1  H21A 6233   3.659   3.310   9.107 -0.3735 -0.8448 -1.1588
   51CHL1  H21B 6234   3.508   3.397   9.057  1.2087 -2.4197 -0.6947
   51CHL1  H21C 6235   3.541   3.349   9.233 -0.0303  2.0252  0.9222
   51CHL1   C22 6236   3.680   3.581   9.010 -0.2927  0.7172  0.3465
   51CHL1  H22A 6237   3.605   3.552   8.932 -0.7331  1.0118  0.6520
   51CHL1  H22B 6238   3.684   3.692   9.007 -0.6109  0.7108 -0.9587
   51CHL1   C23 6239   3.817   3.531   8.972  0.4808 -0.1783 -0.2180
   51CHL1  H23A 6240   3.890   3.551   9.054  0.1160 -0.1730  0.1075
   51CHL1  H23B 6241   3.812   3.420   8.971  1.8542 -0.2860  0.7932
   51CHL1   C24 6242   3.865   3.608   8.849  0.3170  0.1365 -0.2317
   51CHL1  H24A 6243   3.795   3.597   8.763  0.7476  0.1568 -0.5905
   51CHL1  H24B 6244   3.865   3.716   8.872  0.7501 -0.2223  1.6004
   51CHL1   C25 6245   4.007   3.573   8.794  0.2567 -0.4552 -0.4634
   51CHL1   H25 6246   3.998   3.470   8.753 -2.3663 -1.2342  1.7348
   51CHL1   C26 6247   4.043   3.664   8.680 -0.3289  0.2838 -0.2941
   51CHL1  H26A 6248   3.972   3.672   8.595 -1.8293 -0.1814  0.8575
   51CHL1  H26B 6249   4.061   3.763   8.727  3.5213 -0.9614  1.2533
   51CHL1  H26C 6250   4.140   3.635   8.635  0.3700  0.2260  1.1933
   51CHL1   C27 6251   4.110   3.574   8.906  0.6939 -0.3551  0.1496
   51CHL1  H27A 6252   4.140   3.677   8.935  0.3480 -0.0280 -0.6239
   51CHL1  H27B 6253   4.069   3.522   8.995 -0.8448 -2.1233 -1.5031
   51CHL1  H27C 6254   4.204   3.523   8.874  0.6752  0.2743 -0.9759
   52CHL1    C3 6255   5.472   0.677   9.830 -0.3531 -0.2952 -0.1795
   52CHL1    H3 6256   5.456   0.785   9.813 -0.4048 -0.2673  0.0505
   52CHL1    O3 6257   5.462   0.637   9.968  0.1006 -0.3876 -0.2691
   52CHL1   H3' 6258   5.524   0.688  10.020 -0.0222 -1.8677  1.4139
   52CHL1    C4 6259   5.377   0.592   9.749 -0.2191 -0.3905 -0.3338
   52CHL1   H4A 6260   5.411   0.487   9.764 -1.1024 -0.3999  1.9542
   52CHL1   H4B 6261   5.271   0.599   9.782  0.2039  2.1413  0.6921
   52CHL1    C5 6262   5.392   0.607   9.604  0.4075 -0.3251  0.6119
   52CHL1    C6 6263   5.288   0.643   9.531  0.6064 -0.3795 -0.1534
   52CHL1    H6 6264   5.198   0.663   9.591  1.0732  2.6020 -0.2564
   52CHL1    C7 6265   5.283   0.678   9.378  0.3924  0.9905 -0.1427
   52CHL1   H7A 6266   5.198   0.635   9.320  0.1218  1.4261 -0.0711
   52CHL1   H7B 6267   5.297   0.787   9.362 -0.4455  1.4959  2.2444
   52CHL1    C8 6268   5.419   0.631   9.311  0.3090  0.8587 -0.4980
   52CHL1    H8 6269   5.407   0.520   9.308  0.8792  0.7895 -0.3982
   52CHL1   C14 6270   5.445   0.692   9.173 -0.6024  0.7302  0.0375
   52CHL1   H14 6271   5.456   0.799   9.202 -0.3462  0.5979  0.4300
   52CHL1   C15 6272   5.333   0.691   9.069  0.6515 -0.1367  0.2508
   52CHL1  H15A 6273   5.293   0.588   9.058 -0.1981  0.0187  1.5876
   52CHL1  H15B 6274   5.242   0.746   9.098  0.9668 -0.6723  2.5017
   52CHL1   C16 6275   5.411   0.752   8.943 -0.3997  0.1340  0.4045
   52CHL1  H16A 6276   5.388   0.693   8.852  1.1360 -0.1701  0.1924
   52CHL1  H16B 6277   5.384   0.855   8.912 -0.1498  0.1881  0.3670
   52CHL1   C17 6278   5.566   0.752   8.974  0.1826 -0.1802 -0.1706
   52CHL1   H17 6279   5.592   0.855   9.007 -2.8036  0.8081 -0.5414
   52CHL1   C13 6280   5.580   0.670   9.109 -0.3170 -0.7147  0.1869
   52CHL1   C18 6281   5.594   0.520   9.077  0.0470 -0.1304 -0.0968
   52CHL1  H18A 6282   5.520   0.474   9.008  2.5734 -0.6475 -2.6513
   52CHL1  H18B 6283   5.699   0.506   9.043  0.4918  1.6337  0.4484
   52CHL1  H18C 6284   5.584   0.463   9.172  0.0181  0.3211  0.1711
   52CHL1   C12 6285   5.690   0.715   9.207  0.1408  0.5410  0.5160
   52CHL1  H12A 6286   5.790   0.707   9.159  0.1027 -0.4802  0.5978
   52CHL1  H12B 6287   5.678   0.824   9.224 -1.0008  0.9182 -2.1675
   52CHL1   C11 6288   5.681   0.644   9.338  0.0009  0.6252  0.5988
   52CHL1  H11A 6289   5.716   0.540   9.324  2.4351  1.6420 -1.7324
   52CHL1  H11B 6290   5.764   0.678   9.404 -0.2068  1.5276  0.4134
   52CHL1    C9 6291   5.543   0.662   9.406 -0.2069  0.2986  0.4381
   52CHL1    H9 6292   5.536   0.772   9.417 -1.8289  0.5072 -1.8795
   52CHL1   C10 6293   5.536   0.603   9.547  0.9233  0.1852 -0.3987
   52CHL1   C19 6294   5.574   0.455   9.541  0.4109  0.1991  0.7483
   52CHL1  H19A 6295   5.684   0.451   9.527  0.0997 -0.0640 -2.1786
   52CHL1  H19B 6296   5.558   0.397   9.634 -0.9834  0.1767  0.5061
   52CHL1  H19C 6297   5.522   0.409   9.456  1.8506 -0.9669  0.4567
   52CHL1    C1 6298   5.636   0.675   9.637 -0.1635  0.2658  0.2583
   52CHL1   H1A 6299   5.739   0.649   9.604 -0.5939 -0.9966 -0.1589
   52CHL1   H1B 6300   5.628   0.783   9.615 -0.3249 -0.2855 -2.9036
   52CHL1    C2 6301   5.622   0.648   9.791 -0.3170 -0.3941  0.5141
   52CHL1   H2A 6302   5.684   0.720   9.849  0.4915  0.1427 -0.9645
   52CHL1   H2B 6303   5.653   0.545   9.816  1.6444  0.2088  0.7643
   52CHL1   C20 6304   5.649   0.712   8.855  0.4476 -0.4031 -0.5931
   52CHL1   H20 6305   5.627   0.606   8.829  0.4148  0.0506 -2.5054
   52CHL1   C21 6306   5.797   0.727   8.880  0.0664 -0.4225 -0.5713
   52CHL1  H21A 6307   5.854   0.712   8.786  1.7597  1.1724  0.1406
   52CHL1  H21B 6308   5.835   0.658   8.958 -1.1006  0.1962  0.5936
   52CHL1  H21C 6309   5.812   0.832   8.913 -1.4637 -0.7667  1.4002
   52CHL1   C22 6310   5.609   0.795   8.732  0.4616 -0.5565  0.0503
   52CHL1  H22A 6311   5.668   0.767   8.642  1.8076 -2.4232  1.4434
   52CHL1  H22B 6312   5.509   0.756   8.700 -0.6874  0.1746  2.5293
   52CHL1   C23 6313   5.617   0.951   8.735  0.0760 -0.0102  0.4023
   52CHL1  H23A 6314   5.571   1.000   8.823  0.3666  1.2416 -0.1134
   52CHL1  H23B 6315   5.723   0.986   8.735 -1.0245  4.1238 -1.7374
   52CHL1   C24 6316   5.530   1.004   8.620  1.1256  0.0513  0.0175
   52CHL1  H24A 6317   5.582   0.968   8.528  1.5049 -0.2947  0.3655
   52CHL1  H24B 6318   5.435   0.946   8.624  2.4495 -2.3823 -1.4433
   52CHL1   C25 6319   5.485   1.155   8.617  0.3082  0.4449 -0.9270
   52CHL1   H25 6320   5.415   1.161   8.702 -0.0817 -1.0268 -1.1291
   52CHL1   C26 6321   5.611   1.252   8.625  0.0786  0.2656 -0.2739
   52CHL1  H26A 6322   5.676   1.243   8.536  1.3142 -0.7453  0.6980
   52CHL1  H26B 6323   5.595   1.359   8.650  0.2711 -0.6380  4.8442
   52CHL1  H26C 6324   5.671   1.214   8.711  1.2426  0.2404 -1.0850
   52CHL1   C27 6325   5.412   1.185   8.488  0.0631 -0.7785  0.3869
   52CHL1  H27A 6326   5.476   1.158   8.401 -0.1974 -0.0946 -0.0240
   52CHL1  H27B 6327   5.319   1.125   8.478  1.0053 -1.9319 -2.2331
   52CHL1  H27C 6328   5.391   1.293   8.477  0.8628 -0.4171  1.9626
   53CHL1    C3 6329   6.597   5.756  10.113 -0.0779 -0.3699 -0.1679
   53CHL1    H3 6330   6.687   5.692  10.105  0.1837 -0.3270  2.0012
   53CHL1    O3 6331   6.551   5.738  10.249 -0.3972  0.4213 -0.2981
   53CHL1   H3' 6332   6.464   5.697  10.247  0.4747 -1.5782 -0.5420
   53CHL1    C4 6333   6.661   5.892  10.097 -0.7703  0.2658 -0.2154
   53CHL1   H4A 6334   6.582   5.963  10.127  0.2505  1.4102 -0.1348
   53CHL1   H4B 6335   6.741   5.907  10.172  1.4866  1.3684 -2.6559
   53CHL1    C5 6336   6.723   5.917   9.962  0.0331  0.0791  0.0081
   53CHL1    C6 6337   6.847   5.959   9.943 -0.2469 -0.0521 -0.0441
   53CHL1    H6 6338   6.909   5.979  10.032  1.4079  0.4637 -1.2680
   53CHL1    C7 6339   6.898   5.997   9.812 -0.0467  0.1389  0.6034
   53CHL1   H7A 6340   6.942   6.098   9.822 -0.7585  0.6129 -0.8342
   53CHL1   H7B 6341   6.984   5.928   9.795  1.1347  1.5946  0.5060
   53CHL1    C8 6342   6.796   5.999   9.699  0.0974 -0.0104 -0.3568
   53CHL1    H8 6343   6.736   6.093   9.704 -1.3128 -0.9199  0.5142
   53CHL1   C14 6344   6.866   5.982   9.566 -0.6648 -0.5994  0.9399
   53CHL1   H14 6345   6.914   5.882   9.580  0.3739 -0.1812  0.4775
   53CHL1   C15 6346   6.983   6.073   9.528 -0.7808 -0.4010 -0.1121
   53CHL1  H15A 6347   6.961   6.179   9.555  0.0820  0.0554 -1.1208
   53CHL1  H15B 6348   7.076   6.045   9.581  0.1133  1.6897 -0.4812
   53CHL1   C16 6349   7.003   6.065   9.376 -0.2430 -0.3693  0.4574
   53CHL1  H16A 6350   7.005   6.167   9.333 -0.8677  0.0208  1.3199
   53CHL1  H16B 6351   7.101   6.014   9.359  0.3098 -0.0426  2.4176
   53CHL1   C17 6352   6.894   5.965   9.326  0.1897 -0.1872 -0.2613
   53CHL1   H17 6353   6.935   5.862   9.331 -1.0339 -0.6588  0.4127
   53CHL1   C13 6354   6.787   5.981   9.435  0.0743 -0.1991  0.4519
   53CHL1   C18 6355   6.712   6.117   9.415 -0.5287  0.6915  0.1736
   53CHL1  H18A 6356   6.782   6.202   9.400 -1.6122  1.5343 -0.2201
   53CHL1  H18B 6357   6.648   6.110   9.325  0.2858 -1.9481 -0.2707
   53CHL1  H18C 6358   6.651   6.128   9.507  0.9955 -0.9024  1.4468
   53CHL1   C12 6359   6.680   5.865   9.453 -1.3129  0.2000  0.8888
   53CHL1  H12A 6360   6.602   5.878   9.374 -0.4464 -1.4579 -0.3115
   53CHL1  H12B 6361   6.729   5.766   9.448  0.7368  1.0122  3.2857
   53CHL1   C11 6362   6.607   5.870   9.585 -0.3676 -0.0451 -0.3027
   53CHL1  H11A 6363   6.537   5.955   9.583  0.7725  1.0602  2.2720
   53CHL1  H11B 6364   6.550   5.775   9.598  0.7106 -0.5616  0.9371
   53CHL1    C9 6365   6.703   5.879   9.710 -0.3470  0.2536  0.6539
   53CHL1    H9 6366   6.767   5.789   9.721 -2.5128 -1.0206  4.5061
   53CHL1   C10 6367   6.629   5.884   9.848 -0.0871  0.0151  0.4605
   53CHL1   C19 6368   6.520   5.989   9.849  0.2729 -0.6559 -0.6601
   53CHL1  H19A 6369   6.472   6.000   9.949 -1.0367  0.3879 -1.3628
   53CHL1  H19B 6370   6.544   6.089   9.808 -1.1154 -0.5942 -1.3637
   53CHL1  H19C 6371   6.431   5.968   9.786 -1.0859  2.2913  0.1109
   53CHL1    C1 6372   6.563   5.744   9.870  0.4091 -0.5277  0.0423
   53CHL1   H1A 6373   6.491   5.741   9.785  1.0420  2.1059 -0.6853
   53CHL1   H1B 6374   6.641   5.666   9.856  2.1772  0.8277  1.7853
   53CHL1    C2 6375   6.497   5.731  10.010  0.1580  0.5937  0.4261
   53CHL1   H2A 6376   6.450   5.630  10.008  0.2298  0.5529  0.7678
   53CHL1   H2B 6377   6.418   5.807  10.026 -0.5363 -0.2291  0.9835
   53CHL1   C20 6378   6.851   5.982   9.179 -0.0349 -0.2428 -0.2347
   53CHL1   H20 6379   6.786   6.071   9.164 -2.5493 -2.4861 -4.7065
   53CHL1   C21 6380   6.763   5.867   9.133  0.2650  0.0101 -0.3577
   53CHL1  H21A 6381   6.661   5.873   9.178 -0.2194 -0.0601 -1.4218
   53CHL1  H21B 6382   6.814   5.771   9.158  0.0293 -0.2959 -1.0301
   53CHL1  H21C 6383   6.748   5.857   9.023  0.2498 -0.6463 -0.3005
   53CHL1   C22 6384   6.971   6.007   9.083 -0.4069 -0.6493  0.2859
   53CHL1  H22A 6385   7.007   6.111   9.102  1.0222 -1.0836  0.0942
   53CHL1  H22B 6386   7.049   5.936   9.117  1.0204  0.8051  0.1444
   53CHL1   C23 6387   6.939   5.987   8.936 -0.6791 -0.4912  0.2713
   53CHL1  H23A 6388   6.934   5.882   8.902  0.8975  0.1964 -2.3881
   53CHL1  H23B 6389   6.855   6.048   8.897  0.5946 -0.1057 -2.0211
   53CHL1   C24 6390   7.060   6.042   8.844  0.4468  0.4022 -0.3861
   53CHL1  H24A 6391   7.057   6.153   8.851 -2.7406  0.3366  0.8676
   53CHL1  H24B 6392   7.155   6.001   8.884 -0.4163  0.4305  1.8427
   53CHL1   C25 6393   7.043   6.003   8.695  0.2541 -0.3360 -0.7973
   53CHL1   H25 6394   6.933   6.002   8.678  0.1011 -2.1668  0.0460
   53CHL1   C26 6395   7.113   6.101   8.604  0.1765 -0.5625  0.0110
   53CHL1  H26A 6396   7.222   6.104   8.625  1.2002  0.7108 -4.4177
   53CHL1  H26B 6397   7.098   6.077   8.496  0.2865 -1.3521  0.1684
   53CHL1  H26C 6398   7.074   6.204   8.617 -0.4359 -0.4048 -2.5309
   53CHL1   C27 6399   7.093   5.857   8.666  0.0707  0.8887 -0.3766
   53CHL1  H27A 6400   7.096   5.835   8.557  1.7579  0.0887 -0.2089
   53CHL1  H27B 6401   7.196   5.828   8.696  0.6164  1.5888 -1.5026
   53CHL1  H27C 6402   7.021   5.783   8.706  0.6635  1.5697  2.1088
   54CHL1    C3 6403   5.845   1.053   9.967 -0.5257  0.1210 -0.2247
   54CHL1    H3 6404   5.738   1.031   9.952 -0.8549  1.4479  0.0841
   54CHL1    O3 6405   5.891   1.012  10.093 -0.1604  0.2734  0.0525
   54CHL1   H3' 6406   5.933   1.090  10.129  1.0045  0.4671 -1.5812
   54CHL1    C4 6407   5.937   0.973   9.861  0.1421 -0.9722  0.0067
   54CHL1   H4A 6408   6.044   0.992   9.885  1.0097 -1.5872 -2.9757
   54CHL1   H4B 6409   5.915   0.865   9.870 -1.1038 -0.9220 -1.8473
   54CHL1    C5 6410   5.911   1.033   9.719 -0.6692  0.3016  0.1593
   54CHL1    C6 6411   5.867   0.953   9.623 -0.3943 -0.0998  0.8163
   54CHL1    H6 6412   5.831   0.853   9.651 -0.6093  0.0969  1.2565
   54CHL1    C7 6413   5.859   0.991   9.476 -0.0117  0.4846  0.0415
   54CHL1   H7A 6414   5.909   0.913   9.414  0.5028  0.4768  0.4518
   54CHL1   H7B 6415   5.755   0.998   9.439  0.3545 -0.8803 -1.3539
   54CHL1    C8 6416   5.933   1.130   9.445  0.6588  0.7232  0.3312
   54CHL1    H8 6417   6.042   1.108   9.452  0.2078 -2.0593 -0.5368
   54CHL1   C14 6418   5.896   1.178   9.310  0.1660 -0.3049 -0.0737
   54CHL1   H14 6419   5.786   1.197   9.319  0.6065  2.2792  0.7231
   54CHL1   C15 6420   5.905   1.082   9.196 -0.2136  0.1128 -0.7411
   54CHL1  H15A 6421   6.009   1.045   9.207  0.2031  1.9943  3.8571
   54CHL1  H15B 6422   5.834   0.997   9.203  1.8626 -1.5650  1.5777
   54CHL1   C16 6423   5.902   1.177   9.070 -0.4420  0.4793 -0.2370
   54CHL1  H16A 6424   6.000   1.168   9.018 -0.1536  0.6262  0.2755
   54CHL1  H16B 6425   5.820   1.168   8.995 -0.2060  3.3774 -0.9994
   54CHL1   C17 6426   5.898   1.329   9.123  0.6114  0.4497 -0.3520
   54CHL1   H17 6427   5.788   1.340   9.128  0.4246 -1.1954 -0.0880
   54CHL1   C13 6428   5.955   1.312   9.271 -0.8592  0.1183 -0.2853
   54CHL1   C18 6429   6.112   1.302   9.263  0.2851  0.1759  0.2918
   54CHL1  H18A 6430   6.150   1.217   9.202 -0.8089  0.1480 -0.3826
   54CHL1  H18B 6431   6.158   1.399   9.235 -0.7845  0.3989 -0.7761
   54CHL1  H18C 6432   6.148   1.276   9.365 -4.0278  1.5213  2.3778
   54CHL1   C12 6433   5.914   1.419   9.379  0.0854  1.0030 -0.4300
   54CHL1  H12A 6434   5.986   1.501   9.358 -0.0768  1.1345 -0.4793
   54CHL1  H12B 6435   5.805   1.441   9.376 -0.0851  0.2089 -0.2579
   54CHL1   C11 6436   5.952   1.377   9.528 -0.1150  0.0464  0.5052
   54CHL1  H11A 6437   6.063   1.375   9.533 -0.0910 -0.7529 -0.2802
   54CHL1  H11B 6438   5.903   1.448   9.599  0.2570 -0.1835  1.0025
   54CHL1    C9 6439   5.906   1.233   9.560 -0.5368 -0.4004 -0.0109
   54CHL1    H9 6440   5.795   1.237   9.564 -0.5962 -1.3229 -0.4543
   54CHL1   C10 6441   5.945   1.176   9.695  0.2994 -0.2832  0.6057
   54CHL1   C19 6442   6.094   1.199   9.720  0.1383 -0.0035 -0.0366
   54CHL1  H19A 6443   6.157   1.148   9.644 -1.7903 -2.5376 -0.0723
   54CHL1  H19B 6444   6.126   1.305   9.713  1.2054 -0.3360 -0.6405
   54CHL1  H19C 6445   6.128   1.161   9.819  1.1187 -2.7206 -1.3018
   54CHL1    C1 6446   5.854   1.251   9.802  0.4194  0.5747  0.4148
   54CHL1   H1A 6447   5.852   1.362   9.790 -1.6906  0.6243  0.7302
   54CHL1   H1B 6448   5.749   1.243   9.766  0.3202 -0.1048  0.8389
   54CHL1    C2 6449   5.866   1.210   9.951 -0.0175  0.0209  0.6517
   54CHL1   H2A 6450   5.791   1.269  10.008  0.4147  0.2235  1.0169
   54CHL1   H2B 6451   5.971   1.232   9.978  0.5633 -1.4537 -0.2872
   54CHL1   C20 6452   5.959   1.437   9.036  0.6266  0.0551 -0.3384
   54CHL1   H20 6453   6.070   1.439   9.033  0.6551  1.9090  0.5345
   54CHL1   C21 6454   5.921   1.574   9.097  0.0365 -0.5460 -0.6097
   54CHL1  H21A 6455   5.812   1.570   9.119 -0.0766  1.2086 -0.7255
   54CHL1  H21B 6456   5.933   1.657   9.024  1.9800  0.7414  1.0516
   54CHL1  H21C 6457   5.983   1.594   9.187  2.0542 -1.7295 -1.6652
   54CHL1   C22 6458   5.902   1.429   8.893 -0.0760  0.2411  0.3412
   54CHL1  H22A 6459   5.941   1.329   8.863 -1.8344 -0.0915 -1.0493
   54CHL1  H22B 6460   5.794   1.405   8.902 -0.1402 -0.0162 -0.8956
   54CHL1   C23 6461   5.956   1.522   8.784 -0.1386  0.4886 -0.2067
   54CHL1  H23A 6462   5.927   1.629   8.781  1.5052  0.9510 -1.3542
   54CHL1  H23B 6463   6.064   1.533   8.809 -0.9479  3.0707  2.8518
   54CHL1   C24 6464   5.919   1.463   8.643 -0.8881 -0.0319  0.1385
   54CHL1  H24A 6465   5.950   1.356   8.643  2.0514  0.7161 -1.2903
   54CHL1  H24B 6466   5.809   1.470   8.633 -0.8286  2.1672  0.5261
   54CHL1   C25 6467   5.992   1.538   8.530  0.3641  0.8976  0.1175
   54CHL1   H25 6468   5.960   1.487   8.436 -1.1934  3.5491 -0.8963
   54CHL1   C26 6469   5.926   1.674   8.507 -0.9134  0.5471  0.2180
   54CHL1  H26A 6470   5.817   1.677   8.482 -0.9016  0.5667  0.1696
   54CHL1  H26B 6471   5.929   1.735   8.600  0.7179  1.6658 -0.5300
   54CHL1  H26C 6472   5.987   1.733   8.435 -0.0751  1.0722  1.3311
   54CHL1   C27 6473   6.148   1.534   8.534 -0.1995  0.0632 -0.1919
   54CHL1  H27A 6474   6.189   1.603   8.611  1.3031 -0.8506 -0.1420
   54CHL1  H27B 6475   6.170   1.431   8.568 -1.0383  0.3396  1.2859
   54CHL1  H27C 6476   6.198   1.554   8.437  0.5222  1.7087  0.4803
   55CHL1    C3 6477   5.610   5.009  10.165 -0.4474  0.7851  0.8252
   55CHL1    H3 6478   5.508   5.048  10.143  0.8428  3.4383 -0.9816
   55CHL1    O3 6479   5.620   5.017  10.304  0.1106  0.3451 -0.2787
   55CHL1   H3' 6480   5.713   5.021  10.327  0.0348  0.0375  0.0903
   55CHL1    C4 6481   5.642   4.873  10.112 -0.3157  0.4082 -0.8812
   55CHL1   H4A 6482   5.743   4.846  10.150 -1.0547  0.4579  1.2427
   55CHL1   H4B 6483   5.563   4.800  10.141 -1.7898  1.9824 -0.7705
   55CHL1    C5 6484   5.649   4.864   9.957  0.8858  0.1429 -1.0101
   55CHL1    C6 6485   5.571   4.776   9.891 -0.2136 -0.3150 -0.7878
   55CHL1    H6 6486   5.508   4.704   9.946  1.7196 -0.2421  1.7038
   55CHL1    C7 6487   5.587   4.763   9.742  0.0553 -0.4247  0.6958
   55CHL1   H7A 6488   5.594   4.655   9.717  0.4021 -0.4111  0.7318
   55CHL1   H7B 6489   5.501   4.811   9.690  0.2824 -0.7926 -0.0393
   55CHL1    C8 6490   5.709   4.831   9.670  1.0207 -0.0425  0.3290
   55CHL1    H8 6491   5.796   4.770   9.703  1.2219  0.2899  0.4250
   55CHL1   C14 6492   5.690   4.849   9.526  0.3678  0.0645 -0.1384
   55CHL1   H14 6493   5.603   4.916   9.508  1.6189  1.9620  0.5733
   55CHL1   C15 6494   5.636   4.727   9.443 -0.6755 -0.1596 -0.5870
   55CHL1  H15A 6495   5.693   4.636   9.472 -0.9439 -0.3698 -0.7126
   55CHL1  H15B 6496   5.532   4.702   9.472 -0.0404  0.7104  2.8757
   55CHL1   C16 6497   5.667   4.765   9.296  0.3463  0.0916 -0.1006
   55CHL1  H16A 6498   5.738   4.687   9.263  1.8234  0.6336  1.5611
   55CHL1  H16B 6499   5.574   4.760   9.237 -0.4713 -1.0826  1.2201
   55CHL1   C17 6500   5.739   4.900   9.302  0.3658  0.5512  1.1589
   55CHL1   H17 6501   5.655   4.972   9.295 -0.3280 -0.2014  1.5124
   55CHL1   C13 6502   5.792   4.911   9.443 -0.1900  0.1704  0.1771
   55CHL1   C18 6503   5.921   4.831   9.462 -0.1746  0.3769  0.4000
   55CHL1  H18A 6504   6.002   4.892   9.417 -0.8016  1.8363  1.1782
   55CHL1  H18B 6505   5.957   4.805   9.563 -1.3524  0.8414  0.9566
   55CHL1  H18C 6506   5.913   4.731   9.414  1.4444 -0.1274  1.1502
   55CHL1   C12 6507   5.822   5.052   9.504  0.1405 -0.0987 -1.1189
   55CHL1  H12A 6508   5.912   5.098   9.458 -0.7831  1.4040 -1.5137
   55CHL1  H12B 6509   5.730   5.109   9.478  0.1316 -0.1986 -1.3047
   55CHL1   C11 6510   5.838   5.045   9.661 -0.3305 -0.0125 -0.0276
   55CHL1  H11A 6511   5.935   4.994   9.679 -0.9502 -2.2309 -2.4290
   55CHL1  H11B 6512   5.856   5.147   9.700  0.8146  0.0469 -0.6585
   55CHL1    C9 6513   5.730   4.966   9.732  0.4164  0.0032  0.2024
   55CHL1    H9 6514   5.646   5.035   9.713  0.9593  1.0778  1.5749
   55CHL1   C10 6515   5.742   4.965   9.889 -0.0585  0.5020 -0.4871
   55CHL1   C19 6516   5.882   4.917   9.923  0.5566 -0.5117  0.2660
   55CHL1  H19A 6517   5.916   4.831   9.863 -0.3767  1.0554 -2.6819
   55CHL1  H19B 6518   5.949   4.996   9.881  0.8287 -1.6392 -1.5060
   55CHL1  H19C 6519   5.905   4.914  10.032  4.1909  0.3608 -0.3286
   55CHL1    C1 6520   5.715   5.105   9.950 -0.4560 -0.2651 -0.3768
   55CHL1   H1A 6521   5.782   5.185   9.912 -0.1174 -0.3236  0.0948
   55CHL1   H1B 6522   5.609   5.115   9.918 -1.3776 -4.8026  0.6434
   55CHL1    C2 6523   5.707   5.113  10.105  0.3137 -0.9869  0.4925
   55CHL1   H2A 6524   5.671   5.214  10.130 -0.0436 -0.1378 -2.9942
   55CHL1   H2B 6525   5.811   5.097  10.141 -0.3819 -0.8215  2.7036
   55CHL1   C20 6526   5.834   4.926   9.184  0.3081  0.0878 -0.4343
   55CHL1   H20 6527   5.937   4.886   9.199  0.0719 -0.1201  0.7406
   55CHL1   C21 6528   5.848   5.077   9.173  0.6695 -0.5153 -0.7514
   55CHL1  H21A 6529   5.888   5.106   9.073  0.0959 -0.2561 -0.9089
   55CHL1  H21B 6530   5.907   5.120   9.256 -2.4607  0.8559  0.9388
   55CHL1  H21C 6531   5.749   5.128   9.175  0.8633 -0.1514 -0.2689
   55CHL1   C22 6532   5.784   4.867   9.054 -0.0157  0.2313  0.2084
   55CHL1  H22A 6533   5.760   4.758   9.062 -0.9540  0.4465  0.3656
   55CHL1  H22B 6534   5.684   4.913   9.046  0.0396  0.5757  1.3802
   55CHL1   C23 6535   5.865   4.887   8.926 -1.0121 -0.0738  1.3679
   55CHL1  H23A 6536   5.868   4.995   8.900 -2.0396 -0.3689 -0.1304
   55CHL1  H23B 6537   5.961   4.836   8.948 -1.9836 -2.0353  1.2878
   55CHL1   C24 6538   5.817   4.821   8.798  0.2718 -0.8962  0.2839
   55CHL1  H24A 6539   5.708   4.824   8.819  0.4905 -0.3517  1.4040
   55CHL1  H24B 6540   5.838   4.894   8.717 -0.9312 -0.0219  0.7349
   55CHL1   C25 6541   5.871   4.684   8.752  0.0549 -0.1359  1.0640
   55CHL1   H25 6542   5.866   4.610   8.834  0.5097  0.8795  2.0271
   55CHL1   C26 6543   5.789   4.618   8.630  0.2471 -0.1899 -0.2591
   55CHL1  H26A 6544   5.825   4.679   8.544 -0.7829  0.3000 -0.3619
   55CHL1  H26B 6545   5.805   4.509   8.618 -1.1163 -0.3138 -1.2376
   55CHL1  H26C 6546   5.679   4.629   8.644  0.3251  0.5335 -0.1477
   55CHL1   C27 6547   6.014   4.701   8.704 -0.5988  0.6130 -0.5979
   55CHL1  H27A 6548   6.030   4.785   8.633  1.5911 -0.5864 -1.5949
   55CHL1  H27B 6549   6.083   4.723   8.789 -0.0840 -0.2502 -0.7880
   55CHL1  H27C 6550   6.043   4.608   8.652 -1.6516 -0.2613  0.3275
   56CHL1    C3 6551   6.269   4.683  10.203  0.4005 -0.3274 -0.1289
   56CHL1    H3 6552   6.241   4.588  10.153  1.8588 -1.3332  0.8971
   56CHL1    O3 6553   6.264   4.666  10.343  0.7323  0.0294  1.1138
   56CHL1   H3' 6554   6.270   4.755  10.379 -1.4048  0.6371  0.1208
   56CHL1    C4 6555   6.413   4.720  10.157 -0.2241  0.4078 -0.3754
   56CHL1   H4A 6556   6.444   4.810  10.214  0.0515  1.1405 -1.6420
   56CHL1   H4B 6557   6.479   4.639  10.193  1.1893  1.8024  0.2749
   56CHL1    C5 6558   6.427   4.752  10.007  1.0213  0.6136  0.0363
   56CHL1    C6 6559   6.498   4.670   9.931  0.4085 -0.2558  0.4850
   56CHL1    H6 6560   6.555   4.585   9.973  1.6002  2.0089  3.8809
   56CHL1    C7 6561   6.495   4.678   9.786 -0.0450 -0.0957  0.1418
   56CHL1   H7A 6562   6.589   4.648   9.736 -0.3265 -0.9178  0.0746
   56CHL1   H7B 6563   6.418   4.605   9.751 -0.5418  0.5117 -0.0377
   56CHL1    C8 6564   6.447   4.816   9.726 -0.1140  0.7677 -0.4623
   56CHL1    H8 6565   6.531   4.884   9.752  0.9134 -1.0076  1.0786
   56CHL1   C14 6566   6.408   4.805   9.581  1.3006 -0.2008 -0.4130
   56CHL1   H14 6567   6.320   4.737   9.575  0.8897 -0.0299  2.4695
   56CHL1   C15 6568   6.501   4.730   9.483 -0.0086 -0.6409  0.1833
   56CHL1  H15A 6569   6.607   4.742   9.514 -0.3220  1.3299  0.6565
   56CHL1  H15B 6570   6.481   4.621   9.493 -1.7044 -0.2209  2.0281
   56CHL1   C16 6571   6.470   4.788   9.343  0.0612  0.5222  0.4792
   56CHL1  H16A 6572   6.565   4.829   9.302  0.7951 -0.3773  1.2342
   56CHL1  H16B 6573   6.441   4.711   9.269  0.7375  0.4002  0.3388
   56CHL1   C17 6574   6.348   4.886   9.363  0.9101 -0.1858  0.6773
   56CHL1   H17 6575   6.263   4.815   9.372 -1.1876  1.9302 -1.0860
   56CHL1   C13 6576   6.357   4.933   9.510 -0.8388 -0.5716  0.5801
   56CHL1   C18 6577   6.476   5.034   9.505  0.3045 -0.1286  0.2310
   56CHL1  H18A 6578   6.431   5.130   9.471 -0.3663 -0.7749 -0.7858
   56CHL1  H18B 6579   6.524   5.046   9.604 -0.1563  0.5287  0.3830
   56CHL1  H18C 6580   6.554   5.010   9.429  0.8726  1.0666  0.4151
   56CHL1   C12 6581   6.235   4.979   9.583 -0.0795 -0.3525 -1.1345
   56CHL1  H12A 6582   6.199   5.079   9.550  0.3635  0.5856  1.0488
   56CHL1  H12B 6583   6.157   4.902   9.562 -0.8580  0.7500 -2.4559
   56CHL1   C11 6584   6.257   4.983   9.739  0.3054 -0.1523  0.7823
   56CHL1  H11A 6585   6.336   5.061   9.744  1.3610 -1.0392 -1.0540
   56CHL1  H11B 6586   6.164   5.013   9.791 -1.0040 -1.0673 -0.9565
   56CHL1    C9 6587   6.317   4.857   9.808  1.2910  0.0595 -0.2030
   56CHL1    H9 6588   6.246   4.772   9.792  0.4796  0.6957 -0.0533
   56CHL1   C10 6589   6.335   4.861   9.959 -0.3457 -0.1777 -0.0815
   56CHL1   C19 6590   6.414   4.992   9.994  0.2503  0.1167 -0.2058
   56CHL1  H19A 6591   6.518   4.996   9.956  0.2213  1.5261 -0.2195
   56CHL1  H19B 6592   6.357   5.083   9.964 -1.5992 -0.5165  1.2247
   56CHL1  H19C 6593   6.403   5.005  10.104 -3.7256  3.6559 -0.7534
   56CHL1    C1 6594   6.199   4.861  10.026  0.1984  0.3391  0.0853
   56CHL1   H1A 6595   6.158   4.964  10.015  0.3650  0.3182 -0.7990
   56CHL1   H1B 6596   6.124   4.804   9.967 -0.0379  1.5703 -0.8475
   56CHL1    C2 6597   6.186   4.813  10.173 -0.4624  0.5503 -0.1595
   56CHL1   H2A 6598   6.081   4.806  10.208 -0.3860  3.1407  0.7918
   56CHL1   H2B 6599   6.243   4.895  10.221  2.9091  0.2256 -3.1519
   56CHL1   C20 6600   6.314   4.989   9.252 -0.3537 -0.2000  0.8790
   56CHL1   H20 6601   6.402   5.056   9.257 -0.2351 -0.4178  1.8571
   56CHL1   C21 6602   6.187   5.072   9.282  0.4421 -0.1436 -0.2619
   56CHL1  H21A 6603   6.100   5.002   9.282  0.4549 -0.1987 -2.0069
   56CHL1  H21B 6604   6.169   5.154   9.210  0.4905 -1.0685 -1.3644
   56CHL1  H21C 6605   6.201   5.132   9.374  1.7209 -0.1095 -0.4736
   56CHL1   C22 6606   6.318   4.921   9.113  0.0643 -0.1251 -0.3695
   56CHL1  H22A 6607   6.423   4.893   9.091 -0.1151 -0.6169 -0.6119
   56CHL1  H22B 6608   6.257   4.829   9.115 -0.3886  0.1917  0.7398
   56CHL1   C23 6609   6.263   5.000   8.994  0.8506 -0.2830  0.3263
   56CHL1  H23A 6610   6.152   5.007   8.992  0.7593 -1.3298  0.9438
   56CHL1  H23B 6611   6.305   5.103   8.995  2.5709 -0.8742 -2.0668
   56CHL1   C24 6612   6.293   4.927   8.860  0.2055 -0.0510  0.3616
   56CHL1  H24A 6613   6.261   4.821   8.862  0.5701 -0.1994 -0.9122
   56CHL1  H24B 6614   6.229   4.965   8.778  0.0223 -1.9867 -0.4425
   56CHL1   C25 6615   6.450   4.927   8.807  0.3607 -0.3503  0.0375
   56CHL1   H25 6616   6.516   4.877   8.881 -0.5139 -0.6689  0.6113
   56CHL1   C26 6617   6.461   4.833   8.683 -0.0524  0.2078 -0.6556
   56CHL1  H26A 6618   6.562   4.786   8.684  0.4648  1.2462 -1.4637
   56CHL1  H26B 6619   6.383   4.755   8.676 -0.1941  0.3481 -0.6429
   56CHL1  H26C 6620   6.462   4.887   8.586  3.0098  1.0422 -0.2799
   56CHL1   C27 6621   6.502   5.067   8.776  0.1269 -0.2045 -0.0347
   56CHL1  H27A 6622   6.424   5.120   8.717 -0.7315 -1.7520 -0.3544
   56CHL1  H27B 6623   6.517   5.129   8.867  1.5659  1.0787 -1.0824
   56CHL1  H27C 6624   6.600   5.073   8.724 -0.3893  0.6929 -0.9375
   57CHL1    C3 6625   1.450   5.340  10.265 -0.5077 -0.1349 -0.2507
   57CHL1    H3 6626   1.346   5.317  10.235  0.9140 -2.3516 -4.3406
   57CHL1    O3 6627   1.457   5.367  10.409 -0.1621 -0.1946  0.6831
   57CHL1   H3' 6628   1.550   5.351  10.425  0.4170  0.7398 -1.3584
   57CHL1    C4 6629   1.526   5.200  10.253  0.1824 -0.7202 -0.1048
   57CHL1   H4A 6630   1.631   5.196  10.289  0.6538 -1.3468 -1.4613
   57CHL1   H4B 6631   1.471   5.134  10.323  0.8242 -0.4766  0.6374
   57CHL1    C5 6632   1.519   5.155  10.108 -0.3510  0.2863  0.2293
   57CHL1    C6 6633   1.457   5.037  10.081 -0.1424  0.5362  0.0631
   57CHL1    H6 6634   1.438   4.972  10.167  0.1922  1.0008  0.4950
   57CHL1    C7 6635   1.444   4.998   9.936  0.4461 -0.1410 -0.2011
   57CHL1   H7A 6636   1.469   4.891   9.923 -0.9206 -0.6024  0.7808
   57CHL1   H7B 6637   1.340   5.020   9.904  0.1970 -1.5278 -0.3735
   57CHL1    C8 6638   1.557   5.068   9.859  0.2714 -0.5436  0.6733
   57CHL1    H8 6639   1.649   5.016   9.895  1.6125 -0.3507 -2.1657
   57CHL1   C14 6640   1.547   5.032   9.709  0.0294 -0.0027  0.3628
   57CHL1   H14 6641   1.443   5.069   9.690  0.2284 -0.3801 -1.6656
   57CHL1   C15 6642   1.533   4.881   9.669  0.3923 -0.3917  0.2012
   57CHL1  H15A 6643   1.593   4.800   9.716  0.5671 -0.3871 -0.0125
   57CHL1  H15B 6644   1.425   4.858   9.680 -0.2244  0.4940 -3.0175
   57CHL1   C16 6645   1.567   4.887   9.516 -0.0604 -0.5335  0.0676
   57CHL1  H16A 6646   1.662   4.832   9.497  0.9380  1.1304  0.0647
   57CHL1  H16B 6647   1.481   4.844   9.460 -2.0156  1.6203  1.2376
   57CHL1   C17 6648   1.600   5.032   9.477 -0.3841 -0.2218 -0.2515
   57CHL1   H17 6649   1.502   5.079   9.453 -0.4684  0.5054  1.4195
   57CHL1   C13 6650   1.645   5.093   9.611  0.4155 -0.4971  0.4398
   57CHL1   C18 6651   1.789   5.038   9.649 -0.1501 -0.2047 -0.1731
   57CHL1  H18A 6652   1.789   4.927   9.646 -2.5771 -0.4390  3.1042
   57CHL1  H18B 6653   1.856   5.075   9.568 -0.1762 -1.4884 -0.8009
   57CHL1  H18C 6654   1.833   5.069   9.747 -0.7527 -1.9154  0.6672
   57CHL1   C12 6655   1.637   5.246   9.625 -0.1882 -0.2391 -0.1944
   57CHL1  H12A 6656   1.714   5.288   9.557 -0.9115  0.1846 -0.7677
   57CHL1  H12B 6657   1.542   5.283   9.582 -1.8047 -0.0141  3.2018
   57CHL1   C11 6658   1.658   5.285   9.770 -0.0178  0.0775 -0.6464
   57CHL1  H11A 6659   1.767   5.274   9.789 -0.0305  0.5301 -0.2831
   57CHL1  H11B 6660   1.647   5.395   9.766  2.5005  0.3695 -4.2262
   57CHL1    C9 6661   1.558   5.218   9.864  0.3018  0.3314 -0.2346
   57CHL1    H9 6662   1.460   5.252   9.823  0.9451 -0.8398 -2.9982
   57CHL1   C10 6663   1.572   5.262  10.008 -0.1919 -0.6701 -0.0215
   57CHL1   C19 6664   1.721   5.271  10.044  0.3020  0.0354  0.5333
   57CHL1  H19A 6665   1.759   5.364   9.998 -0.7096  0.8159  1.2367
   57CHL1  H19B 6666   1.751   5.287  10.150  0.3350  3.3012  0.1202
   57CHL1  H19C 6667   1.770   5.183   9.997 -1.5807 -2.6232  3.1723
   57CHL1    C1 6668   1.501   5.398  10.030  0.2108  0.7856 -0.8202
   57CHL1   H1A 6669   1.527   5.479   9.960 -0.1313  0.8298 -0.8962
   57CHL1   H1B 6670   1.392   5.389  10.008  0.1628  2.3717 -1.3326
   57CHL1    C2 6671   1.511   5.447  10.178  0.2105  0.1087 -0.9863
   57CHL1   H2A 6672   1.448   5.538  10.181 -0.3550 -0.2195  3.1979
   57CHL1   H2B 6673   1.615   5.478  10.203 -0.1348  1.5435 -1.2652
   57CHL1   C20 6674   1.690   5.038   9.347 -0.6966 -0.9173 -0.1316
   57CHL1   H20 6675   1.777   4.970   9.359 -0.8543 -1.0149  0.4720
   57CHL1   C21 6676   1.742   5.178   9.316 -0.0722 -0.4952 -0.7366
   57CHL1  H21A 6677   1.796   5.190   9.220  0.8961 -0.7459 -0.2412
   57CHL1  H21B 6678   1.815   5.215   9.390  0.0735 -0.4703 -0.8927
   57CHL1  H21C 6679   1.655   5.247   9.315  1.3615  1.4851  1.3414
   57CHL1   C22 6680   1.625   4.981   9.219  0.0239  0.2792 -0.0900
   57CHL1  H22A 6681   1.576   4.887   9.255 -0.6565  0.0363 -1.5781
   57CHL1  H22B 6682   1.533   5.037   9.193 -1.5266 -1.8742  0.4268
   57CHL1   C23 6683   1.726   4.953   9.112  0.1715  0.2310  0.4042
   57CHL1  H23A 6684   1.787   5.042   9.087  0.0276  0.4991  0.9915
   57CHL1  H23B 6685   1.798   4.872   9.133 -0.2414 -0.9487 -2.2531
   57CHL1   C24 6686   1.655   4.904   8.981  0.7784 -0.5389 -0.5295
   57CHL1  H24A 6687   1.554   4.871   9.012  0.3499  1.8275  0.8801
   57CHL1  H24B 6688   1.637   4.988   8.911  1.3760  0.2443  0.2332
   57CHL1   C25 6689   1.721   4.789   8.913 -0.2786 -0.4317  0.8415
   57CHL1   H25 6690   1.760   4.716   8.988  1.1576  0.6837  1.2310
   57CHL1   C26 6691   1.610   4.728   8.826 -0.1079 -0.4094 -0.1486
   57CHL1  H26A 6692   1.589   4.804   8.748 -0.7771  1.6775  1.9474
   57CHL1  H26B 6693   1.639   4.643   8.761  2.3839  1.1735 -1.2676
   57CHL1  H26C 6694   1.517   4.708   8.883 -0.6073  0.2398 -0.7226
   57CHL1   C27 6695   1.840   4.841   8.828 -0.0760 -0.4539  0.2296
   57CHL1  H27A 6696   1.889   4.759   8.770  2.0463 -0.0326  1.3100
   57CHL1  H27B 6697   1.804   4.915   8.754  1.7099  0.2459  0.0108
   57CHL1  H27C 6698   1.902   4.892   8.905 -1.1507 -0.1334  0.9091
   58CHL1    C3 6699   2.871   6.144  10.039 -0.1839  0.4483 -0.4699
   58CHL1    H3 6700   2.850   6.242   9.989 -2.2257  0.0636 -0.4432
   58CHL1    O3 6701   2.862   6.150  10.180 -0.2670 -0.3588 -0.8469
   58CHL1   H3' 6702   2.769   6.138  10.198 -0.0350 -1.2432 -0.1480
   58CHL1    C4 6703   2.778   6.033   9.992 -0.8964 -0.2402  0.6924
   58CHL1   H4A 6704   2.821   5.944  10.043  0.9446  0.1449 -0.0948
   58CHL1   H4B 6705   2.675   6.051  10.030 -0.4378  0.4826  1.6288
   58CHL1    C5 6706   2.788   6.011   9.836 -0.0477 -0.3435  0.8037
   58CHL1    C6 6707   2.675   6.034   9.767 -0.0140  0.0025  0.9926
   58CHL1    H6 6708   2.585   6.066   9.821 -0.6283 -0.5810  0.3170
   58CHL1    C7 6709   2.672   6.025   9.616  0.4759  0.1417  0.2371
   58CHL1   H7A 6710   2.586   5.971   9.572  2.2671 -2.2429 -0.6153
   58CHL1   H7B 6711   2.653   6.123   9.569 -1.9966 -0.7254 -0.7173
   58CHL1    C8 6712   2.804   5.964   9.553 -0.5543  0.4097  0.1910
   58CHL1    H8 6713   2.797   5.854   9.565  2.3363 -0.3704 -3.4496
   58CHL1   C14 6714   2.806   5.990   9.407 -0.3294 -0.8428  1.5874
   58CHL1   H14 6715   2.797   6.099   9.387  0.9905 -1.1516 -1.1353
   58CHL1   C15 6716   2.690   5.943   9.315  0.4748 -0.3936 -0.0361
   58CHL1  H15A 6717   2.665   5.836   9.334 -2.6554 -0.0256 -1.4474
   58CHL1  H15B 6718   2.599   6.005   9.326  2.0501  1.6708  2.7825
   58CHL1   C16 6719   2.737   5.960   9.173  0.6477 -0.6303  0.7053
   58CHL1  H16A 6720   2.703   5.869   9.120  0.2595 -0.5918  0.8844
   58CHL1  H16B 6721   2.693   6.054   9.132 -1.6788 -1.1808  1.7813
   58CHL1   C17 6722   2.893   5.975   9.186  0.0934 -0.0839  0.0454
   58CHL1   H17 6723   2.915   6.083   9.175  0.2941 -0.0203  0.9786
   58CHL1   C13 6724   2.925   5.937   9.329 -0.1152 -0.7551  0.1504
   58CHL1   C18 6725   2.937   5.782   9.335  0.4188  0.7564  0.3253
   58CHL1  H18A 6726   3.024   5.726   9.295  0.4609 -1.0452  2.6986
   58CHL1  H18B 6727   2.920   5.745   9.438 -0.7958 -0.5529 -0.3117
   58CHL1  H18C 6728   2.852   5.745   9.274 -0.9187  3.8480  0.1051
   58CHL1   C12 6729   3.046   6.012   9.396  0.9954 -0.0399 -0.1471
   58CHL1  H12A 6730   3.145   5.987   9.352  0.8155 -1.6273  0.2702
   58CHL1  H12B 6731   3.031   6.120   9.379  2.0718  0.1337 -0.0705
   58CHL1   C11 6732   3.054   5.981   9.549 -0.2143  0.4498 -0.2081
   58CHL1  H11A 6733   3.070   5.872   9.564 -0.2246  0.4993  0.1693
   58CHL1  H11B 6734   3.144   6.027   9.594 -0.4372  1.1962 -0.5124
   58CHL1    C9 6735   2.922   6.021   9.622  0.8290 -0.0014  0.1955
   58CHL1    H9 6736   2.908   6.131   9.611 -0.1419 -0.2004 -0.8849
   58CHL1   C10 6737   2.924   5.998   9.776  0.7032  0.1652  1.0947
   58CHL1   C19 6738   2.983   5.856   9.804 -0.4603 -0.5837  0.6594
   58CHL1  H19A 6739   2.924   5.776   9.755 -0.1179 -0.6213  0.3075
   58CHL1  H19B 6740   3.089   5.860   9.774 -0.3629  3.6988  0.9196
   58CHL1  H19C 6741   2.977   5.847   9.915 -2.8423  0.2236  0.6576
   58CHL1    C1 6742   3.020   6.096   9.839  0.2186  0.8326 -0.3956
   58CHL1   H1A 6743   3.126   6.090   9.806  0.2456  0.4570 -0.2452
   58CHL1   H1B 6744   2.974   6.188   9.798  0.7976  1.7326  0.9314
   58CHL1    C2 6745   3.014   6.110   9.991 -0.3470 -0.0675  0.3162
   58CHL1   H2A 6746   3.085   6.190  10.021  0.4097 -0.9394  0.9199
   58CHL1   H2B 6747   3.044   6.017  10.044  0.6376  0.6244  1.0136
   58CHL1   C20 6748   2.972   5.906   9.071 -0.7096 -0.0864 -0.3310
   58CHL1   H20 6749   2.943   5.798   9.071 -0.3521 -0.2480 -3.0565
   58CHL1   C21 6750   3.127   5.914   9.090  0.5177 -0.3421 -0.2003
   58CHL1  H21A 6751   3.168   6.017   9.100  3.2453 -1.3029 -0.6722
   58CHL1  H21B 6752   3.191   5.866   9.013 -0.9130 -1.2484 -0.8647
   58CHL1  H21C 6753   3.151   5.868   9.188 -1.5176 -0.3664  0.3461
   58CHL1   C22 6754   2.916   5.948   8.935 -0.5471  0.2436 -0.0347
   58CHL1  H22A 6755   2.805   5.950   8.932 -0.6204  0.4251  1.8884
   58CHL1  H22B 6756   2.932   6.057   8.919  0.2987 -0.1023 -1.8706
   58CHL1   C23 6757   2.964   5.864   8.812  0.6809 -0.1726 -0.9745
   58CHL1  H23A 6758   3.068   5.896   8.789 -0.2702  1.9402 -2.7334
   58CHL1  H23B 6759   2.976   5.758   8.841  0.3590 -0.2905 -1.2660
   58CHL1   C24 6760   2.885   5.887   8.687 -0.0086 -1.0871  0.3897
   58CHL1  H24A 6761   2.783   5.852   8.711 -0.4542  0.5029  0.9203
   58CHL1  H24B 6762   2.869   5.996   8.673 -2.0571 -1.5799 -1.6308
   58CHL1   C25 6763   2.932   5.806   8.558 -0.2648  0.3902  0.2809
   58CHL1   H25 6764   2.909   5.698   8.571 -3.6303  0.7768 -1.1395
   58CHL1   C26 6765   2.838   5.853   8.445  0.3715  0.5122 -0.4459
   58CHL1  H26A 6766   2.755   5.779   8.444 -0.1458  1.0921 -0.5491
   58CHL1  H26B 6767   2.805   5.958   8.438  1.2552  0.8586  0.3257
   58CHL1  H26C 6768   2.880   5.839   8.343 -2.9095  1.6456 -2.0798
   58CHL1   C27 6769   3.069   5.839   8.522  0.0313  0.4190 -0.0360
   58CHL1  H27A 6770   3.079   5.949   8.511  0.2092  0.8428  3.2212
   58CHL1  H27B 6771   3.145   5.805   8.597 -0.0299  0.7822  0.1903
   58CHL1  H27C 6772   3.084   5.795   8.421  0.9323  2.1906 -0.7100
   59CHL1    C3 6773   3.041   4.258  10.334  0.2637  0.3125  0.4209
   59CHL1    H3 6774   3.148   4.289  10.342  0.2416 -0.1848  4.4841
   59CHL1    O3 6775   3.007   4.265  10.471  0.4250  0.1453  0.9378
   59CHL1   H3' 6776   2.911   4.264  10.475  0.4475 -1.7028  2.4580
   59CHL1    C4 6777   2.961   4.366  10.260  0.0213 -0.0201  0.0162
   59CHL1   H4A 6778   2.854   4.340  10.268  0.2867 -2.5793 -2.8256
   59CHL1   H4B 6779   2.985   4.463  10.307 -1.6701  1.5346 -2.1390
   59CHL1    C5 6780   2.988   4.371  10.113 -0.2830 -0.3724  0.2901
   59CHL1    C6 6781   3.030   4.480  10.054 -0.0528  0.7483 -0.5722
   59CHL1    H6 6782   3.042   4.569  10.118 -0.7935  0.5096 -0.0852
   59CHL1    C7 6783   3.059   4.484   9.901 -0.0178 -0.4043 -0.6064
   59CHL1   H7A 6784   3.010   4.575   9.862 -0.6202 -0.7472 -0.6567
   59CHL1   H7B 6785   3.168   4.492   9.879  0.2141  1.0536  0.8723
   59CHL1    C8 6786   2.996   4.361   9.822 -0.2973  0.8742  0.0333
   59CHL1    H8 6787   2.885   4.362   9.828 -0.3634 -1.8663  0.2489
   59CHL1   C14 6788   3.048   4.360   9.688 -0.0814 -0.5710 -0.0342
   59CHL1   H14 6789   3.158   4.348   9.676 -0.2742 -0.1374 -2.7861
   59CHL1   C15 6790   3.005   4.485   9.603  0.4957 -0.2346  1.1316
   59CHL1  H15A 6791   2.900   4.512   9.625 -0.7881 -0.7110 -3.3737
   59CHL1  H15B 6792   3.084   4.561   9.621 -0.4845  1.3309 -0.7702
   59CHL1   C16 6793   3.038   4.443   9.459  0.0681  0.2172 -0.1640
   59CHL1  H16A 6794   2.951   4.468   9.395 -0.5276  1.7937  1.2081
   59CHL1  H16B 6795   3.130   4.495   9.423 -0.3175  1.0169 -0.0010
   59CHL1   C17 6796   3.056   4.287   9.468  0.4474  0.1015  0.0174
   59CHL1   H17 6797   3.166   4.270   9.470  0.4858  0.4016  0.4310
   59CHL1   C13 6798   3.000   4.244   9.608 -0.2470 -0.2439 -0.1279
   59CHL1   C18 6799   2.842   4.240   9.605  0.5026  0.0419 -0.5872
   59CHL1  H18A 6800   2.788   4.333   9.578 -1.6890 -1.0742 -0.2224
   59CHL1  H18B 6801   2.808   4.169   9.527 -2.4464  0.9237 -0.2114
   59CHL1  H18C 6802   2.805   4.213   9.706  0.1544  0.5620 -0.5757
   59CHL1   C12 6803   3.058   4.114   9.668  0.3002  0.7302 -0.3602
   59CHL1  H12A 6804   3.023   4.022   9.618  1.5197 -1.6423  2.7973
   59CHL1  H12B 6805   3.169   4.121   9.669  0.4993 -1.7176 -0.4425
   59CHL1   C11 6806   3.015   4.105   9.818  0.8834 -0.3139  0.7043
   59CHL1  H11A 6807   2.916   4.057   9.833  0.2005 -0.1893 -2.5775
   59CHL1  H11B 6808   3.084   4.029   9.859  1.3832  0.1851  0.8002
   59CHL1    C9 6809   3.036   4.233   9.895 -0.1711  0.2419 -0.4109
   59CHL1    H9 6810   3.146   4.236   9.909 -0.2540 -1.3651  0.9942
   59CHL1   C10 6811   2.974   4.234  10.039 -0.1425  1.0826 -0.4484
   59CHL1   C19 6812   2.826   4.195  10.042  1.0785  0.7807 -0.3799
   59CHL1  H19A 6813   2.785   4.174  10.143  1.5462 -2.8488 -0.8131
   59CHL1  H19B 6814   2.777   4.279   9.988  0.2337  0.6490  0.1691
   59CHL1  H19C 6815   2.816   4.099   9.989 -0.7374  0.7406 -0.0201
   59CHL1    C1 6816   3.066   4.134  10.123 -0.1441 -0.3489  0.0667
   59CHL1   H1A 6817   3.059   4.035  10.073  0.5985 -0.5400  0.3202
   59CHL1   H1B 6818   3.171   4.171  10.118  0.2292 -1.0027  2.2005
   59CHL1    C2 6819   3.032   4.115  10.274 -1.0099 -0.0227  0.3325
   59CHL1   H2A 6820   3.104   4.050  10.327 -1.3094 -0.3888  0.2989
   59CHL1   H2B 6821   2.935   4.061  10.279  0.2654 -2.3100  3.1784
   59CHL1   C20 6822   3.006   4.206   9.350 -0.1152  0.3817  0.3272
   59CHL1   H20 6823   2.896   4.196   9.348  0.0017 -1.7884  1.5558
   59CHL1   C21 6824   3.059   4.065   9.360  0.2079 -0.1380 -0.1814
   59CHL1  H21A 6825   3.021   4.014   9.269 -2.0893 -2.1889  1.7886
   59CHL1  H21B 6826   2.998   4.013   9.437  1.0166  0.4870  0.9011
   59CHL1  H21C 6827   3.169   4.057   9.366  0.1191 -0.6856  0.9234
   59CHL1   C22 6828   3.036   4.258   9.206 -0.3184 -0.6905  0.3032
   59CHL1  H22A 6829   3.007   4.169   9.145  0.1392 -0.3899 -0.3680
   59CHL1  H22B 6830   2.966   4.344   9.195  0.5609  0.5609  3.3758
   59CHL1   C23 6831   3.173   4.298   9.154  0.0597 -0.4765  0.7093
   59CHL1  H23A 6832   3.222   4.365   9.229  1.9162  0.9725 -1.6325
   59CHL1  H23B 6833   3.234   4.206   9.144  0.0776 -0.3735 -0.2649
   59CHL1   C24 6834   3.155   4.383   9.025 -0.5973  0.2976 -0.4004
   59CHL1  H24A 6835   3.084   4.328   8.960 -5.1617  1.3145  3.1920
   59CHL1  H24B 6836   3.098   4.473   9.055 -1.0995 -0.6684  1.7789
   59CHL1   C25 6837   3.288   4.413   8.949  0.0003  0.3170 -0.5082
   59CHL1   H25 6838   3.362   4.450   9.023 -2.3097 -3.0628  3.9751
   59CHL1   C26 6839   3.340   4.290   8.868  0.0300  0.0033  0.1934
   59CHL1  H26A 6840   3.273   4.257   8.786 -1.8161  2.3786  0.6069
   59CHL1  H26B 6841   3.433   4.320   8.816 -0.2778  0.4010 -0.1396
   59CHL1  H26C 6842   3.354   4.203   8.935  2.8515  0.4051  0.2636
   59CHL1   C27 6843   3.268   4.532   8.847  0.1561  0.4171 -0.2628
   59CHL1  H27A 6844   3.201   4.484   8.773 -0.6548 -0.4272  0.9886
   59CHL1  H27B 6845   3.210   4.615   8.893 -1.4535 -1.5102  1.3900
   59CHL1  H27C 6846   3.372   4.560   8.819  0.4896 -0.3880  0.1411
   60CHL1    C3 6847   3.780   3.897  10.434 -0.3369 -0.3969 -0.4112
   60CHL1    H3 6848   3.677   3.940  10.433 -0.0658  0.3740 -3.0994
   60CHL1    O3 6849   3.788   3.804  10.544 -0.0483 -0.4157 -0.1905
   60CHL1   H3' 6850   3.882   3.781  10.543 -0.0687 -0.6553  1.4853
   60CHL1    C4 6851   3.803   3.819  10.303  0.2603  0.8877 -0.1319
   60CHL1   H4A 6852   3.901   3.766  10.313  1.4767  2.4791 -2.6304
   60CHL1   H4B 6853   3.720   3.745  10.300  1.9121 -1.4329  3.4026
   60CHL1    C5 6854   3.812   3.904  10.186 -0.6238 -0.0112 -0.2420
   60CHL1    C6 6855   3.734   3.888  10.084  0.3787  0.3707 -0.4485
   60CHL1    H6 6856   3.662   3.805  10.089 -2.0615  2.3477 -0.6567
   60CHL1    C7 6857   3.760   3.950   9.948 -0.2393 -0.4590 -0.1049
   60CHL1   H7A 6858   3.771   3.877   9.865  0.9161  0.2336 -0.5947
   60CHL1   H7B 6859   3.671   4.012   9.925 -0.9124 -1.1758  0.5271
   60CHL1    C8 6860   3.894   4.028   9.949 -0.9533 -0.0987 -0.1893
   60CHL1    H8 6861   3.979   3.956   9.944 -0.4101  0.6085 -1.4450
   60CHL1   C14 6862   3.894   4.123   9.832 -0.6520  0.7557 -0.0725
   60CHL1   H14 6863   3.800   4.180   9.846 -0.9557 -0.0603  1.3538
   60CHL1   C15 6864   3.869   4.064   9.698  0.8333  0.5340  0.1041
   60CHL1  H15A 6865   3.955   3.997   9.676  0.5606 -0.1448  1.0604
   60CHL1  H15B 6866   3.771   4.013   9.690  0.1586  1.4862  1.7967
   60CHL1   C16 6867   3.891   4.182   9.602  0.4380 -0.5469 -0.0355
   60CHL1  H16A 6868   3.935   4.143   9.507 -0.6672  1.4597 -1.4482
   60CHL1  H16B 6869   3.786   4.216   9.587  0.1936 -1.0889  0.4238
   60CHL1   C17 6870   3.963   4.290   9.687 -0.1300  0.3193  0.1518
   60CHL1   H17 6871   3.886   4.364   9.717  0.6758  0.8191  1.0395
   60CHL1   C13 6872   4.008   4.221   9.819 -0.8058 -0.4449  0.1860
   60CHL1   C18 6873   4.141   4.148   9.793 -0.2109  1.0631 -0.6765
   60CHL1  H18A 6874   4.157   4.097   9.891 -0.4724  0.3232 -1.0112
   60CHL1  H18B 6875   4.142   4.075   9.709 -2.1192  0.0765  0.0711
   60CHL1  H18C 6876   4.225   4.219   9.781  1.5061 -1.0804 -2.2595
   60CHL1   C12 6877   4.006   4.302   9.948 -0.5204 -0.6690  0.3191
   60CHL1  H12A 6878   4.091   4.371   9.936 -2.6991  2.2747  0.7856
   60CHL1  H12B 6879   3.917   4.368   9.957  0.4661  0.6263  0.9010
   60CHL1   C11 6880   4.025   4.213  10.076  0.0300 -0.0122  0.1154
   60CHL1  H11A 6881   4.130   4.178  10.074  0.3667  0.9926 -0.2087
   60CHL1  H11B 6882   4.025   4.285  10.161  0.9470 -0.6307  0.6606
   60CHL1    C9 6883   3.914   4.104  10.077 -0.1920 -0.0147  0.4304
   60CHL1    H9 6884   3.825   4.170  10.091 -0.3626 -0.3979  1.1758
   60CHL1   C10 6885   3.928   4.017  10.202  0.1637 -0.4702 -0.1499
   60CHL1   C19 6886   4.060   3.947  10.194  0.2897  0.0477  0.2157
   60CHL1  H19A 6887   4.065   3.873  10.277 -0.7848 -2.4874 -1.8473
   60CHL1  H19B 6888   4.064   3.885  10.103 -2.3569  1.5434 -1.0380
   60CHL1  H19C 6889   4.143   4.021  10.185 -0.7265  1.1655 -0.2723
   60CHL1    C1 6890   3.905   4.092  10.332  0.2702 -0.1472 -0.1491
   60CHL1   H1A 6891   3.995   4.155  10.345 -0.1105  0.5702 -0.9247
   60CHL1   H1B 6892   3.820   4.163  10.323  0.0575 -0.0966  1.8436
   60CHL1    C2 6893   3.880   4.006  10.457 -0.4043  0.3768 -0.0643
   60CHL1   H2A 6894   3.851   4.077  10.537  0.1828  0.4617  0.0754
   60CHL1   H2B 6895   3.977   3.963  10.487 -1.0551  0.9375  3.1885
   60CHL1   C20 6896   4.063   4.356   9.597  0.2235  0.2410  1.2930
   60CHL1   H20 6897   4.139   4.277   9.581 -1.3215 -0.9914 -0.3983
   60CHL1   C21 6898   4.142   4.470   9.661 -0.0380  0.2737  0.2474
   60CHL1  H21A 6899   4.077   4.552   9.699 -2.4608 -1.8842  1.0187
   60CHL1  H21B 6900   4.222   4.511   9.595 -1.4016 -0.1214 -1.7306
   60CHL1  H21C 6901   4.203   4.431   9.745  1.0742 -1.0779 -1.1257
   60CHL1   C22 6902   4.010   4.414   9.459 -0.5287 -0.4189 -0.2515
   60CHL1  H22A 6903   3.916   4.363   9.429 -0.9247  1.6362 -2.9021
   60CHL1  H22B 6904   3.966   4.515   9.476 -0.1470 -0.3974  0.6738
   60CHL1   C23 6905   4.113   4.414   9.342 -0.1455 -0.5133 -0.4155
   60CHL1  H23A 6906   4.182   4.493   9.378  0.2708 -1.5201  1.1092
   60CHL1  H23B 6907   4.174   4.321   9.347 -1.3407 -1.4488 -2.1459
   60CHL1   C24 6908   4.053   4.433   9.205 -0.1668  0.3492  0.3893
   60CHL1  H24A 6909   3.968   4.362   9.213 -1.4445  1.9175  1.5205
   60CHL1  H24B 6910   4.009   4.535   9.213 -0.3899  0.1277  3.2225
   60CHL1   C25 6911   4.141   4.419   9.085  0.2727  0.0106 -0.2142
   60CHL1   H25 6912   4.197   4.323   9.085  0.3546  0.0568 -0.3700
   60CHL1   C26 6913   4.069   4.404   8.956  0.0187 -0.1260  0.0258
   60CHL1  H26A 6914   4.138   4.383   8.871  0.5842  3.4623 -0.5379
   60CHL1  H26B 6915   4.000   4.318   8.971 -1.7552  1.6310  2.9094
   60CHL1  H26C 6916   4.015   4.500   8.938 -1.2248 -0.6946  0.5940
   60CHL1   C27 6917   4.244   4.533   9.080  0.1669 -0.4462 -0.1411
   60CHL1  H27A 6918   4.301   4.511   8.987 -0.7678  0.2224 -0.9059
   60CHL1  H27B 6919   4.187   4.628   9.078  0.0140 -0.5445 -1.2677
   60CHL1  H27C 6920   4.311   4.534   9.168  0.0092  2.6790  0.0602
   61CHL1    C3 6921   0.826   1.451  10.322  0.1622 -0.2302  0.1088
   61CHL1    H3 6922   0.720   1.466  10.290  0.2420  1.8467  0.7136
   61CHL1    O3 6923   0.821   1.424  10.461 -0.1817  0.1519  0.4301
   61CHL1   H3' 6924   0.870   1.501  10.490 -0.3856  1.0251 -1.4190
   61CHL1    C4 6925   0.876   1.333  10.243 -0.0381 -0.3696  0.1438
   61CHL1   H4A 6926   0.973   1.293  10.281 -0.0623 -2.3330 -1.6438
   61CHL1   H4B 6927   0.808   1.249  10.266 -1.3949  0.9947  1.3188
   61CHL1    C5 6928   0.877   1.360  10.092 -1.0000 -0.5001 -0.4198
   61CHL1    C6 6929   0.826   1.280  10.001 -0.0686 -0.2742 -0.6880
   61CHL1    H6 6930   0.779   1.191  10.046  0.7683 -0.3021  0.1608
   61CHL1    C7 6931   0.840   1.293   9.851 -0.0544  0.1539  1.0249
   61CHL1   H7A 6932   0.868   1.193   9.812  1.5696  0.9143  0.1592
   61CHL1   H7B 6933   0.743   1.329   9.811  0.3205 -0.1474 -0.1945
   61CHL1    C8 6934   0.946   1.397   9.817  0.0924  0.7836 -0.3583
   61CHL1    H8 6935   1.041   1.338   9.819 -0.5091 -0.2006  0.3191
   61CHL1   C14 6936   0.920   1.446   9.677 -0.0152 -0.2417  0.1704
   61CHL1   H14 6937   0.830   1.511   9.690  1.1370  1.6442 -0.8084
   61CHL1   C15 6938   0.878   1.349   9.566  0.9365  0.9712 -0.1421
   61CHL1  H15A 6939   0.938   1.255   9.563 -0.8825 -0.3559  2.0560
   61CHL1  H15B 6940   0.769   1.329   9.575  0.8412 -0.5995 -3.2996
   61CHL1   C16 6941   0.901   1.427   9.440 -0.2340 -0.2009  0.6887
   61CHL1  H16A 6942   0.975   1.373   9.376  2.2543  1.0719  2.3167
   61CHL1  H16B 6943   0.811   1.450   9.378  1.8234  0.8211 -2.1756
   61CHL1   C17 6944   0.963   1.565   9.481 -0.1362 -0.0525 -0.0243
   61CHL1   H17 6945   0.867   1.618   9.502 -1.0737 -1.6354 -0.1574
   61CHL1   C13 6946   1.027   1.534   9.619  0.6799 -0.7785 -0.1208
   61CHL1   C18 6947   1.156   1.453   9.590 -0.0521  0.2585  0.3366
   61CHL1  H18A 6948   1.240   1.519   9.563  3.0676 -2.6219  2.2581
   61CHL1  H18B 6949   1.201   1.405   9.679  1.9783  0.4566 -0.5414
   61CHL1  H18C 6950   1.143   1.374   9.512  1.9305  0.2139  0.0176
   61CHL1   C12 6951   1.051   1.660   9.705  0.0330  0.1865 -0.0739
   61CHL1  H12A 6952   1.145   1.714   9.680  0.9828 -1.7990 -1.0291
   61CHL1  H12B 6953   0.963   1.726   9.689 -0.1192 -0.0326 -0.1424
   61CHL1   C11 6954   1.054   1.625   9.857 -0.4212  0.2913 -0.6983
   61CHL1  H11A 6955   1.151   1.571   9.857 -1.3781 -1.5367 -2.7699
   61CHL1  H11B 6956   1.050   1.716   9.922 -0.9316  2.0966 -3.1119
   61CHL1    C9 6957   0.952   1.520   9.909 -0.0063  0.4530  0.0064
   61CHL1    H9 6958   0.852   1.565   9.891 -0.0593  0.0366 -0.8305
   61CHL1   C10 6959   0.959   1.479  10.057  0.1393 -0.2679 -0.1564
   61CHL1   C19 6960   1.108   1.449  10.087  0.6121  0.9179 -0.6248
   61CHL1  H19A 6961   1.112   1.439  10.198  1.5865 -2.5840 -0.8896
   61CHL1  H19B 6962   1.146   1.360  10.034  1.3452  0.8670 -0.0355
   61CHL1  H19C 6963   1.176   1.535  10.069  1.4482  0.6045  0.8717
   61CHL1    C1 6964   0.921   1.607  10.144  0.7028  0.3884 -0.1148
   61CHL1   H1A 6965   0.999   1.685  10.133  1.4021 -0.4797 -1.7124
   61CHL1   H1B 6966   0.826   1.649  10.104 -0.1328 -1.6433 -0.3922
   61CHL1    C2 6967   0.910   1.569  10.297  0.2449  0.4995 -0.8096
   61CHL1   H2A 6968   0.862   1.661  10.338 -2.5131 -1.2351  0.0790
   61CHL1   H2B 6969   1.011   1.554  10.341  0.1544 -0.5303 -0.9384
   61CHL1   C20 6970   1.047   1.623   9.368 -0.5042  0.1104  0.2253
   61CHL1   H20 6971   1.137   1.559   9.355 -0.8991 -0.2410 -0.8509
   61CHL1   C21 6972   1.097   1.763   9.397 -0.1611  0.3680  0.2461
   61CHL1  H21A 6973   1.136   1.804   9.302  0.2178  1.2234  0.7577
   61CHL1  H21B 6974   1.173   1.778   9.478 -0.0228 -0.1707  0.2186
   61CHL1  H21C 6975   1.011   1.824   9.432  0.1904  1.0780 -0.1023
   61CHL1   C22 6976   0.990   1.622   9.221  0.1213  0.3282 -0.7431
   61CHL1  H22A 6977   0.890   1.572   9.226 -0.1967  1.0713  1.2387
   61CHL1  H22B 6978   0.976   1.727   9.188 -1.9462  1.0626  2.0586
   61CHL1   C23 6979   1.077   1.546   9.119  0.1568  0.3909  0.0423
   61CHL1  H23A 6980   1.164   1.614   9.104  0.3303  0.6857  2.0870
   61CHL1  H23B 6981   1.117   1.447   9.149 -1.8022 -0.7661 -0.9270
   61CHL1   C24 6982   1.000   1.531   8.984  0.5157 -0.4773 -0.0905
   61CHL1  H24A 6983   0.909   1.468   8.995 -0.4926  0.7315 -1.0351
   61CHL1  H24B 6984   0.966   1.625   8.933 -0.7381  0.4594  2.3253
   61CHL1   C25 6985   1.078   1.446   8.883 -1.1387 -0.3411  0.2833
   61CHL1   H25 6986   1.165   1.512   8.864  0.5264 -0.9845  4.6534
   61CHL1   C26 6987   1.130   1.312   8.929  1.0086  0.2705 -0.8162
   61CHL1  H26A 6988   1.167   1.259   8.838  2.5875  0.0868 -0.1012
   61CHL1  H26B 6989   1.214   1.312   9.001 -0.7158 -0.7598  1.3162
   61CHL1  H26C 6990   1.050   1.258   8.983  0.4476  2.7160  0.9494
   61CHL1   C27 6991   0.974   1.422   8.771 -0.3973 -0.3153 -0.0172
   61CHL1  H27A 6992   1.023   1.370   8.685 -1.4233  1.0366 -1.4830
   61CHL1  H27B 6993   0.900   1.350   8.813  1.2839 -2.0042  0.1946
   61CHL1  H27C 6994   0.932   1.517   8.731  2.1416 -0.1570 -2.6864
   62CHL1    C3 6995   5.922   4.409  10.082 -0.1998 -0.0045  0.5533
   62CHL1    H3 6996   6.028   4.388  10.108 -0.1348  0.4009  0.6184
   62CHL1    O3 6997   5.868   4.441  10.206 -0.6916  0.8586 -0.4057
   62CHL1   H3' 6998   5.792   4.382  10.215 -0.0924  0.1991  0.5209
   62CHL1    C4 6999   5.923   4.531   9.988 -0.2611  0.5245  0.8938
   62CHL1   H4A 7000   5.821   4.574   9.986 -1.0062 -1.0678  2.0880
   62CHL1   H4B 7001   5.993   4.604  10.035  1.7512 -1.5446  1.3440
   62CHL1    C5 7002   5.972   4.480   9.851 -0.5395  0.2861 -0.2161
   62CHL1    C6 7003   6.084   4.530   9.793  0.0671  0.0471 -0.3211
   62CHL1    H6 7004   6.135   4.620   9.830 -1.4691  0.6094  0.5187
   62CHL1    C7 7005   6.134   4.495   9.657  0.2938  0.0600 -0.0467
   62CHL1   H7A 7006   6.155   4.584   9.593 -2.3140  0.3331 -0.6323
   62CHL1   H7B 7007   6.234   4.446   9.657 -0.8714 -2.4406  0.0629
   62CHL1    C8 7008   6.030   4.419   9.570 -0.5254 -0.0898  0.2667
   62CHL1    H8 7009   5.963   4.503   9.542  1.1005  1.0386 -0.3686
   62CHL1   C14 7010   6.089   4.366   9.438 -0.2762  0.0742 -0.2876
   62CHL1   H14 7011   6.173   4.299   9.467 -2.1175 -1.1632  2.5454
   62CHL1   C15 7012   6.146   4.472   9.338 -0.5430  0.3966 -0.3401
   62CHL1  H15A 7013   6.078   4.557   9.316  0.3887  2.1068  2.7112
   62CHL1  H15B 7014   6.239   4.521   9.374  0.1894 -0.5217 -0.9570
   62CHL1   C16 7015   6.179   4.388   9.219 -0.5154  0.1035  0.1019
   62CHL1  H16A 7016   6.152   4.454   9.134 -2.0552 -0.4629  0.1259
   62CHL1  H16B 7017   6.284   4.353   9.223 -0.1233  1.1325 -0.7407
   62CHL1   C17 7018   6.089   4.261   9.233  0.1206  0.3557  0.8540
   62CHL1   H17 7019   6.155   4.179   9.266 -0.4168 -0.9390 -1.0982
   62CHL1   C13 7020   5.991   4.284   9.350  0.6368 -0.0985 -0.1148
   62CHL1   C18 7021   5.869   4.373   9.305  0.8839  0.4207  0.0832
   62CHL1  H18A 7022   5.895   4.441   9.220 -1.0169 -0.6451 -1.4248
   62CHL1  H18B 7023   5.800   4.304   9.251  1.9464  1.6831 -3.1576
   62CHL1  H18C 7024   5.805   4.426   9.379 -1.5992 -2.1580 -0.0290
   62CHL1   C12 7025   5.938   4.167   9.443  0.1840 -0.5669  0.0927
   62CHL1  H12A 7026   5.857   4.116   9.386  0.8933 -2.1906  0.4988
   62CHL1  H12B 7027   6.013   4.091   9.473  0.6316 -0.7496 -1.3765
   62CHL1   C11 7028   5.865   4.228   9.564  0.0127  0.1199  0.4823
   62CHL1  H11A 7029   5.775   4.281   9.524 -1.3120 -1.9650  0.5154
   62CHL1  H11B 7030   5.825   4.137   9.614  3.7785 -1.4851  0.8718
   62CHL1    C9 7031   5.957   4.309   9.651  0.0569  0.2422  0.6198
   62CHL1    H9 7032   6.026   4.228   9.685  2.4027  1.8123 -0.1157
   62CHL1   C10 7033   5.892   4.362   9.783 -0.0544 -0.3045 -0.2095
   62CHL1   C19 7034   5.748   4.413   9.746 -1.1851  0.0294 -0.6414
   62CHL1  H19A 7035   5.689   4.444   9.835 -2.2744 -1.4741 -0.8101
   62CHL1  H19B 7036   5.749   4.497   9.674  1.8946 -0.4236 -1.2810
   62CHL1  H19C 7037   5.693   4.323   9.713 -2.0679 -0.6095  2.2727
   62CHL1    C1 7038   5.889   4.249   9.893  0.3455  0.3829 -1.2291
   62CHL1   H1A 7039   5.825   4.165   9.858 -1.2898  1.2011 -0.2930
   62CHL1   H1B 7040   5.990   4.207   9.914  0.5900  0.9486 -1.2654
   62CHL1    C2 7041   5.842   4.290  10.028  0.2879 -0.6057  0.2105
   62CHL1   H2A 7042   5.863   4.200  10.090 -0.5847 -0.2775  1.0047
   62CHL1   H2B 7043   5.738   4.322  10.007  0.0236 -1.2275  0.5575
   62CHL1   C20 7044   6.027   4.217   9.091 -0.0061  0.5403 -0.0454
   62CHL1   H20 7045   5.962   4.302   9.061 -0.9758 -0.1239  0.1606
   62CHL1   C21 7046   5.941   4.091   9.109  0.0854  0.7125  0.0564
   62CHL1  H21A 7047   6.002   4.008   9.150 -2.0449 -1.0723 -0.1650
   62CHL1  H21B 7048   5.901   4.054   9.012  0.6144 -0.3828  0.2449
   62CHL1  H21C 7049   5.864   4.122   9.183 -0.1839  0.9694 -0.3252
   62CHL1   C22 7050   6.138   4.211   8.970 -0.3616 -0.1302  0.3270
   62CHL1  H22A 7051   6.203   4.300   8.974  0.0192 -0.2491 -1.7889
   62CHL1  H22B 7052   6.207   4.127   8.993  0.0997  0.6376  1.8108
   62CHL1   C23 7053   6.071   4.203   8.830 -0.1648 -0.0008 -0.8520
   62CHL1  H23A 7054   6.042   4.099   8.808  0.7805 -0.2069 -1.1978
   62CHL1  H23B 7055   5.988   4.275   8.816 -1.5588 -1.4478 -0.2784
   62CHL1   C24 7056   6.180   4.251   8.727  0.3428  0.2125 -0.2507
   62CHL1  H24A 7057   6.195   4.360   8.740  0.3424  0.1725  0.0995
   62CHL1  H24B 7058   6.277   4.203   8.753  0.3155  0.2648 -0.0492
   62CHL1   C25 7059   6.144   4.217   8.579  0.1073 -0.5887 -0.3846
   62CHL1   H25 7060   6.221   4.276   8.525  0.3178  1.5202  2.0134
   62CHL1   C26 7061   6.148   4.063   8.557  0.0665  0.2478  0.0659
   62CHL1  H26A 7062   6.074   4.009   8.621  0.9025 -0.1183  0.7415
   62CHL1  H26B 7063   6.130   4.050   8.448 -1.1415 -0.0923  0.2833
   62CHL1  H26C 7064   6.251   4.031   8.582  0.8914  3.4066  1.1401
   62CHL1   C27 7065   6.010   4.273   8.529 -0.1996 -0.4767 -0.9992
   62CHL1  H27A 7066   5.999   4.248   8.422 -4.6466 -0.6226 -0.7052
   62CHL1  H27B 7067   5.930   4.222   8.587  0.0427  0.0217 -0.1955
   62CHL1  H27C 7068   6.014   4.383   8.545  0.8852 -0.8957  2.5081
   63CHL1    C3 7069   2.302   4.439  10.311 -0.1009 -0.1763  0.1286
   63CHL1    H3 7070   2.305   4.342  10.257  2.5979 -0.1425  0.0507
   63CHL1    O3 7071   2.281   4.419  10.446 -0.5185  0.6842  0.0663
   63CHL1   H3' 7072   2.293   4.502  10.493 -0.0621  0.4277  0.4085
   63CHL1    C4 7073   2.448   4.490  10.302  0.4706  0.1951 -0.3226
   63CHL1   H4A 7074   2.447   4.578  10.369 -1.8602  1.5843 -2.0304
   63CHL1   H4B 7075   2.516   4.417  10.351  0.8150  1.7782  1.6858
   63CHL1    C5 7076   2.490   4.546  10.169 -0.9218 -0.9398  1.1091
   63CHL1    C6 7077   2.612   4.520  10.117 -0.1554  0.1770  0.1861
   63CHL1    H6 7078   2.679   4.455  10.176  0.4506 -0.1780 -0.8669
   63CHL1    C7 7079   2.671   4.587   9.999  0.2761  0.3305 -0.1258
   63CHL1   H7A 7080   2.774   4.622  10.022  1.0079 -2.1327  0.6849
   63CHL1   H7B 7081   2.677   4.510   9.919  0.8778 -1.9947  2.0506
   63CHL1    C8 7082   2.582   4.702   9.934 -0.5305  0.3156 -0.1538
   63CHL1    H8 7083   2.600   4.790   9.999  2.8875 -0.5714  0.3021
   63CHL1   C14 7084   2.626   4.729   9.792 -0.5107 -0.4588  0.1127
   63CHL1   H14 7085   2.613   4.630   9.743  0.6888 -0.5563 -0.0270
   63CHL1   C15 7086   2.770   4.770   9.762 -0.2902  0.0144  0.4985
   63CHL1  H15A 7087   2.806   4.849   9.832  3.8977  0.1546 -1.5054
   63CHL1  H15B 7088   2.836   4.682   9.782 -1.9765 -0.7856  3.1341
   63CHL1   C16 7089   2.760   4.823   9.616 -0.7030  0.1036 -0.4976
   63CHL1  H16A 7090   2.804   4.925   9.615 -1.8500  0.6117 -0.7917
   63CHL1  H16B 7091   2.810   4.753   9.546 -0.3916 -1.5851  1.2966
   63CHL1   C17 7092   2.605   4.833   9.584  0.5451  0.2258  0.4975
   63CHL1   H17 7093   2.584   4.737   9.532  0.9696  1.2483 -1.6679
   63CHL1   C13 7094   2.532   4.829   9.721 -0.2747  0.6790  0.0830
   63CHL1   C18 7095   2.541   4.968   9.782  0.7180  0.1510 -0.0123
   63CHL1  H18A 7096   2.630   5.026   9.747  0.0490 -1.0355 -4.1471
   63CHL1  H18B 7097   2.469   5.041   9.739  2.2823  0.7528 -1.7528
   63CHL1  H18C 7098   2.532   4.952   9.892  0.0275 -2.9639 -0.4399
   63CHL1   C12 7099   2.388   4.779   9.721  0.1723  0.1998 -0.0123
   63CHL1  H12A 7100   2.312   4.847   9.677 -1.6269  0.1756  2.8172
   63CHL1  H12B 7101   2.384   4.691   9.654 -3.3408  0.5491 -0.4325
   63CHL1   C11 7102   2.338   4.748   9.863 -0.2962 -0.9494  0.3255
   63CHL1  H11A 7103   2.333   4.850   9.908 -1.5057 -1.0352  0.4443
   63CHL1  H11B 7104   2.236   4.705   9.853  0.6149 -2.7083 -2.7590
   63CHL1    C9 7105   2.436   4.659   9.945  0.2456  0.4496  0.6680
   63CHL1    H9 7106   2.432   4.558   9.899  1.4044  0.0466  1.3934
   63CHL1   C10 7107   2.388   4.639  10.096  0.9799 -0.0068 -0.4493
   63CHL1   C19 7108   2.372   4.780  10.172  0.3250  0.0473  0.4185
   63CHL1  H19A 7109   2.349   4.757  10.278  0.3865 -0.8746  0.2431
   63CHL1  H19B 7110   2.464   4.841  10.158  0.0534  0.8650  1.9275
   63CHL1  H19C 7111   2.278   4.828  10.137 -0.8097 -0.9110  2.0311
   63CHL1    C1 7112   2.256   4.565  10.110 -0.3371  0.3583  0.2242
   63CHL1   H1A 7113   2.172   4.619  10.061  1.5059  2.4719 -0.7835
   63CHL1   H1B 7114   2.261   4.471  10.051  0.6725 -1.3525  2.8460
   63CHL1    C2 7115   2.206   4.539  10.248 -0.0938 -0.5987  0.3109
   63CHL1   H2A 7116   2.103   4.501  10.232 -0.7444  0.7912  0.9665
   63CHL1   H2B 7117   2.195   4.634  10.306  1.5041 -0.0838 -0.1717
   63CHL1   C20 7118   2.579   4.942   9.484  0.0524  0.8076  0.0824
   63CHL1   H20 7119   2.570   5.030   9.551 -1.0146 -0.9179  2.2959
   63CHL1   C21 7120   2.437   4.923   9.428  0.0733 -0.3089  0.0754
   63CHL1  H21A 7121   2.348   4.936   9.493 -0.7069 -1.2625 -0.7736
   63CHL1  H21B 7122   2.428   4.818   9.395  2.6574 -0.1322 -1.4201
   63CHL1  H21C 7123   2.434   4.972   9.328  2.3643 -3.2048 -1.5618
   63CHL1   C22 7124   2.677   4.959   9.368  0.6143 -0.1042 -0.6219
   63CHL1  H22A 7125   2.649   5.056   9.321 -1.5785 -0.2250  0.2999
   63CHL1  H22B 7126   2.779   4.966   9.410 -0.2769  0.0407  1.6753
   63CHL1   C23 7127   2.672   4.846   9.261 -0.2913  0.5761 -0.0684
   63CHL1  H23A 7128   2.685   4.746   9.309 -2.5430 -0.0563 -0.6365
   63CHL1  H23B 7129   2.575   4.851   9.207  0.0714 -0.2697 -0.8189
   63CHL1   C24 7130   2.786   4.872   9.157  0.2707 -0.7388  0.9169
   63CHL1  H24A 7131   2.778   4.980   9.133 -0.8763 -0.5305  2.1054
   63CHL1  H24B 7132   2.886   4.862   9.206  0.8024  1.9271  0.5198
   63CHL1   C25 7133   2.773   4.786   9.023  1.0014  0.1021  0.2299
   63CHL1   H25 7134   2.751   4.685   9.063 -0.5701  0.6502  0.8461
   63CHL1   C26 7135   2.660   4.846   8.933 -0.0872  0.3945  0.2888
   63CHL1  H26A 7136   2.652   4.771   8.851  1.8527  0.4717 -0.0041
   63CHL1  H26B 7137   2.570   4.832   8.996  1.1532 -1.4112  1.7579
   63CHL1  H26C 7138   2.671   4.952   8.901 -0.3245  0.4369  0.3462
   63CHL1   C27 7139   2.901   4.781   8.941 -0.3540  0.1406 -0.1748
   63CHL1  H27A 7140   2.973   4.726   9.005 -0.7776 -1.2484 -0.8386
   63CHL1  H27B 7141   2.897   4.712   8.853  1.3413  0.4454 -0.5188
   63CHL1  H27C 7142   2.937   4.877   8.900 -0.1993  0.4685  0.7156
   64CHL1    C3 7143   6.541   1.220  10.036  0.6760  0.4694 -0.5856
   64CHL1    H3 7144   6.438   1.259  10.023  1.1989  1.8740 -0.8164
   64CHL1    O3 7145   6.584   1.267  10.164 -0.1616 -0.0191 -0.2115
   64CHL1   H3' 7146   6.670   1.228  10.182  0.0120  0.9358  1.2592
   64CHL1    C4 7147   6.555   1.071  10.039  0.3030  0.5628 -0.2633
   64CHL1   H4A 7148   6.659   1.036  10.055  0.3066  0.7823  0.1853
   64CHL1   H4B 7149   6.489   1.036  10.121 -1.1015  1.2339 -1.0698
   64CHL1    C5 7150   6.487   1.032   9.907 -0.6783 -0.1315  0.0772
   64CHL1    C6 7151   6.372   0.957   9.904  0.2568 -0.7210  0.1510
   64CHL1    H6 7152   6.333   0.926  10.002  0.3513 -4.3183 -0.8132
   64CHL1    C7 7153   6.321   0.904   9.771 -0.0658  0.4743  0.0728
   64CHL1   H7A 7154   6.306   0.795   9.783 -0.9645  0.5447 -0.3267
   64CHL1   H7B 7155   6.218   0.944   9.756  1.0410  3.0625 -1.3967
   64CHL1    C8 7156   6.404   0.927   9.648  0.5403 -0.8291  0.3675
   64CHL1    H8 7157   6.484   0.850   9.653 -0.2821 -1.8475 -1.1548
   64CHL1   C14 7158   6.317   0.910   9.525 -0.0595  0.7767 -0.6631
   64CHL1   H14 7159   6.255   1.002   9.535 -1.0930 -0.1634  4.2051
   64CHL1   C15 7160   6.231   0.785   9.498  0.0555 -0.2901 -0.4992
   64CHL1  H15A 7161   6.271   0.689   9.536 -1.4845 -1.1329 -0.9302
   64CHL1  H15B 7162   6.134   0.807   9.548  0.5306 -0.5927  0.5761
   64CHL1   C16 7163   6.201   0.778   9.349  0.2081 -0.5216 -0.0908
   64CHL1  H16A 7164   6.248   0.681   9.321 -1.5622 -2.1328  2.1530
   64CHL1  H16B 7165   6.092   0.777   9.326 -0.0050  0.6624  0.7893
   64CHL1   C17 7166   6.285   0.897   9.286 -0.5965  0.3452  1.0361
   64CHL1   H17 7167   6.223   0.989   9.288  2.0548  2.3208 -0.4119
   64CHL1   C13 7168   6.399   0.926   9.394  0.3402  0.6734  0.3152
   64CHL1   C18 7169   6.508   0.819   9.370  0.6732  0.5288 -0.7840
   64CHL1  H18A 7170   6.596   0.853   9.429  0.3622  3.6319 -1.9517
   64CHL1  H18B 7171   6.464   0.723   9.405 -0.4143  0.2771 -2.7334
   64CHL1  H18C 7172   6.544   0.806   9.266  1.2507 -1.6338 -0.3620
   64CHL1   C12 7173   6.466   1.066   9.391  0.1312 -0.0237  0.1581
   64CHL1  H12A 7174   6.529   1.073   9.300  0.1832  0.3228  0.2203
   64CHL1  H12B 7175   6.381   1.138   9.389 -0.7537 -1.0312  0.3963
   64CHL1   C11 7176   6.542   1.106   9.519  0.0647  0.2642 -0.5758
   64CHL1  H11A 7177   6.631   1.041   9.503 -0.6824 -0.5424 -1.6058
   64CHL1  H11B 7178   6.573   1.211   9.505  2.2971 -0.3236 -0.4388
   64CHL1    C9 7179   6.470   1.067   9.651 -0.3200  0.1107 -0.0104
   64CHL1    H9 7180   6.380   1.128   9.673 -0.8943 -0.9324  0.6242
   64CHL1   C10 7181   6.555   1.089   9.773  0.5244  0.2106  0.5511
   64CHL1   C19 7182   6.688   1.011   9.767  0.1681  0.4538 -0.2209
   64CHL1  H19A 7183   6.744   1.034   9.674 -0.1108 -0.3842 -0.6044
   64CHL1  H19B 7184   6.755   1.042   9.850  1.3880 -1.7243 -0.3432
   64CHL1  H19C 7185   6.674   0.902   9.778  2.1797  0.2440  0.5863
   64CHL1    C1 7186   6.575   1.240   9.791 -0.0146  0.4013 -0.6725
   64CHL1   H1A 7187   6.630   1.289   9.708  3.1451  0.7882  1.4936
   64CHL1   H1B 7188   6.473   1.283   9.780  0.5115  1.6138 -0.9957
   64CHL1    C2 7189   6.628   1.277   9.927  0.7580  0.5408 -0.0631
   64CHL1   H2A 7190   6.619   1.388   9.931  0.9183  0.5354  0.5884
   64CHL1   H2B 7191   6.733   1.243   9.934 -0.0310 -1.7007  2.0267
   64CHL1   C20 7192   6.320   0.865   9.141 -0.4508 -0.2383  0.6229
   64CHL1   H20 7193   6.399   0.787   9.139  0.6739  0.8767  0.3281
   64CHL1   C21 7194   6.381   0.992   9.083 -0.5188  0.1589  0.2167
   64CHL1  H21A 7195   6.386   0.980   8.973  1.3966  1.3730  0.1221
   64CHL1  H21B 7196   6.486   1.014   9.112 -0.2725  0.4697 -0.8479
   64CHL1  H21C 7197   6.314   1.079   9.103  0.4291  1.2563 -1.1747
   64CHL1   C22 7198   6.201   0.825   9.048 -0.3989  0.4939  0.0525
   64CHL1  H22A 7199   6.172   0.729   9.097 -1.2383  0.6965 -0.0267
   64CHL1  H22B 7200   6.115   0.896   9.051 -0.0033  0.9780  0.0913
   64CHL1   C23 7201   6.227   0.796   8.900 -0.2385 -0.2449 -0.8063
   64CHL1  H23A 7202   6.187   0.884   8.846  2.1265  0.7319 -1.0775
   64CHL1  H23B 7203   6.335   0.789   8.876 -0.2418  1.1121 -1.3110
   64CHL1   C24 7204   6.157   0.664   8.866  0.6102 -0.5565 -0.0513
   64CHL1  H24A 7205   6.192   0.585   8.936  0.7312 -0.0423  0.4701
   64CHL1  H24B 7206   6.046   0.671   8.873  0.6989 -0.8098  2.1690
   64CHL1   C25 7207   6.167   0.612   8.715  0.3844 -0.1203 -0.2033
   64CHL1   H25 7208   6.265   0.565   8.689  0.4825  0.3510 -0.7183
   64CHL1   C26 7209   6.070   0.492   8.698  0.0563 -0.2773 -0.1926
   64CHL1  H26A 7210   5.966   0.522   8.723  0.3797 -0.2961  1.2382
   64CHL1  H26B 7211   6.067   0.443   8.598 -1.6902  1.7087 -1.1906
   64CHL1  H26C 7212   6.094   0.408   8.766  0.6158 -3.2687 -3.7716
   64CHL1   C27 7213   6.143   0.732   8.621  0.0239 -0.2943  0.8786
   64CHL1  H27A 7214   6.212   0.814   8.652  1.7400 -1.6004  0.6542
   64CHL1  H27B 7215   6.157   0.704   8.514 -2.2786  0.0641  0.4172
   64CHL1  H27C 7216   6.037   0.763   8.630  0.2594 -0.0223  3.6085
   65CHL1    C3 7217   4.058   4.719  10.335  0.6460 -0.4162 -0.3462
   65CHL1    H3 7218   3.999   4.802  10.379  2.3067 -0.6991  2.6865
   65CHL1    O3 7219   4.099   4.639  10.446  0.4417 -0.2149 -0.0570
   65CHL1   H3' 7220   4.027   4.575  10.452 -0.4186  0.7481 -0.0090
   65CHL1    C4 7221   3.959   4.626  10.253 -0.4042  0.2752  0.6183
   65CHL1   H4A 7222   4.023   4.535  10.239 -0.0153  0.2236  2.4052
   65CHL1   H4B 7223   3.881   4.579  10.317 -0.7982  2.0527  1.4824
   65CHL1    C5 7224   3.906   4.684  10.127 -0.1990 -0.0625  0.6637
   65CHL1    C6 7225   3.776   4.683  10.091  0.5701  0.0632  0.6544
   65CHL1    H6 7226   3.697   4.643  10.156 -0.4798  0.2723 -0.4524
   65CHL1    C7 7227   3.721   4.749   9.959 -0.5518  0.0316  0.2797
   65CHL1   H7A 7228   3.640   4.691   9.910 -0.8308  0.5715  0.0940
   65CHL1   H7B 7229   3.675   4.847   9.985  0.4277 -0.2400  3.4909
   65CHL1    C8 7230   3.840   4.798   9.865 -0.1860 -0.0779 -0.4855
   65CHL1    H8 7231   3.875   4.708   9.810  0.9379  0.9868 -1.5753
   65CHL1   C14 7232   3.789   4.899   9.760  0.1612  0.6710 -0.1277
   65CHL1   H14 7233   3.766   4.985   9.827 -0.2355  1.5831 -1.3930
   65CHL1   C15 7234   3.661   4.857   9.678 -0.4654  0.6200 -0.2939
   65CHL1  H15A 7235   3.686   4.754   9.645  1.1852  1.1805 -0.9155
   65CHL1  H15B 7236   3.561   4.850   9.727 -1.0777 -0.9989 -1.6703
   65CHL1   C16 7237   3.660   4.959   9.560 -0.5078  1.0802  0.7558
   65CHL1  H16A 7238   3.651   4.893   9.471 -2.9203 -2.4336  3.2869
   65CHL1  H16B 7239   3.570   5.022   9.581 -0.1537  1.5027  1.0096
   65CHL1   C17 7240   3.791   5.037   9.566  0.4396 -0.3473 -0.2701
   65CHL1   H17 7241   3.763   5.129   9.622 -0.4866 -1.4397  1.1124
   65CHL1   C13 7242   3.889   4.958   9.656 -0.9498 -0.1130  0.2046
   65CHL1   C18 7243   3.963   4.851   9.569  0.0869 -0.3438  0.4738
   65CHL1  H18A 7244   3.990   4.761   9.628  3.6335 -0.1773 -0.6409
   65CHL1  H18B 7245   3.885   4.808   9.502  0.9198 -0.2497 -0.5984
   65CHL1  H18C 7246   4.047   4.881   9.502 -1.7103  0.6763 -1.4428
   65CHL1   C12 7247   3.999   5.027   9.745 -0.7880  0.2474 -0.3601
   65CHL1  H12A 7248   4.085   5.072   9.691 -1.4793  1.4599 -0.4846
   65CHL1  H12B 7249   3.951   5.106   9.806 -0.5236 -0.8400  1.3412
   65CHL1   C11 7250   4.059   4.926   9.844 -0.6208 -0.5031  0.0720
   65CHL1  H11A 7251   4.112   4.847   9.787 -1.2535 -0.3337 -0.7744
   65CHL1  H11B 7252   4.140   4.973   9.904  0.5227 -1.5968 -0.5707
   65CHL1    C9 7253   3.953   4.865   9.941 -0.0473  0.2262 -0.6715
   65CHL1    H9 7254   3.915   4.953   9.996  3.3363  0.2957  1.8316
   65CHL1   C10 7255   4.015   4.763  10.045  0.1848 -0.1425  0.0759
   65CHL1   C19 7256   4.098   4.649   9.978 -0.0420 -0.0219  0.7310
   65CHL1  H19A 7257   4.155   4.586  10.049 -1.3236 -2.3093 -0.1679
   65CHL1  H19B 7258   4.038   4.588   9.907 -1.9454  1.5403  0.9144
   65CHL1  H19C 7259   4.174   4.692   9.909 -1.8340  1.1631 -0.5884
   65CHL1    C1 7260   4.115   4.846  10.130  0.0055  0.3314  0.1575
   65CHL1   H1A 7261   4.206   4.873  10.072  0.0978 -1.7967 -0.7920
   65CHL1   H1B 7262   4.068   4.940  10.164  0.5857  0.8185 -0.3440
   65CHL1    C2 7263   4.173   4.764  10.244  0.7125 -0.7925  0.4364
   65CHL1   H2A 7264   4.239   4.834  10.300  1.0601 -0.3981 -0.4541
   65CHL1   H2B 7265   4.233   4.675  10.216  1.2781 -0.4096  0.4131
   65CHL1   C20 7266   3.849   5.080   9.429 -0.2634 -0.3588  0.1187
   65CHL1   H20 7267   3.881   4.986   9.378  2.1929 -0.0775  1.0244
   65CHL1   C21 7268   3.970   5.167   9.451 -0.5061  0.4591  0.3403
   65CHL1  H21A 7269   4.003   5.229   9.366 -0.9387 -1.2650 -1.1475
   65CHL1  H21B 7270   4.057   5.102   9.475 -1.4475 -0.7373  0.6485
   65CHL1  H21C 7271   3.948   5.235   9.537  1.4667 -0.1178  1.3489
   65CHL1   C22 7272   3.742   5.159   9.342  0.6225 -0.0055 -0.2542
   65CHL1  H22A 7273   3.654   5.093   9.327  0.8263 -0.2909 -0.2059
   65CHL1  H22B 7274   3.712   5.251   9.398 -1.3008 -0.3628 -0.6284
   65CHL1   C23 7275   3.788   5.194   9.195  0.1224 -0.4801 -0.2550
   65CHL1  H23A 7276   3.869   5.270   9.199  1.5213 -1.9708  1.2212
   65CHL1  H23B 7277   3.817   5.097   9.151  0.7075 -2.0284  3.2156
   65CHL1   C24 7278   3.667   5.238   9.109  0.1188  0.0265  0.2783
   65CHL1  H24A 7279   3.718   5.262   9.013 -1.2711 -1.7007 -0.9504
   65CHL1  H24B 7280   3.607   5.148   9.084 -0.7713  0.1001  1.9686
   65CHL1   C25 7281   3.592   5.361   9.159  0.3313  0.9386  0.3048
   65CHL1   H25 7282   3.544   5.344   9.258 -3.9017 -1.8410 -1.9093
   65CHL1   C26 7283   3.679   5.482   9.161  0.0446 -0.2734  0.1066
   65CHL1  H26A 7284   3.717   5.513   9.061 -0.9522 -0.1901 -0.2637
   65CHL1  H26B 7285   3.626   5.568   9.207 -0.2085  1.6128 -3.3444
   65CHL1  H26C 7286   3.763   5.447   9.225  0.1455 -0.0963  0.0698
   65CHL1   C27 7287   3.454   5.379   9.081 -0.2817  0.0719  0.4052
   65CHL1  H27A 7288   3.409   5.476   9.112 -0.5702  0.4875 -1.2031
   65CHL1  H27B 7289   3.465   5.388   8.971  1.5664  0.1919  0.5624
   65CHL1  H27C 7290   3.381   5.300   9.108 -1.3226  0.8494 -0.0634
   66CHL1    C3 7291   2.074   3.020  10.588  0.5447  0.1983 -0.2673
   66CHL1    H3 7292   2.118   3.118  10.615  0.0109  0.2227  0.5385
   66CHL1    O3 7293   2.038   2.951  10.705  0.5034 -1.1017 -0.3124
   66CHL1   H3' 7294   1.948   2.978  10.723 -0.7994 -4.1717 -1.6100
   66CHL1    C4 7295   1.935   3.064  10.529  0.5665 -0.5492 -0.1890
   66CHL1   H4A 7296   1.852   2.991  10.541  2.6758 -2.6627  3.2208
   66CHL1   H4B 7297   1.891   3.149  10.586  1.3273 -1.2325  1.4793
   66CHL1    C5 7298   1.951   3.101  10.385 -0.4385 -0.1717  0.5429
   66CHL1    C6 7299   1.912   3.217  10.338 -0.0661 -0.1111  0.5160
   66CHL1    H6 7300   1.849   3.287  10.395 -2.6217 -0.5256 -1.6043
   66CHL1    C7 7301   1.920   3.264  10.192 -0.3229 -0.4308 -0.0198
   66CHL1   H7A 7302   1.825   3.311  10.159 -0.6110 -2.0445 -1.6865
   66CHL1   H7B 7303   1.986   3.353  10.189  1.5817 -1.6952  1.6066
   66CHL1    C8 7304   1.979   3.160  10.092  0.2223 -0.3602  0.5244
   66CHL1    H8 7305   1.893   3.089  10.081 -1.2165  1.4228 -0.3180
   66CHL1   C14 7306   2.025   3.224   9.966  0.1899 -0.8563  0.3340
   66CHL1   H14 7307   2.104   3.289  10.009  0.5345 -1.9699  1.4607
   66CHL1   C15 7308   1.915   3.297   9.890  1.1271 -0.3796  0.8647
   66CHL1  H15A 7309   1.816   3.248   9.886  1.4759 -1.0965  0.8371
   66CHL1  H15B 7310   1.916   3.402   9.927  1.8043 -0.8442  2.2496
   66CHL1   C16 7311   1.975   3.299   9.739  0.2259  0.6749  0.0307
   66CHL1  H16A 7312   1.898   3.252   9.675 -1.3696  1.5612  1.2175
   66CHL1  H16B 7313   1.994   3.400   9.695  0.0199  0.4280 -0.6298
   66CHL1   C17 7314   2.106   3.219   9.739 -0.2401 -0.0169 -0.9961
   66CHL1   H17 7315   2.184   3.288   9.776  1.2814 -2.4186  0.4965
   66CHL1   C13 7316   2.092   3.133   9.864 -0.0237  0.4957  0.6694
   66CHL1   C18 7317   2.003   3.013   9.816 -0.2251 -0.5367 -0.8668
   66CHL1  H18A 7318   2.064   2.928   9.777  3.3796  2.2975 -1.9778
   66CHL1  H18B 7319   1.938   2.972   9.897 -1.2586  0.4061 -1.1957
   66CHL1  H18C 7320   1.924   3.043   9.743 -1.5712 -1.3105  0.2272
   66CHL1   C12 7321   2.216   3.072   9.930 -0.0948  0.0599  0.2719
   66CHL1  H12A 7322   2.260   2.992   9.867 -1.5954 -0.3498 -0.2973
   66CHL1  H12B 7323   2.305   3.138   9.938  0.9582 -1.1685 -0.7903
   66CHL1   C11 7324   2.176   2.992  10.051  1.3956  0.4448 -0.8251
   66CHL1  H11A 7325   2.114   2.901  10.032 -1.6635  1.9422  1.1529
   66CHL1  H11B 7326   2.267   2.961  10.106  2.1134  2.8702 -0.5204
   66CHL1    C9 7327   2.091   3.081  10.158  0.2252 -0.2921  0.3465
   66CHL1    H9 7328   2.171   3.151  10.189  1.4648 -1.3858 -0.2747
   66CHL1   C10 7329   2.042   3.011  10.291  0.0463 -0.2340 -0.1641
   66CHL1   C19 7330   1.945   2.886  10.258 -0.8861 -0.6575  0.2742
   66CHL1  H19A 7331   1.989   2.794  10.214 -1.8359 -0.2641 -1.6080
   66CHL1  H19B 7332   1.903   2.847  10.353 -2.1113 -0.3018 -0.1023
   66CHL1  H19C 7333   1.852   2.906  10.200 -2.2078 -1.1086  2.1611
   66CHL1    C1 7334   2.174   2.971  10.366  0.5846 -0.0018  1.1906
   66CHL1   H1A 7335   2.224   2.889  10.310 -3.0136 -2.0590  0.6462
   66CHL1   H1B 7336   2.248   3.054  10.361  0.4177  0.0836 -0.3137
   66CHL1    C2 7337   2.148   2.925  10.503  0.1367  0.3594 -0.1660
   66CHL1   H2A 7338   2.245   2.886  10.540 -0.3434 -1.6488 -0.9114
   66CHL1   H2B 7339   2.090   2.830  10.505 -0.7904  0.8829 -1.5339
   66CHL1   C20 7340   2.138   3.154   9.600  0.1206  0.3156 -0.6242
   66CHL1   H20 7341   2.049   3.115   9.545 -0.1240 -0.0320  0.0129
   66CHL1   C21 7342   2.253   3.051   9.609  1.0209 -0.6990 -0.2247
   66CHL1  H21A 7343   2.271   3.010   9.507 -1.1580 -0.6674 -0.6707
   66CHL1  H21B 7344   2.216   2.961   9.662 -3.6960 -1.6540 -4.3823
   66CHL1  H21C 7345   2.346   3.099   9.645  1.7078 -2.3118  0.2011
   66CHL1   C22 7346   2.183   3.274   9.497 -0.2596 -0.5769  0.2406
   66CHL1  H22A 7347   2.115   3.361   9.512 -0.2538 -0.6892  0.9129
   66CHL1  H22B 7348   2.283   3.303   9.537  0.6612 -3.8254  0.6002
   66CHL1   C23 7349   2.158   3.234   9.349 -0.2308  0.0946  0.1353
   66CHL1  H23A 7350   2.235   3.160   9.316 -1.3616 -0.4832 -1.3311
   66CHL1  H23B 7351   2.056   3.191   9.351 -0.5955  0.8901 -0.7890
   66CHL1   C24 7352   2.170   3.352   9.251 -0.1986 -0.1326  0.8924
   66CHL1  H24A 7353   2.072   3.403   9.243 -1.1816 -2.0755 -0.4093
   66CHL1  H24B 7354   2.253   3.410   9.296 -0.4333 -0.6495  2.0184
   66CHL1   C25 7355   2.199   3.306   9.105  0.6008 -0.1083  0.4982
   66CHL1   H25 7356   2.139   3.216   9.079 -1.3127  1.0727  0.5705
   66CHL1   C26 7357   2.149   3.419   9.011  0.3674 -0.5410 -0.3078
   66CHL1  H26A 7358   2.038   3.410   9.002  0.4708 -0.7856 -1.5766
   66CHL1  H26B 7359   2.176   3.517   9.056 -1.6789 -0.5331  1.0479
   66CHL1  H26C 7360   2.181   3.413   8.904 -0.5906 -0.3785 -0.6201
   66CHL1   C27 7361   2.353   3.285   9.076  0.2256  0.5030 -0.1269
   66CHL1  H27A 7362   2.400   3.384   9.092 -0.0926  0.9057 -1.5179
   66CHL1  H27B 7363   2.396   3.214   9.150 -0.2483 -0.6913 -0.9582
   66CHL1  H27C 7364   2.368   3.259   8.969  0.0626  1.1894 -0.3215
   67CHL1    C3 7365   6.238   4.242  10.292 -0.1258 -0.1517 -0.5414
   67CHL1    H3 7366   6.150   4.300  10.256 -0.6255 -1.2066 -1.0772
   67CHL1    O3 7367   6.236   4.243  10.433 -0.1014  0.0183 -0.7254
   67CHL1   H3' 7368   6.315   4.196  10.459 -0.3214  0.0353 -0.0046
   67CHL1    C4 7369   6.218   4.099  10.239 -0.2688  0.0688  0.2902
   67CHL1   H4A 7370   6.274   4.026  10.301  1.4691 -1.6751 -3.0428
   67CHL1   H4B 7371   6.109   4.084  10.252 -0.4544 -0.1220 -1.2857
   67CHL1    C5 7372   6.243   4.073  10.094  0.4134  0.0992  0.4830
   67CHL1    C6 7373   6.151   4.020  10.011  0.4187 -0.5344  0.1092
   67CHL1    H6 7374   6.055   3.984  10.052  0.5091 -2.1285 -1.0096
   67CHL1    C7 7375   6.166   3.999   9.862  1.2432  0.1215 -0.1934
   67CHL1   H7A 7376   6.140   3.892   9.847  4.1603 -1.3012  3.4298
   67CHL1   H7B 7377   6.095   4.066   9.808  2.3462  1.3728 -0.1486
   67CHL1    C8 7378   6.310   4.025   9.814  0.0684 -0.3463  0.2607
   67CHL1    H8 7379   6.383   3.946   9.840  1.1649  1.2510  2.3947
   67CHL1   C14 7380   6.316   4.046   9.666 -0.4993 -0.3240  0.1063
   67CHL1   H14 7381   6.243   4.128   9.650 -0.5268 -0.5107 -0.7605
   67CHL1   C15 7382   6.269   3.931   9.578  0.2544  0.3323 -0.3924
   67CHL1  H15A 7383   6.321   3.842   9.618 -0.6008 -0.5530 -1.1914
   67CHL1  H15B 7384   6.160   3.911   9.575  0.0449  1.5203 -1.2570
   67CHL1   C16 7385   6.328   3.957   9.437  0.0782  0.6652 -0.7186
   67CHL1  H16A 7386   6.383   3.869   9.396  1.2885  1.4577 -0.8166
   67CHL1  H16B 7387   6.250   3.994   9.366  1.3501  4.0130 -0.5253
   67CHL1   C17 7388   6.417   4.081   9.452 -0.1175 -0.0360 -0.3231
   67CHL1   H17 7389   6.351   4.171   9.444 -0.1161  0.0438  0.4677
   67CHL1   C13 7390   6.451   4.087   9.608 -0.5909 -0.1473 -0.0405
   67CHL1   C18 7391   6.563   3.985   9.636 -0.7411 -0.1262 -0.2807
   67CHL1  H18A 7392   6.563   3.967   9.746  0.0100  0.3180 -0.1978
   67CHL1  H18B 7393   6.563   3.890   9.578  0.4064 -0.8843  0.8926
   67CHL1  H18C 7394   6.660   4.033   9.611 -0.9553 -0.5046 -1.9345
   67CHL1   C12 7395   6.481   4.225   9.668  0.4019 -0.5124 -0.6796
   67CHL1  H12A 7396   6.577   4.263   9.624  0.6982  0.0171  0.3957
   67CHL1  H12B 7397   6.404   4.300   9.639 -0.8263 -2.3737 -2.5009
   67CHL1   C11 7398   6.493   4.218   9.816  0.5189 -0.7639 -0.2280
   67CHL1  H11A 7399   6.579   4.155   9.848  1.3527 -0.9221 -2.5732
   67CHL1  H11B 7400   6.502   4.319   9.860  2.7618 -1.1297  0.2469
   67CHL1    C9 7401   6.362   4.155   9.884 -0.6249 -0.0255 -0.0368
   67CHL1    H9 7402   6.287   4.233   9.860 -2.9770 -2.4487 -1.0602
   67CHL1   C10 7403   6.368   4.148  10.038 -0.4072  0.0823 -0.8359
   67CHL1   C19 7404   6.501   4.074  10.064  0.5431  0.2201 -0.0357
   67CHL1  H19A 7405   6.511   3.976  10.012  0.2541 -0.5705  1.3359
   67CHL1  H19B 7406   6.592   4.134  10.046  0.6003 -0.2321 -1.3894
   67CHL1  H19C 7407   6.507   4.041  10.170  1.5220 -0.7084 -0.3622
   67CHL1    C1 7408   6.374   4.293  10.088 -0.3528  0.2315 -0.1709
   67CHL1   H1A 7409   6.475   4.329  10.056 -0.4582  1.3861  0.7340
   67CHL1   H1B 7410   6.300   4.363  10.046  1.5630  1.5413 -1.5338
   67CHL1    C2 7411   6.364   4.305  10.238 -0.1993 -0.6353  0.4631
   67CHL1   H2A 7412   6.372   4.414  10.261 -1.3750 -0.4302 -0.0071
   67CHL1   H2B 7413   6.453   4.256  10.283 -0.5998 -0.3979  1.5573
   67CHL1   C20 7414   6.525   4.106   9.344  0.5115  0.4473 -0.2682
   67CHL1   H20 7415   6.613   4.043   9.371  0.2310 -0.1121 -0.6313
   67CHL1   C21 7416   6.580   4.249   9.331 -0.1186  0.3576  0.1016
   67CHL1  H21A 7417   6.674   4.218   9.280 -1.2067  0.8323 -2.3075
   67CHL1  H21B 7418   6.614   4.296   9.426  2.1969 -2.5594  0.8761
   67CHL1  H21C 7419   6.522   4.312   9.260 -0.0786 -0.8556 -1.0549
   67CHL1   C22 7420   6.473   4.067   9.205 -0.1573  0.6252 -0.6726
   67CHL1  H22A 7421   6.451   3.959   9.216  1.3425  0.4620  1.1445
   67CHL1  H22B 7422   6.386   4.131   9.181  0.0159  0.5655 -1.4866
   67CHL1   C23 7423   6.572   4.072   9.081 -0.3630  0.8733  0.6153
   67CHL1  H23A 7424   6.623   4.171   9.076 -2.0883  1.8255  1.0839
   67CHL1  H23B 7425   6.641   3.989   9.107 -2.2700 -0.1867  2.5864
   67CHL1   C24 7426   6.504   4.028   8.948 -0.0130 -0.2713 -0.6353
   67CHL1  H24A 7427   6.435   3.942   8.963 -0.5688  0.0644 -1.2470
   67CHL1  H24B 7428   6.447   4.121   8.927 -0.0761  0.1381  1.1879
   67CHL1   C25 7429   6.595   3.998   8.834 -0.0532 -0.2185  1.0764
   67CHL1   H25 7430   6.676   3.926   8.860  3.0955  2.9221  0.7673
   67CHL1   C26 7431   6.520   3.929   8.714 -0.0001 -0.4590  0.0065
   67CHL1  H26A 7432   6.443   3.852   8.736 -0.4609 -1.0397 -3.1987
   67CHL1  H26B 7433   6.470   4.007   8.653  0.3507 -0.0456  0.2387
   67CHL1  H26C 7434   6.597   3.887   8.645 -2.4353 -3.7267 -1.0037
   67CHL1   C27 7435   6.665   4.128   8.776 -0.7169 -0.0258  0.2260
   67CHL1  H27A 7436   6.743   4.095   8.703 -2.0383 -0.1717 -1.1688
   67CHL1  H27B 7437   6.601   4.207   8.733  1.7534  2.5978  1.0778
   67CHL1  H27C 7438   6.737   4.158   8.855 -0.2600 -0.4386 -0.0305
   68CHL1    C3 7439   3.913   1.620  10.158  0.6232 -0.6434  0.5328
   68CHL1    H3 7440   4.012   1.607  10.109  0.2852  1.7260 -0.9207
   68CHL1    O3 7441   3.943   1.630  10.293 -0.0360  0.3322  0.0349
   68CHL1   H3' 7442   4.036   1.606  10.299 -0.1185  0.0206  0.0636
   68CHL1    C4 7443   3.835   1.742  10.103  0.4933 -0.3861 -0.4789
   68CHL1   H4A 7444   3.743   1.761  10.162  1.6776  0.8624  1.0299
   68CHL1   H4B 7445   3.897   1.829  10.132 -0.8676  0.2697  0.5542
   68CHL1    C5 7446   3.818   1.743   9.955 -0.8407  0.9760 -0.7823
   68CHL1    C6 7447   3.855   1.840   9.870 -0.8567 -0.3625  0.8973
   68CHL1    H6 7448   3.909   1.929   9.907 -1.1263  1.1499 -2.0280
   68CHL1    C7 7449   3.826   1.853   9.718 -0.3530 -0.3658 -0.3770
   68CHL1   H7A 7450   3.793   1.953   9.683  0.6820 -0.6072 -2.1654
   68CHL1   H7B 7451   3.927   1.835   9.675  0.7815  1.0588  1.5079
   68CHL1    C8 7452   3.731   1.743   9.674  0.2059  0.4160  0.4965
   68CHL1    H8 7453   3.631   1.787   9.696  1.0454  2.2134  0.8853
   68CHL1   C14 7454   3.743   1.725   9.523 -0.1569  1.0209  1.0780
   68CHL1   H14 7455   3.847   1.690   9.508  1.4635  4.0971  3.7727
   68CHL1   C15 7456   3.716   1.849   9.439 -0.1382 -0.0823 -0.3010
   68CHL1  H15A 7457   3.630   1.905   9.481  0.4523  1.1597 -0.6655
   68CHL1  H15B 7458   3.810   1.909   9.428 -0.5204  0.6989  0.5958
   68CHL1   C16 7459   3.681   1.793   9.298  0.5493  0.1434  0.8680
   68CHL1  H16A 7460   3.585   1.829   9.256 -0.5550 -2.0695  1.3594
   68CHL1  H16B 7461   3.767   1.813   9.229  0.2954 -0.0364  0.4940
   68CHL1   C17 7462   3.665   1.641   9.316  0.2392  0.5370 -0.1513
   68CHL1   H17 7463   3.760   1.589   9.294 -1.0762 -1.5988 -1.0901
   68CHL1   C13 7464   3.640   1.622   9.473 -0.5646  0.1051  0.1414
   68CHL1   C18 7465   3.499   1.660   9.512  0.6271  0.0631  0.2178
   68CHL1  H18A 7466   3.479   1.665   9.621 -0.6307  1.7898 -0.0480
   68CHL1  H18B 7467   3.483   1.766   9.483  0.7653  0.0688  0.1598
   68CHL1  H18C 7468   3.417   1.613   9.454  0.9348 -0.1960 -0.0121
   68CHL1   C12 7469   3.673   1.482   9.539 -0.1757 -0.9728  0.3386
   68CHL1  H12A 7470   3.588   1.421   9.502  1.4279 -3.0994 -0.0534
   68CHL1  H12B 7471   3.761   1.424   9.502  1.7217  0.3347  2.5399
   68CHL1   C11 7472   3.679   1.482   9.691  0.3382  0.1276  0.4528
   68CHL1  H11A 7473   3.573   1.485   9.722  0.3171 -1.0599  0.5535
   68CHL1  H11B 7474   3.726   1.395   9.742  1.5930  1.7879  2.3174
   68CHL1    C9 7475   3.753   1.608   9.751  0.0164 -0.3721 -0.5315
   68CHL1    H9 7476   3.862   1.594   9.731 -0.0901 -3.0640  0.3220
   68CHL1   C10 7477   3.745   1.624   9.907  0.6041 -0.2248 -0.5597
   68CHL1   C19 7478   3.591   1.641   9.937  0.0680 -0.5708 -0.6511
   68CHL1  H19A 7479   3.545   1.541   9.919  1.2436 -1.0085 -1.2772
   68CHL1  H19B 7480   3.571   1.680  10.039 -0.9554  1.6696 -1.6516
   68CHL1  H19C 7481   3.536   1.713   9.874 -1.3081 -0.3086  0.7749
   68CHL1    C1 7482   3.797   1.488   9.974 -0.2246  0.5840  0.1118
   68CHL1   H1A 7483   3.721   1.407   9.969 -0.7250  1.0498 -0.0496
   68CHL1   H1B 7484   3.885   1.447   9.919 -0.8537 -0.1394 -0.3749
   68CHL1    C2 7485   3.830   1.496  10.128  0.1376  0.3850 -0.2284
   68CHL1   H2A 7486   3.875   1.403  10.169 -0.5728  0.1359  0.0030
   68CHL1   H2B 7487   3.730   1.505  10.176  0.2066 -0.4553  0.0954
   68CHL1   C20 7488   3.561   1.580   9.218 -0.4252 -1.0208 -0.1802
   68CHL1   H20 7489   3.460   1.617   9.245 -0.0176 -1.6357  2.4603
   68CHL1   C21 7490   3.567   1.433   9.217 -0.4117  0.1463 -0.1567
   68CHL1  H21A 7491   3.665   1.387   9.195  1.5309  2.3070  3.1931
   68CHL1  H21B 7492   3.494   1.386   9.147  0.8904 -0.5138 -1.0979
   68CHL1  H21C 7493   3.542   1.389   9.316  1.3515 -2.1063 -0.6303
   68CHL1   C22 7494   3.575   1.634   9.071 -0.1526  0.5621  0.8706
   68CHL1  H22A 7495   3.550   1.741   9.057  1.8139  0.6750 -2.9223
   68CHL1  H22B 7496   3.682   1.625   9.045 -0.2731  0.4694  0.3986
   68CHL1   C23 7497   3.484   1.552   8.970  0.6765 -0.0180  0.1755
   68CHL1  H23A 7498   3.538   1.458   8.948  1.9363  1.0991 -1.8375
   68CHL1  H23B 7499   3.386   1.527   9.015  0.8566  0.9500  1.1557
   68CHL1   C24 7500   3.467   1.623   8.844 -0.6154 -0.4178  0.7801
   68CHL1  H24A 7501   3.423   1.725   8.849  2.9279  1.2335  1.9605
   68CHL1  H24B 7502   3.567   1.640   8.797 -1.2938  0.4045 -0.4158
   68CHL1   C25 7503   3.381   1.546   8.741 -0.0059 -0.3002  0.3134
   68CHL1   H25 7504   3.410   1.439   8.742  0.4134 -0.1903  0.4413
   68CHL1   C26 7505   3.236   1.566   8.773 -0.1245  0.2021 -0.1305
   68CHL1  H26A 7506   3.164   1.552   8.690 -0.9603  0.3214  0.5602
   68CHL1  H26B 7507   3.200   1.486   8.841 -0.3503 -0.4372 -0.9904
   68CHL1  H26C 7508   3.226   1.665   8.824  0.6474 -0.5374  1.5339
   68CHL1   C27 7509   3.405   1.597   8.597 -0.0991  0.3846 -0.8447
   68CHL1  H27A 7510   3.509   1.591   8.558 -0.6196 -1.0609 -2.1189
   68CHL1  H27B 7511   3.338   1.542   8.527 -1.1896 -1.6102  1.5969
   68CHL1  H27C 7512   3.389   1.707   8.594  1.5835  0.7401  0.9470
   69CHL1    C3 7513   5.502   0.772   6.985 -0.4490  0.2116 -0.5830
   69CHL1    H3 7514   5.399   0.814   6.995 -0.6950 -0.6276  0.7493
   69CHL1    O3 7515   5.532   0.761   6.845 -0.2053  0.2903 -0.3185
   69CHL1   H3' 7516   5.485   0.682   6.817  0.8385 -0.4595 -0.0030
   69CHL1    C4 7517   5.607   0.869   7.058  0.4086 -0.0545 -0.0730
   69CHL1   H4A 7518   5.714   0.854   7.036  0.6366  1.1209  0.1775
   69CHL1   H4B 7519   5.581   0.966   7.011  3.4708  0.9325  0.1064
   69CHL1    C5 7520   5.588   0.874   7.206 -0.6312 -0.3530  0.1721
   69CHL1    C6 7521   5.564   0.987   7.264  1.4118  0.3825 -0.5421
   69CHL1    H6 7522   5.546   1.075   7.201  0.5570  0.9528  0.4462
   69CHL1    C7 7523   5.540   1.007   7.409 -0.5941 -0.2693  0.6712
   69CHL1   H7A 7524   5.612   1.080   7.452 -3.0339  1.5941  1.8011
   69CHL1   H7B 7525   5.435   1.040   7.424  0.2367  3.2201 -0.3368
   69CHL1    C8 7526   5.582   0.882   7.492 -0.0424  0.5378  0.1811
   69CHL1    H8 7527   5.692   0.877   7.476 -0.1983  1.5470 -1.4770
   69CHL1   C14 7528   5.527   0.886   7.632 -1.3414  0.3022  0.0921
   69CHL1   H14 7529   5.420   0.857   7.629 -1.2836  0.0265 -2.6380
   69CHL1   C15 7530   5.535   1.021   7.712  0.2821  0.7387 -0.4112
   69CHL1  H15A 7531   5.630   1.078   7.708  0.5058  0.5206  1.3124
   69CHL1  H15B 7532   5.462   1.101   7.687  0.5265  1.7227  1.8203
   69CHL1   C16 7533   5.513   0.974   7.858 -0.2120  0.0409 -0.5509
   69CHL1  H16A 7534   5.598   1.011   7.919  0.9383 -3.1175 -0.0735
   69CHL1  H16B 7535   5.410   1.010   7.881  0.2511  1.8035 -1.0498
   69CHL1   C17 7536   5.525   0.813   7.865  0.2507  0.1862 -0.4088
   69CHL1   H17 7537   5.422   0.771   7.857  0.0815  0.4415  0.3729
   69CHL1   C13 7538   5.589   0.776   7.725  0.3558  0.0152  0.2579
   69CHL1   C18 7539   5.744   0.789   7.724  0.2117  0.4461  0.1267
   69CHL1  H18A 7540   5.785   0.702   7.780  0.1741  0.5186  0.2685
   69CHL1  H18B 7541   5.780   0.763   7.623  1.6292  0.2784  0.6536
   69CHL1  H18C 7542   5.770   0.888   7.768 -1.2975  1.6046 -1.4516
   69CHL1   C12 7543   5.547   0.636   7.668 -0.0901  0.2888 -0.5217
   69CHL1  H12A 7544   5.589   0.551   7.726 -0.9533 -1.9119 -2.9334
   69CHL1  H12B 7545   5.437   0.628   7.668 -0.0811  0.0877  0.2301
   69CHL1   C11 7546   5.569   0.623   7.516  0.0150 -0.2451 -0.4509
   69CHL1  H11A 7547   5.678   0.600   7.511  0.1042  0.2748 -1.0320
   69CHL1  H11B 7548   5.516   0.534   7.474 -2.3237  0.5160  0.7302
   69CHL1    C9 7549   5.538   0.753   7.432  0.3110  0.5193 -0.0685
   69CHL1    H9 7550   5.428   0.742   7.441  0.5098 -0.6556  1.4723
   69CHL1   C10 7551   5.577   0.733   7.280 -0.2294  0.3507 -0.1673
   69CHL1   C19 7552   5.719   0.670   7.272 -0.3582  0.2862  0.3642
   69CHL1  H19A 7553   5.783   0.725   7.344  2.7736 -2.1991 -0.2839
   69CHL1  H19B 7554   5.722   0.561   7.293  0.8391  0.6475  2.3591
   69CHL1  H19C 7555   5.776   0.677   7.177  1.6684 -1.4422  1.3747
   69CHL1    C1 7556   5.474   0.645   7.203  0.0813 -0.5331  0.0089
   69CHL1   H1A 7557   5.478   0.546   7.254 -0.1652  0.1107  1.2893
   69CHL1   H1B 7558   5.373   0.684   7.225  0.4927  0.8325 -0.3883
   69CHL1    C2 7559   5.500   0.635   7.056 -0.6605  0.1914 -0.5438
   69CHL1   H2A 7560   5.415   0.575   7.018 -2.2134  0.1915  2.6710
   69CHL1   H2B 7561   5.601   0.590   7.044 -0.1788  0.4361  2.0654
   69CHL1   C20 7562   5.595   0.768   7.994 -0.3830  0.2220  0.5661
   69CHL1   H20 7563   5.696   0.813   7.999 -0.1273 -0.4681  3.7697
   69CHL1   C21 7564   5.606   0.609   7.996  0.1857 -1.1197  0.2549
   69CHL1  H21A 7565   5.632   0.567   8.095  2.4509 -1.3840 -0.4019
   69CHL1  H21B 7566   5.680   0.569   7.923  0.3856  0.5133 -0.4832
   69CHL1  H21C 7567   5.505   0.568   7.975 -0.1859 -0.3489  0.4865
   69CHL1   C22 7568   5.533   0.823   8.129 -0.2639  0.6599 -0.1898
   69CHL1  H22A 7569   5.588   0.786   8.218 -0.0454  0.2935 -0.4682
   69CHL1  H22B 7570   5.557   0.931   8.135  0.2011  0.4585  2.6417
   69CHL1   C23 7571   5.385   0.794   8.143 -0.2122  0.3586  0.1273
   69CHL1  H23A 7572   5.328   0.843   8.062  1.5397 -1.6694 -2.4870
   69CHL1  H23B 7573   5.363   0.686   8.140 -0.4032  0.4019 -0.0143
   69CHL1   C24 7574   5.325   0.840   8.276 -0.4700 -0.4429  0.3661
   69CHL1  H24A 7575   5.377   0.780   8.354  2.3936 -0.5571 -1.4701
   69CHL1  H24B 7576   5.359   0.938   8.316 -1.0416 -0.8175  1.8602
   69CHL1   C25 7577   5.171   0.826   8.287 -0.6205 -0.6331  0.0219
   69CHL1   H25 7578   5.133   0.902   8.215 -1.8486 -2.1439 -0.9680
   69CHL1   C26 7579   5.134   0.680   8.261  0.6650 -0.0426  0.0828
   69CHL1  H26A 7580   5.179   0.612   8.336  1.2378  0.4502  0.2001
   69CHL1  H26B 7581   5.025   0.665   8.254  0.9201 -1.3474 -2.1185
   69CHL1  H26C 7582   5.163   0.652   8.157  0.1951 -0.4031  0.0479
   69CHL1   C27 7583   5.126   0.865   8.430 -0.1188 -0.0543 -0.2076
   69CHL1  H27A 7584   5.126   0.976   8.436  0.4567 -0.0236 -0.7117
   69CHL1  H27B 7585   5.022   0.829   8.449 -0.9094  0.2904 -3.2938
   69CHL1  H27C 7586   5.175   0.812   8.514  0.8509  1.5889  0.3118
   70CHL1    C3 7587   0.296   3.975   6.995  0.3367  0.5034 -0.0457
   70CHL1    H3 7588   0.373   3.920   6.936 -0.8577 -1.8238  0.4542
   70CHL1    O3 7589   0.241   4.071   6.908  0.2706  0.7864 -0.5997
   70CHL1   H3' 7590   0.313   4.127   6.879 -1.3710  2.0198 -2.4783
   70CHL1    C4 7591   0.191   3.874   7.043 -0.0667  0.2117 -0.0824
   70CHL1   H4A 7592   0.108   3.931   7.089 -0.3475 -1.0949  1.0831
   70CHL1   H4B 7593   0.157   3.808   6.960 -0.5754 -0.5022  0.6823
   70CHL1    C5 7594   0.239   3.786   7.157  0.3992  0.4520  0.2292
   70CHL1    C6 7595   0.227   3.655   7.148  0.0933 -0.1275  0.1098
   70CHL1    H6 7596   0.184   3.614   7.055 -0.4677  1.3098 -0.2962
   70CHL1    C7 7597   0.283   3.557   7.249  0.5051  0.0372  0.1721
   70CHL1   H7A 7598   0.221   3.467   7.271  1.5791 -0.3533  1.8312
   70CHL1   H7B 7599   0.380   3.528   7.203  1.1418 -0.7643  1.9333
   70CHL1    C8 7600   0.326   3.619   7.385  0.3128  0.3233  0.4807
   70CHL1    H8 7601   0.232   3.642   7.440  0.7983 -2.3070  2.6411
   70CHL1   C14 7602   0.414   3.529   7.463  0.0899  0.4606  0.6595
   70CHL1   H14 7603   0.508   3.527   7.403 -0.5496 -0.1277 -0.3494
   70CHL1   C15 7604   0.371   3.378   7.481 -0.4848  0.4087  0.5508
   70CHL1  H15A 7605   0.265   3.371   7.513 -0.7436 -1.0519 -0.5020
   70CHL1  H15B 7606   0.382   3.322   7.386  1.5868  0.5144  0.6945
   70CHL1   C16 7607   0.472   3.334   7.591 -0.2474 -0.4016 -0.3255
   70CHL1  H16A 7608   0.408   3.272   7.658 -0.6195 -0.3995 -0.6720
   70CHL1  H16B 7609   0.544   3.262   7.547  1.7087 -0.1893  2.2555
   70CHL1   C17 7610   0.540   3.469   7.649 -0.1415  0.6129 -0.0380
   70CHL1   H17 7611   0.642   3.465   7.605 -0.0804 -0.2804  0.1642
   70CHL1   C13 7612   0.450   3.580   7.599 -0.5786  0.2623 -0.3065
   70CHL1   C18 7613   0.329   3.601   7.700 -0.1344 -0.2389  0.2740
   70CHL1  H18A 7614   0.282   3.502   7.719  0.2202 -0.5590 -0.4886
   70CHL1  H18B 7615   0.381   3.646   7.787 -0.1243 -2.7191  1.6370
   70CHL1  H18C 7616   0.258   3.678   7.661  0.7375  1.2777  1.5493
   70CHL1   C12 7617   0.525   3.716   7.580 -0.1727  0.5020  0.2103
   70CHL1  H12A 7618   0.551   3.769   7.674 -2.9519  0.9466  0.8143
   70CHL1  H12B 7619   0.616   3.699   7.518 -1.7899  2.2287 -2.8447
   70CHL1   C11 7620   0.439   3.811   7.502  0.3595  0.6725  0.0399
   70CHL1  H11A 7621   0.354   3.827   7.572  0.3899  1.9616 -0.2021
   70CHL1  H11B 7622   0.505   3.897   7.482  0.0579  0.7864 -0.4909
   70CHL1    C9 7623   0.398   3.755   7.360  0.1255 -0.3482  0.6478
   70CHL1    H9 7624   0.497   3.733   7.315 -0.9618 -1.8016 -1.2099
   70CHL1   C10 7625   0.317   3.857   7.271  0.4171  0.1316  0.0170
   70CHL1   C19 7626   0.215   3.940   7.353 -0.0563  0.1894  0.1826
   70CHL1  H19A 7627   0.260   4.005   7.431 -2.0671  2.1984 -0.1957
   70CHL1  H19B 7628   0.151   4.000   7.285 -1.0284 -0.1163  0.8141
   70CHL1  H19C 7629   0.149   3.872   7.410  1.7895 -2.0384 -0.2154
   70CHL1    C1 7630   0.416   3.954   7.207 -0.6882  0.1004 -1.4212
   70CHL1   H1A 7631   0.456   4.018   7.288 -0.8791 -0.9059 -0.5050
   70CHL1   H1B 7632   0.497   3.894   7.160 -0.2763 -0.2742 -0.2496
   70CHL1    C2 7633   0.362   4.051   7.104 -0.1583 -0.2467 -0.1776
   70CHL1   H2A 7634   0.445   4.108   7.057  0.4307 -1.0580 -0.1387
   70CHL1   H2B 7635   0.301   4.125   7.160  3.7240  2.3196  1.0891
   70CHL1   C20 7636   0.575   3.458   7.800 -0.0308 -0.2631 -0.6287
   70CHL1   H20 7637   0.487   3.458   7.868  0.7441 -1.7107  0.4116
   70CHL1   C21 7638   0.667   3.580   7.835  0.3082  0.1468  0.5393
   70CHL1  H21A 7639   0.612   3.676   7.827 -1.0302 -0.7375 -2.4358
   70CHL1  H21B 7640   0.747   3.588   7.758 -1.7007 -1.0228 -1.8000
   70CHL1  H21C 7641   0.714   3.563   7.934  2.6232 -0.1003 -0.5149
   70CHL1   C22 7642   0.640   3.326   7.839 -1.0587 -0.2410  0.0945
   70CHL1  H22A 7643   0.591   3.242   7.786  2.3991 -1.5924 -1.2446
   70CHL1  H22B 7644   0.743   3.310   7.801 -1.1750 -2.0128  0.4401
   70CHL1   C23 7645   0.647   3.295   7.987  0.1061  0.1690  0.8512
   70CHL1  H23A 7646   0.719   3.366   8.032  1.4975  0.1950 -1.2742
   70CHL1  H23B 7647   0.547   3.313   8.031 -0.0714  0.5782  0.2926
   70CHL1   C24 7648   0.698   3.149   8.009  0.5492 -0.3695  0.3069
   70CHL1  H24A 7649   0.625   3.080   7.962 -0.8089 -0.4692  2.4195
   70CHL1  H24B 7650   0.790   3.137   7.948  0.3575  0.7754 -0.2357
   70CHL1   C25 7651   0.710   3.129   8.164  0.1442  0.0821 -0.1772
   70CHL1   H25 7652   0.767   3.212   8.211  0.9837 -1.7749  2.3117
   70CHL1   C26 7653   0.567   3.129   8.231 -0.7991 -0.6342 -0.0211
   70CHL1  H26A 7654   0.561   3.102   8.339 -0.0072 -0.2982  0.1097
   70CHL1  H26B 7655   0.531   3.234   8.223 -1.3156 -0.6378  1.8167
   70CHL1  H26C 7656   0.504   3.070   8.161 -1.9487  2.7997 -2.1417
   70CHL1   C27 7657   0.784   3.003   8.188 -0.5299 -0.0586  0.7006
   70CHL1  H27A 7658   0.723   2.920   8.147 -0.9785  1.4736 -1.9344
   70CHL1  H27B 7659   0.884   3.000   8.141 -0.0134 -1.7969  1.8026
   70CHL1  H27C 7660   0.816   2.990   8.294  0.8171 -1.5944  0.1277
   71CHL1    C3 7661   3.504   0.080   6.892  0.0839 -0.2754 -0.2617
   71CHL1    H3 7662   3.497  -0.015   6.949  1.2537 -0.3464 -0.2137
   71CHL1    O3 7663   3.491   0.055   6.747  0.3893  0.6252 -0.0710
   71CHL1   H3' 7664   3.504   0.137   6.700 -1.0763  1.3205  0.6754
   71CHL1    C4 7665   3.386   0.154   6.941 -0.5869  0.1832 -0.0788
   71CHL1   H4A 7666   3.391   0.253   6.891  0.7763  0.4535  0.5397
   71CHL1   H4B 7667   3.296   0.105   6.897 -0.1648  0.1502 -0.9326
   71CHL1    C5 7668   3.392   0.171   7.089 -0.8121  0.0557  0.7194
   71CHL1    C6 7669   3.289   0.115   7.166  0.3415  0.3926 -1.1236
   71CHL1    H6 7670   3.201   0.074   7.114  1.5913 -2.3460 -1.2365
   71CHL1    C7 7671   3.286   0.127   7.319  0.1073  0.3965 -0.6910
   71CHL1   H7A 7672   3.183   0.143   7.357 -0.3160 -1.7636 -0.8017
   71CHL1   H7B 7673   3.315   0.026   7.355 -0.1117 -0.2026 -2.1294
   71CHL1    C8 7674   3.385   0.234   7.370 -0.0877  0.0748 -0.7495
   71CHL1    H8 7675   3.345   0.332   7.337  1.6986  0.9951 -0.2781
   71CHL1   C14 7676   3.394   0.236   7.518 -0.4976  0.4241  0.6187
   71CHL1   H14 7677   3.428   0.134   7.544 -0.2961  0.2880 -0.1292
   71CHL1   C15 7678   3.261   0.258   7.594  0.0435  0.4819 -0.4333
   71CHL1  H15A 7679   3.201   0.344   7.557 -1.1017 -0.4810 -0.8595
   71CHL1  H15B 7680   3.201   0.166   7.580  1.4538 -0.5506 -0.0136
   71CHL1   C16 7681   3.315   0.279   7.740  0.4479 -0.5515 -0.5613
   71CHL1  H16A 7682   3.272   0.374   7.778  0.3803 -1.1231  0.8508
   71CHL1  H16B 7683   3.283   0.203   7.815 -0.2897  1.6994  1.5197
   71CHL1   C17 7684   3.467   0.299   7.728 -0.0383 -0.2770 -0.1605
   71CHL1   H17 7685   3.504   0.195   7.745  1.7607  0.3934  0.3051
   71CHL1   C13 7686   3.497   0.327   7.581 -0.4496  0.5221 -0.4235
   71CHL1   C18 7687   3.458   0.480   7.560 -0.7801  0.0831 -0.0929
   71CHL1  H18A 7688   3.361   0.494   7.614 -1.3003 -2.8581 -0.0784
   71CHL1  H18B 7689   3.528   0.548   7.614 -0.0836 -0.6496 -0.0555
   71CHL1  H18C 7690   3.441   0.514   7.456 -0.9928 -0.4633 -0.2434
   71CHL1   C12 7691   3.635   0.301   7.522  0.5580  0.3564 -0.0176
   71CHL1  H12A 7692   3.709   0.379   7.550  0.9214  0.6542 -1.7403
   71CHL1  H12B 7693   3.670   0.201   7.556 -0.2666 -0.9392 -2.7063
   71CHL1   C11 7694   3.640   0.302   7.372 -1.0708 -0.4840  0.2842
   71CHL1  H11A 7695   3.636   0.410   7.348  0.4742 -1.0892 -3.2758
   71CHL1  H11B 7696   3.743   0.268   7.347 -0.3183  1.9204 -0.0810
   71CHL1    C9 7697   3.526   0.222   7.311  0.6754  0.1287 -0.1292
   71CHL1    H9 7698   3.559   0.117   7.328  0.4679 -0.3607 -2.3855
   71CHL1   C10 7699   3.515   0.238   7.155 -0.3685  0.0160 -0.2823
   71CHL1   C19 7700   3.518   0.383   7.113  0.5572 -0.3421  0.2828
   71CHL1  H19A 7701   3.610   0.438   7.140  0.4519  0.3833 -0.7868
   71CHL1  H19B 7702   3.515   0.383   7.002  2.7284  1.1869  0.1460
   71CHL1  H19C 7703   3.435   0.447   7.147  0.7020 -1.1840  2.3553
   71CHL1    C1 7704   3.635   0.166   7.088 -0.4267 -0.5096  0.5959
   71CHL1   H1A 7705   3.730   0.220   7.109  0.3922 -1.1732 -1.1699
   71CHL1   H1B 7706   3.652   0.062   7.124  0.2427 -0.6265 -0.0383
   71CHL1    C2 7707   3.636   0.147   6.931 -0.6924 -0.4866  0.1603
   71CHL1   H2A 7708   3.723   0.085   6.901 -0.0112 -0.7245  2.4152
   71CHL1   H2B 7709   3.648   0.251   6.895  2.0323 -0.1409  1.7181
   71CHL1   C20 7710   3.537   0.379   7.841 -0.2556 -0.9952 -0.6740
   71CHL1   H20 7711   3.469   0.465   7.858 -1.4404 -2.4218  2.5278
   71CHL1   C21 7712   3.680   0.416   7.808 -0.4952 -0.1732  0.7124
   71CHL1  H21A 7713   3.697   0.479   7.718 -2.5968  1.1627  1.1731
   71CHL1  H21B 7714   3.723   0.316   7.785  1.1949  0.7474 -0.3421
   71CHL1  H21C 7715   3.745   0.449   7.892 -0.4551  0.0716  0.5842
   71CHL1   C22 7716   3.545   0.306   7.979  0.8615  0.7863  0.6568
   71CHL1  H22A 7717   3.581   0.389   8.045 -1.2031  2.2124  0.0959
   71CHL1  H22B 7718   3.439   0.283   8.004 -0.7098  5.0005 -1.1481
   71CHL1   C23 7719   3.635   0.178   7.994  0.0246 -0.1774 -0.3457
   71CHL1  H23A 7720   3.593   0.098   7.930 -2.1954  0.0632  0.7210
   71CHL1  H23B 7721   3.743   0.202   7.981  0.1791 -1.6553 -2.2551
   71CHL1   C24 7722   3.606   0.116   8.139 -0.4225  0.1079 -0.6758
   71CHL1  H24A 7723   3.500   0.086   8.150 -0.5472 -0.6891 -3.2830
   71CHL1  H24B 7724   3.657   0.017   8.132  0.2603  0.0453  3.1137
   71CHL1   C25 7725   3.665   0.192   8.256 -0.0226  0.2605  0.7274
   71CHL1   H25 7726   3.621   0.293   8.242  0.8406  0.5358 -0.0824
   71CHL1   C26 7727   3.609   0.144   8.388  0.1683  0.0043  0.2815
   71CHL1  H26A 7728   3.643   0.203   8.476 -0.3802  0.1733  0.3876
   71CHL1  H26B 7729   3.499   0.147   8.375  0.4093  0.8816 -2.1739
   71CHL1  H26C 7730   3.633   0.038   8.413 -1.2769 -0.7867 -1.3819
   71CHL1   C27 7731   3.819   0.205   8.252  0.1460  0.0458  0.2286
   71CHL1  H27A 7732   3.859   0.268   8.334 -0.2558  0.3503  0.1950
   71CHL1  H27B 7733   3.865   0.105   8.240  0.5775  0.1814  0.7080
   71CHL1  H27C 7734   3.834   0.272   8.165 -0.5503 -0.1643 -0.0598
   72CHL1    C3 7735   3.019   2.897   6.856  0.1003  0.1781 -0.0818
   72CHL1    H3 7736   2.937   2.835   6.898  2.0508 -1.6215  1.2198
   72CHL1    O3 7737   2.982   2.948   6.727 -0.3380  0.0534  0.3712
   72CHL1   H3' 7738   3.044   3.020   6.711  0.5153 -1.0961 -1.9003
   72CHL1    C4 7739   3.037   3.013   6.948 -0.7380  0.2275  0.2097
   72CHL1   H4A 7740   3.124   3.078   6.924  0.3663 -1.4121 -0.4595
   72CHL1   H4B 7741   2.946   3.077   6.943 -1.0614 -0.3158 -1.3680
   72CHL1    C5 7742   3.066   2.969   7.083  0.7415  0.8548 -0.3716
   72CHL1    C6 7743   2.986   3.000   7.184  0.6959 -0.2179 -0.1260
   72CHL1    H6 7744   2.910   3.077   7.164  1.0164 -0.2640 -1.5980
   72CHL1    C7 7745   3.014   2.955   7.323  0.3246  0.4655  0.1619
   72CHL1   H7A 7746   3.015   3.039   7.396  0.9910  0.5009  0.1177
   72CHL1   H7B 7747   2.948   2.868   7.343  0.8265  0.2050  0.7221
   72CHL1    C8 7748   3.153   2.890   7.343 -0.9965  0.3388  0.1222
   72CHL1    H8 7749   3.220   2.979   7.339 -0.6594  0.1183  0.6786
   72CHL1   C14 7750   3.162   2.817   7.473  0.2862 -0.0348 -0.6240
   72CHL1   H14 7751   3.096   2.727   7.476  0.2647 -0.0716 -1.6909
   72CHL1   C15 7752   3.111   2.899   7.596  0.8317  0.0782  0.1051
   72CHL1  H15A 7753   3.142   3.004   7.577 -1.0651  0.9126  1.3795
   72CHL1  H15B 7754   3.001   2.889   7.600  0.6472  1.7748 -0.2270
   72CHL1   C16 7755   3.180   2.826   7.716 -0.7137 -0.1098 -0.0302
   72CHL1  H16A 7756   3.248   2.897   7.768  1.3522 -1.3506 -0.9374
   72CHL1  H16B 7757   3.111   2.779   7.789  0.7283  0.2541  1.6361
   72CHL1   C17 7758   3.260   2.706   7.657  0.0303  0.1316 -0.3755
   72CHL1   H17 7759   3.195   2.620   7.632 -1.1235  0.8028  0.2351
   72CHL1   C13 7760   3.298   2.748   7.511  0.6677 -0.0789  0.2925
   72CHL1   C18 7761   3.414   2.854   7.519 -0.3016 -0.5251 -0.4605
   72CHL1  H18A 7762   3.440   2.913   7.429 -0.7169  2.3704  1.1974
   72CHL1  H18B 7763   3.386   2.919   7.604 -0.3694  2.8731 -2.8800
   72CHL1  H18C 7764   3.499   2.793   7.555 -1.8167 -2.8452 -0.5495
   72CHL1   C12 7765   3.320   2.643   7.394 -0.2032 -0.2283 -0.3214
   72CHL1  H12A 7766   3.424   2.608   7.414  1.0000  3.1600  0.1055
   72CHL1  H12B 7767   3.243   2.564   7.385 -0.4372 -0.4494  2.5945
   72CHL1   C11 7768   3.325   2.719   7.256 -0.3077  0.0536 -0.6594
   72CHL1  H11A 7769   3.399   2.801   7.248 -1.1224  0.7756 -1.0139
   72CHL1  H11B 7770   3.351   2.646   7.178  0.1752 -0.5865  0.0857
   72CHL1    C9 7771   3.192   2.797   7.223  0.4543 -0.0985 -0.4688
   72CHL1    H9 7772   3.108   2.724   7.229  0.1062  0.4341  2.3116
   72CHL1   C10 7773   3.188   2.868   7.087  0.0028 -0.3996  0.5527
   72CHL1   C19 7774   3.319   2.953   7.063  0.3796  0.7040  0.1233
   72CHL1  H19A 7775   3.351   3.014   7.151  2.3947 -0.1307  0.0324
   72CHL1  H19B 7776   3.406   2.888   7.040  0.0095  0.9694 -2.3053
   72CHL1  H19C 7777   3.303   3.014   6.971 -2.1814  3.0028  1.9303
   72CHL1    C1 7778   3.182   2.759   6.977  0.1118 -0.2736  0.4573
   72CHL1   H1A 7779   3.277   2.701   6.975  1.2961  1.6140 -1.3474
   72CHL1   H1B 7780   3.106   2.686   7.011  0.2999 -1.4637 -1.5287
   72CHL1    C2 7781   3.139   2.813   6.837 -0.3362 -0.2085 -0.0593
   72CHL1   H2A 7782   3.128   2.733   6.761  0.6709  1.4268 -2.0171
   72CHL1   H2B 7783   3.221   2.880   6.804  0.5751  0.5901  3.4178
   72CHL1   C20 7784   3.367   2.653   7.752  0.0537  0.3650 -0.0863
   72CHL1   H20 7785   3.453   2.723   7.757 -1.7693  2.7538 -0.4272
   72CHL1   C21 7786   3.423   2.517   7.699 -0.2705 -0.9983 -0.2550
   72CHL1  H21A 7787   3.343   2.440   7.696 -2.5704  1.2468 -3.2727
   72CHL1  H21B 7788   3.512   2.475   7.750 -0.1680 -1.6660 -0.9739
   72CHL1  H21C 7789   3.463   2.540   7.599  1.6356  2.7218  1.1684
   72CHL1   C22 7790   3.313   2.630   7.895 -1.1745  1.3619 -0.4527
   72CHL1  H22A 7791   3.245   2.704   7.943 -2.7008 -0.1648 -0.1849
   72CHL1  H22B 7792   3.256   2.535   7.896 -1.6938  1.5993  2.3648
   72CHL1   C23 7793   3.431   2.610   7.987 -0.2358  0.2004 -0.9435
   72CHL1  H23A 7794   3.487   2.521   7.953  2.2380  0.3995  2.2248
   72CHL1  H23B 7795   3.499   2.698   7.994  0.5907 -0.5446  1.7683
   72CHL1   C24 7796   3.388   2.565   8.125  0.7072  0.2267  0.2306
   72CHL1  H24A 7797   3.328   2.645   8.175  2.3646  0.6849  1.5828
   72CHL1  H24B 7798   3.328   2.472   8.119  0.5170  0.4247 -1.3562
   72CHL1   C25 7799   3.503   2.534   8.226  0.1265  0.2058 -0.4924
   72CHL1   H25 7800   3.565   2.626   8.231 -0.3564  0.4813  1.0667
   72CHL1   C26 7801   3.455   2.501   8.368  0.4533  0.4331  0.2578
   72CHL1  H26A 7802   3.399   2.591   8.399 -1.4466  0.1233 -1.9637
   72CHL1  H26B 7803   3.403   2.403   8.373 -1.2737  1.2419 -1.0411
   72CHL1  H26C 7804   3.544   2.495   8.434  1.2963  0.2458 -0.8523
   72CHL1   C27 7805   3.600   2.417   8.185 -0.1831 -0.1645 -0.0499
   72CHL1  H27A 7806   3.672   2.442   8.105  0.7088 -1.0212  0.4736
   72CHL1  H27B 7807   3.661   2.395   8.276 -2.2801  1.5508  1.9106
   72CHL1  H27C 7808   3.541   2.327   8.157  0.2413  0.0855 -1.8459
   73CHL1    C3 7809   3.449   6.408   7.017 -0.3712 -0.3952 -0.1173
   73CHL1    H3 7810   3.360   6.472   7.000 -1.2070 -1.5002 -0.0105
   73CHL1    O3 7811   3.494   6.373   6.887 -0.5967 -0.1260 -0.3564
   73CHL1   H3' 7812   3.462   6.447   6.835  1.9602 -0.3660 -2.5134
   73CHL1    C4 7813   3.566   6.483   7.087 -0.0923 -0.5314 -0.3505
   73CHL1   H4A 7814   3.667   6.445   7.061 -0.8611 -4.1262  1.2761
   73CHL1   H4B 7815   3.554   6.584   7.043 -3.1831  0.1379  1.6752
   73CHL1    C5 7816   3.561   6.497   7.241 -0.2533 -0.7134  0.1666
   73CHL1    C6 7817   3.594   6.614   7.297 -0.3449  0.4013  0.3812
   73CHL1    H6 7818   3.629   6.698   7.235 -2.9548  2.4451  1.4796
   73CHL1    C7 7819   3.578   6.643   7.441  0.0791 -0.5906 -0.7412
   73CHL1   H7A 7820   3.672   6.686   7.483  0.0947 -0.0345 -1.3322
   73CHL1   H7B 7821   3.501   6.723   7.449  2.1954  1.5934 -0.9678
   73CHL1    C8 7822   3.546   6.511   7.526 -0.2798  0.5004 -0.2572
   73CHL1    H8 7823   3.644   6.468   7.555  0.3580 -0.3543 -3.3498
   73CHL1   C14 7824   3.480   6.558   7.660  0.1331  0.5367  0.6112
   73CHL1   H14 7825   3.384   6.608   7.637  1.1480  2.3180  0.0146
   73CHL1   C15 7826   3.565   6.660   7.739 -0.0173 -0.1138  0.1504
   73CHL1  H15A 7827   3.670   6.625   7.742 -0.3365 -1.1438 -0.1499
   73CHL1  H15B 7828   3.560   6.762   7.695 -2.1766 -0.9546 -1.8057
   73CHL1   C16 7829   3.513   6.640   7.889 -0.1679  0.1306 -0.1931
   73CHL1  H16A 7830   3.589   6.627   7.969  0.8335 -1.0655 -1.2897
   73CHL1  H16B 7831   3.453   6.729   7.916 -1.6172 -0.9254  0.2158
   73CHL1   C17 7832   3.414   6.521   7.885 -1.0628  0.4089  0.4536
   73CHL1   H17 7833   3.319   6.570   7.856 -0.3708  2.3853  1.3675
   73CHL1   C13 7834   3.453   6.441   7.757  0.1003 -0.2011  0.2206
   73CHL1   C18 7835   3.582   6.367   7.797  0.2888  0.3697 -0.0748
   73CHL1  H18A 7836   3.660   6.425   7.850  2.4839 -2.2004 -0.2948
   73CHL1  H18B 7837   3.562   6.285   7.869  1.2063 -0.2376 -0.4974
   73CHL1  H18C 7838   3.624   6.314   7.709 -0.0361 -1.1011  0.6290
   73CHL1   C12 7839   3.351   6.350   7.685 -0.1863 -0.4382  0.8189
   73CHL1  H12A 7840   3.335   6.252   7.734  0.1276 -1.1917 -0.5482
   73CHL1  H12B 7841   3.258   6.407   7.664 -0.8304 -1.6711  0.2597
   73CHL1   C11 7842   3.401   6.303   7.544 -0.6388  0.3829  0.0430
   73CHL1  H11A 7843   3.488   6.238   7.565 -0.0699  0.9207 -0.6001
   73CHL1  H11B 7844   3.323   6.244   7.492  0.8495 -2.2168  0.6045
   73CHL1    C9 7845   3.457   6.416   7.454  0.2333 -0.0423 -0.2135
   73CHL1    H9 7846   3.368   6.477   7.428  1.0570  1.0215 -0.6030
   73CHL1   C10 7847   3.507   6.377   7.316  0.6732 -0.4228 -0.0961
   73CHL1   C19 7848   3.624   6.281   7.328  0.0391 -0.3392  0.0979
   73CHL1  H19A 7849   3.588   6.188   7.375 -1.4364  0.6392  0.9972
   73CHL1  H19B 7850   3.679   6.261   7.233 -0.7445  3.2769 -1.3103
   73CHL1  H19C 7851   3.705   6.329   7.387 -0.3671  2.6366 -1.5226
   73CHL1    C1 7852   3.389   6.314   7.237 -0.5793  0.5230  0.4929
   73CHL1   H1A 7853   3.357   6.217   7.279  1.7440 -1.0178 -1.0943
   73CHL1   H1B 7854   3.306   6.388   7.244 -3.1471 -2.1178 -0.0110
   73CHL1    C2 7855   3.419   6.282   7.094  0.1115  0.2554  0.4070
   73CHL1   H2A 7856   3.329   6.247   7.038  0.6090 -0.5318  0.0725
   73CHL1   H2B 7857   3.504   6.211   7.090 -0.9099 -1.0136  0.6750
   73CHL1   C20 7858   3.405   6.446   8.012  0.5204  0.4659 -0.2225
   73CHL1   H20 7859   3.501   6.395   8.031  1.6669  1.8148 -2.0358
   73CHL1   C21 7860   3.293   6.342   8.012  0.5710 -0.3896 -0.0678
   73CHL1  H21A 7861   3.202   6.396   7.979  0.8824  0.4610  0.4573
   73CHL1  H21B 7862   3.273   6.297   8.111 -1.0190  0.3066 -0.0391
   73CHL1  H21C 7863   3.309   6.258   7.941 -1.4045  0.1074 -1.1850
   73CHL1   C22 7864   3.384   6.543   8.136  0.4751  0.4139 -0.1610
   73CHL1  H22A 7865   3.436   6.641   8.138 -0.6825  1.0396  0.5559
   73CHL1  H22B 7866   3.278   6.578   8.140  0.5643  0.8628 -1.2596
   73CHL1   C23 7867   3.401   6.477   8.275 -0.2934 -0.1579 -0.6565
   73CHL1  H23A 7868   3.302   6.481   8.326 -0.3998 -3.7732 -0.3217
   73CHL1  H23B 7869   3.422   6.368   8.272  0.5209 -0.0628  0.9264
   73CHL1   C24 7870   3.494   6.557   8.364  0.0855 -0.2472 -0.5991
   73CHL1  H24A 7871   3.592   6.563   8.312 -0.0558 -0.7886 -0.9347
   73CHL1  H24B 7872   3.453   6.660   8.369 -1.9525 -1.0784  1.7096
   73CHL1   C25 7873   3.517   6.507   8.509  1.1369 -0.6738 -0.2131
   73CHL1   H25 7874   3.588   6.424   8.530  1.9697  0.1675  0.4470
   73CHL1   C26 7875   3.570   6.626   8.590 -0.3269 -0.0013 -0.0805
   73CHL1  H26A 7876   3.496   6.709   8.586  1.3117  1.4813 -1.0663
   73CHL1  H26B 7877   3.581   6.595   8.696 -0.6035  4.2213  1.3795
   73CHL1  H26C 7878   3.666   6.666   8.552 -0.1129  1.1870  1.6173
   73CHL1   C27 7879   3.382   6.459   8.576 -0.5489  0.2664  0.5628
   73CHL1  H27A 7880   3.310   6.544   8.579 -1.8095 -0.7282 -0.2564
   73CHL1  H27B 7881   3.333   6.383   8.512 -3.2856  2.0769  0.3094
   73CHL1  H27C 7882   3.397   6.426   8.681  0.9442  0.4467  0.4304
   74CHL1    C3 7883   2.726   3.964   6.927 -0.7465 -0.1794 -0.6547
   74CHL1    H3 7884   2.761   4.066   6.951  0.9312 -0.4549 -1.7967
   74CHL1    O3 7885   2.729   3.937   6.786 -0.0066  0.1885  0.3805
   74CHL1   H3' 7886   2.677   3.857   6.782  2.6912 -1.7001 -3.1778
   74CHL1    C4 7887   2.806   3.845   7.007 -0.4708 -0.6177  0.2839
   74CHL1   H4A 7888   2.767   3.752   6.961 -2.2154  0.2915 -0.2222
   74CHL1   H4B 7889   2.912   3.853   6.977 -0.8232  2.0417 -0.5763
   74CHL1    C5 7890   2.791   3.851   7.154  0.0779 -0.1896 -0.6146
   74CHL1    C6 7891   2.899   3.855   7.239 -0.4074 -0.1137 -0.7356
   74CHL1    H6 7892   3.000   3.852   7.196  0.1009  1.4656  0.2672
   74CHL1    C7 7893   2.895   3.846   7.383 -0.6436 -0.9090  0.3348
   74CHL1   H7A 7894   2.973   3.776   7.419  0.7909  1.0056  1.1746
   74CHL1   H7B 7895   2.914   3.944   7.433 -1.7221  0.4770 -1.8076
   74CHL1    C8 7896   2.753   3.800   7.429  0.2002  0.0450 -0.5884
   74CHL1    H8 7897   2.753   3.690   7.416 -1.3039 -0.0247 -0.1635
   74CHL1   C14 7898   2.737   3.832   7.582 -0.2075  0.2620  0.5238
   74CHL1   H14 7899   2.748   3.942   7.589  1.7410  0.0662  0.9865
   74CHL1   C15 7900   2.841   3.776   7.682 -0.5056  0.3961 -0.1442
   74CHL1  H15A 7901   2.857   3.671   7.649 -2.5874  0.6492 -2.2624
   74CHL1  H15B 7902   2.940   3.827   7.684 -0.1024 -0.3207 -0.9573
   74CHL1   C16 7903   2.763   3.777   7.817  0.8903  0.7327 -0.6673
   74CHL1  H16A 7904   2.762   3.677   7.866 -2.9368 -0.1562 -2.2308
   74CHL1  H16B 7905   2.813   3.838   7.896  0.6311 -1.3002  1.1787
   74CHL1   C17 7906   2.617   3.818   7.796  0.3117 -0.7008  1.2135
   74CHL1   H17 7907   2.618   3.929   7.793  0.4237 -0.7153  0.4892
   74CHL1   C13 7908   2.599   3.791   7.642  0.7370 -0.4742 -0.1403
   74CHL1   C18 7909   2.584   3.635   7.641 -0.2965 -0.6025 -0.5968
   74CHL1  H18A 7910   2.508   3.589   7.707 -1.0752  1.8323  0.3207
   74CHL1  H18B 7911   2.543   3.603   7.543 -3.0304 -0.3062  0.3719
   74CHL1  H18C 7912   2.684   3.588   7.653  0.8949  2.1120  1.1212
   74CHL1   C12 7913   2.488   3.864   7.567  0.7122 -0.5401  1.0305
   74CHL1  H12A 7914   2.394   3.817   7.604  1.1258 -0.8119  1.7428
   74CHL1  H12B 7915   2.474   3.971   7.596 -2.1760 -0.7553  0.7267
   74CHL1   C11 7916   2.500   3.845   7.411  0.3418  0.2400  0.0566
   74CHL1  H11A 7917   2.464   3.741   7.392  1.0173  0.2136 -1.1471
   74CHL1  H11B 7918   2.423   3.908   7.362 -1.2838 -2.6102 -1.3234
   74CHL1    C9 7919   2.642   3.871   7.353  0.0746  0.1636 -0.4016
   74CHL1    H9 7920   2.654   3.980   7.374 -0.9838 -0.3558  3.6787
   74CHL1   C10 7921   2.645   3.854   7.202 -0.2504  0.2146 -0.0495
   74CHL1   C19 7922   2.585   3.710   7.166  0.2342 -0.1079 -0.8415
   74CHL1  H19A 7923   2.482   3.695   7.206  0.4170  0.7449 -0.0150
   74CHL1  H19B 7924   2.590   3.696   7.056 -1.2651  0.9324 -1.0786
   74CHL1  H19C 7925   2.645   3.633   7.219  1.4021  1.0593 -0.4262
   74CHL1    C1 7926   2.575   3.970   7.131  0.0388  0.7133 -0.0742
   74CHL1   H1A 7927   2.467   3.974   7.160 -0.3059  1.0186 -1.3291
   74CHL1   H1B 7928   2.618   4.068   7.160 -1.1925  1.7874 -1.6770
   74CHL1    C2 7929   2.581   3.960   6.976  1.1978 -0.2553  0.2032
   74CHL1   H2A 7930   2.517   4.043   6.938 -0.9566 -1.5669  0.7711
   74CHL1   H2B 7931   2.535   3.866   6.937  1.4185 -1.0224  1.7285
   74CHL1   C20 7932   2.518   3.760   7.896 -0.2144 -0.2067 -0.4560
   74CHL1   H20 7933   2.511   3.650   7.884  1.7905 -0.3305 -0.8427
   74CHL1   C21 7934   2.381   3.815   7.877  0.3048  0.2183 -0.2307
   74CHL1  H21A 7935   2.384   3.920   7.841  1.0818 -0.4050 -2.1091
   74CHL1  H21B 7936   2.313   3.817   7.965 -1.3153  0.7196 -1.4565
   74CHL1  H21C 7937   2.331   3.765   7.791 -1.5412  0.4158  0.6748
   74CHL1   C22 7938   2.558   3.798   8.041 -0.8136 -0.1960  0.1864
   74CHL1  H22A 7939   2.664   3.773   8.062  0.0368  1.4035 -1.8494
   74CHL1  H22B 7940   2.562   3.909   8.040 -1.1584 -0.1667 -2.0400
   74CHL1   C23 7941   2.482   3.757   8.165  0.4801  0.5656  0.4282
   74CHL1  H23A 7942   2.374   3.773   8.146 -0.2500 -2.9467  0.8424
   74CHL1  H23B 7943   2.494   3.648   8.183  0.3042  0.9738  3.6218
   74CHL1   C24 7944   2.525   3.836   8.290 -1.1023 -0.1840  0.0609
   74CHL1  H24A 7945   2.636   3.833   8.292 -0.9769  2.1303 -0.2455
   74CHL1  H24B 7946   2.508   3.942   8.260  0.7457  1.0904  2.9787
   74CHL1   C25 7947   2.468   3.800   8.422  0.0106 -0.6111 -0.7904
   74CHL1   H25 7948   2.357   3.793   8.421 -0.0170 -0.5484  0.5663
   74CHL1   C26 7949   2.517   3.659   8.471 -0.2402 -0.4957  0.8754
   74CHL1  H26A 7950   2.484   3.581   8.399  1.1200  0.4343 -0.8433
   74CHL1  H26B 7951   2.627   3.673   8.474 -0.1879 -0.5990 -0.1675
   74CHL1  H26C 7952   2.478   3.635   8.572  0.0518 -0.0152  1.1064
   74CHL1   C27 7953   2.501   3.911   8.526  0.1025  1.0418  0.1673
   74CHL1  H27A 7954   2.450   3.895   8.623  1.5767  0.3427  0.8564
   74CHL1  H27B 7955   2.609   3.920   8.552  0.9887 -1.7189 -2.0034
   74CHL1  H27C 7956   2.455   4.010   8.503 -3.1627  0.3817  3.0518
   75CHL1    C3 7957   4.400   0.140   7.036 -0.8838 -0.7813  0.1821
   75CHL1    H3 7958   4.323   0.063   7.058  0.2066 -1.2587  2.7243
   75CHL1    O3 7959   4.364   0.196   6.911 -0.8525 -0.5902  0.6706
   75CHL1   H3' 7960   4.312   0.129   6.865  0.1905 -0.3640 -0.8918
   75CHL1    C4 7961   4.390   0.242   7.142 -0.2863 -1.1976 -0.0737
   75CHL1   H4A 7962   4.457   0.328   7.119  0.1164 -1.0029  1.6784
   75CHL1   H4B 7963   4.284   0.275   7.153 -0.2699 -1.7330  2.1548
   75CHL1    C5 7964   4.432   0.184   7.273 -0.1824  0.2457  0.5622
   75CHL1    C6 7965   4.352   0.175   7.370 -0.0616  1.0120 -0.2174
   75CHL1    H6 7966   4.252   0.217   7.357 -1.5157 -1.7573  1.0984
   75CHL1    C7 7967   4.384   0.116   7.505 -0.4423 -0.7733 -0.1511
   75CHL1   H7A 7968   4.331   0.167   7.588  0.0334 -0.4758 -0.0238
   75CHL1   H7B 7969   4.354   0.009   7.511  0.1243 -0.9314 -0.0974
   75CHL1    C8 7970   4.535   0.121   7.536  0.3221 -0.3247 -0.0227
   75CHL1    H8 7971   4.560   0.228   7.550  0.7390 -0.1330 -1.8958
   75CHL1   C14 7972   4.575   0.033   7.657 -0.0266  0.1330 -0.6540
   75CHL1   H14 7973   4.545  -0.070   7.631 -1.1264  0.7440 -1.8766
   75CHL1   C15 7974   4.499   0.052   7.786 -0.0846 -0.0437 -0.3328
   75CHL1  H15A 7975   4.486   0.162   7.796  3.1201  0.3408  0.7234
   75CHL1  H15B 7976   4.400   0.003   7.774 -0.1186 -0.2005  0.5158
   75CHL1   C16 7977   4.591   0.004   7.899 -0.9574  0.5015 -0.0502
   75CHL1  H16A 7978   4.613   0.089   7.967  0.8561 -0.1758  0.2687
   75CHL1  H16B 7979   4.557  -0.075   7.970 -0.2524  1.6567  1.6526
   75CHL1   C17 7980   4.726  -0.043   7.836 -0.7943 -0.7888 -0.4811
   75CHL1   H17 7981   4.726  -0.152   7.814  0.2778 -1.1472  1.0861
   75CHL1   C13 7982   4.725   0.036   7.701  0.3402 -0.5638  0.6199
   75CHL1   C18 7983   4.762   0.183   7.727 -0.3766 -0.4136 -0.0326
   75CHL1  H18A 7984   4.867   0.194   7.762 -0.4014  3.1966 -0.7063
   75CHL1  H18B 7985   4.774   0.238   7.632 -1.6090  2.6043  1.4216
   75CHL1  H18C 7986   4.693   0.242   7.792 -1.0669  1.9810 -2.7514
   75CHL1   C12 7987   4.794  -0.027   7.572 -0.0580 -0.5722  0.1377
   75CHL1  H12A 7988   4.904  -0.015   7.578  0.0458  0.3263 -2.2915
   75CHL1  H12B 7989   4.775  -0.136   7.561  1.5720 -0.8962  0.2780
   75CHL1   C11 7990   4.757   0.046   7.442 -0.6724 -0.0550 -0.1031
   75CHL1  H11A 7991   4.793   0.151   7.446  1.7235 -0.7525 -1.6814
   75CHL1  H11B 7992   4.806  -0.004   7.356  0.4930 -0.0135  0.5182
   75CHL1    C9 7993   4.605   0.061   7.421 -0.2052 -0.1482  0.5598
   75CHL1    H9 7994   4.568  -0.043   7.410  0.4119 -0.1902 -1.4885
   75CHL1   C10 7995   4.575   0.129   7.283  0.3678  0.4859  0.2898
   75CHL1   C19 7996   4.669   0.255   7.267 -0.9650  0.2308  0.5071
   75CHL1  H19A 7997   4.771   0.225   7.237 -2.6513 -1.0409 -5.1503
   75CHL1  H19B 7998   4.638   0.324   7.185 -1.8052 -0.6428  0.0770
   75CHL1  H19C 7999   4.657   0.310   7.363 -0.0506 -0.5447  1.0864
   75CHL1    C1 8000   4.581   0.030   7.167 -0.2743 -0.1586  0.3624
   75CHL1   H1A 8001   4.681  -0.018   7.166  1.0152  2.3737  0.6098
   75CHL1   H1B 8002   4.503  -0.045   7.192 -1.7589  0.8536 -1.0900
   75CHL1    C2 8003   4.545   0.085   7.025 -0.1054 -0.4943 -0.1702
   75CHL1   H2A 8004   4.543   0.005   6.949  1.2841  0.5850 -1.3933
   75CHL1   H2B 8005   4.611   0.166   6.988  1.3095 -2.2074 -1.5646
   75CHL1   C20 8006   4.849  -0.008   7.925 -0.8151  0.6736  0.1489
   75CHL1   H20 8007   4.875   0.096   7.954  1.1421 -0.0214  1.1130
   75CHL1   C21 8008   4.976  -0.061   7.845 -0.2123 -0.0121  0.3189
   75CHL1  H21A 8009   5.067  -0.058   7.908 -1.0418  1.5177  1.5226
   75CHL1  H21B 8010   4.975   0.009   7.759 -1.1512 -2.2839 -1.6560
   75CHL1  H21C 8011   4.953  -0.166   7.817  0.1820 -0.4268  1.5206
   75CHL1   C22 8012   4.833  -0.079   8.076 -0.9669 -0.6199 -0.4894
   75CHL1  H22A 8013   4.737  -0.042   8.118 -1.0363  0.9704 -1.9276
   75CHL1  H22B 8014   4.830  -0.188   8.052  0.3280 -0.5154 -1.2086
   75CHL1   C23 8015   4.949  -0.030   8.166 -0.4436 -0.1457  0.1787
   75CHL1  H23A 8016   5.045  -0.074   8.130 -1.8508 -2.6108 -0.7340
   75CHL1  H23B 8017   4.968   0.079   8.173  0.5815 -0.3588  1.1799
   75CHL1   C24 8018   4.927  -0.071   8.311 -0.1802  0.2230 -0.2942
   75CHL1  H24A 8019   4.832  -0.018   8.334 -1.3753 -1.1735 -1.7510
   75CHL1  H24B 8020   4.907  -0.180   8.301 -1.2994  0.5409 -1.8512
   75CHL1   C25 8021   5.046  -0.039   8.410 -0.1062  0.9916 -0.0364
   75CHL1   H25 8022   5.084   0.060   8.378  1.4815  0.2634 -0.5225
   75CHL1   C26 8023   5.006  -0.040   8.553  0.6861  0.0083  0.2978
   75CHL1  H26A 8024   4.910   0.015   8.564  0.0582 -1.1174  0.6335
   75CHL1  H26B 8025   4.988  -0.145   8.587  0.4878 -0.2497 -0.5862
   75CHL1  H26C 8026   5.081   0.003   8.623  1.0029 -0.2583  0.1219
   75CHL1   C27 8027   5.159  -0.142   8.400  0.6711 -0.9751  0.1295
   75CHL1  H27A 8028   5.199  -0.140   8.297 -1.8951 -2.9620 -1.0122
   75CHL1  H27B 8029   5.238  -0.104   8.469  1.4637  0.2218 -1.3815
   75CHL1  H27C 8030   5.121  -0.239   8.438  3.1898 -2.1218 -0.0371
   76CHL1    C3 8031   2.364   5.922   7.103 -0.4936  0.3877  0.4641
   76CHL1    H3 8032   2.286   6.000   7.097 -1.2395 -0.3420  0.5898
   76CHL1    O3 8033   2.394   5.868   6.974 -0.1034  0.0845 -0.1339
   76CHL1   H3' 8034   2.386   5.944   6.916 -2.3461 -1.5150 -2.1248
   76CHL1    C4 8035   2.496   5.980   7.160 -0.5520  0.5259 -0.2907
   76CHL1   H4A 8036   2.566   5.894   7.161 -0.8713  0.1290  3.4875
   76CHL1   H4B 8037   2.535   6.061   7.095  1.7894  0.3088  0.7313
   76CHL1    C5 8038   2.472   6.018   7.308 -0.2359 -1.0928  0.4483
   76CHL1    C6 8039   2.494   6.149   7.341 -0.0857  0.4273  0.3403
   76CHL1    H6 8040   2.521   6.228   7.270 -0.8449  0.6920  0.3308
   76CHL1    C7 8041   2.481   6.189   7.485  0.0229 -0.5589  0.8770
   76CHL1   H7A 8042   2.557   6.268   7.505  0.6822  0.1734 -3.4657
   76CHL1   H7B 8043   2.386   6.242   7.508  0.2625  1.0271 -1.4524
   76CHL1    C8 8044   2.498   6.068   7.577  0.1164 -0.2306 -0.1008
   76CHL1    H8 8045   2.601   6.027   7.565  0.0137 -0.7936  0.7892
   76CHL1   C14 8046   2.477   6.119   7.721 -0.7399 -0.4775  0.5357
   76CHL1   H14 8047   2.370   6.149   7.725 -0.7196 -0.4667  3.5303
   76CHL1   C15 8048   2.559   6.244   7.761  0.0094 -0.1574 -0.3652
   76CHL1  H15A 8049   2.664   6.247   7.727  0.4535  0.3622  1.0028
   76CHL1  H15B 8050   2.497   6.324   7.716 -2.6352 -1.8728 -0.0159
   76CHL1   C16 8051   2.549   6.242   7.908  0.4668  0.0146 -0.1310
   76CHL1  H16A 8052   2.649   6.265   7.950 -0.1023  1.0701  0.7010
   76CHL1  H16B 8053   2.491   6.328   7.949  0.0361  0.6043 -1.8990
   76CHL1   C17 8054   2.476   6.107   7.949 -0.0644 -0.1846  0.1162
   76CHL1   H17 8055   2.367   6.131   7.954 -0.1963 -0.6107 -0.5752
   76CHL1   C13 8056   2.497   6.016   7.820  0.5015 -0.4589 -0.2945
   76CHL1   C18 8057   2.630   5.952   7.825  0.2574  0.2785  0.4979
   76CHL1  H18A 8058   2.656   5.912   7.725  1.0606 -2.6769  1.7596
   76CHL1  H18B 8059   2.706   6.027   7.855 -0.3228  1.6046 -1.2064
   76CHL1  H18C 8060   2.638   5.866   7.896  1.8811  1.0672  1.3467
   76CHL1   C12 8061   2.389   5.907   7.796 -0.0993  0.1185  0.0259
   76CHL1  H12A 8062   2.396   5.823   7.869  1.6312  0.6453  0.4987
   76CHL1  H12B 8063   2.294   5.965   7.809  0.1707  0.1994  1.9702
   76CHL1   C11 8064   2.393   5.853   7.656  0.1389  0.4710  0.3422
   76CHL1  H11A 8065   2.484   5.789   7.660  0.5045  0.7432 -2.1927
   76CHL1  H11B 8066   2.306   5.792   7.624  0.1972  0.0992  0.8689
   76CHL1    C9 8067   2.403   5.960   7.543 -0.0125 -0.5167 -0.2792
   76CHL1    H9 8068   2.302   6.007   7.541 -0.7831 -2.0781 -0.0312
   76CHL1   C10 8069   2.422   5.912   7.398 -0.2012  0.0684  0.0169
   76CHL1   C19 8070   2.528   5.791   7.402  0.0574 -0.4685 -0.6416
   76CHL1  H19A 8071   2.613   5.817   7.468 -0.4675  0.9695 -0.5019
   76CHL1  H19B 8072   2.480   5.707   7.457 -0.9284  1.1811  1.1221
   76CHL1  H19C 8073   2.580   5.758   7.309 -0.6590 -0.7857 -0.9389
   76CHL1    C1 8074   2.292   5.864   7.332  0.3528 -0.2190 -0.0121
   76CHL1   H1A 8075   2.252   5.776   7.387  0.4685 -0.7264 -0.7270
   76CHL1   H1B 8076   2.209   5.938   7.324 -0.3226 -1.1876 -3.2761
   76CHL1    C2 8077   2.313   5.812   7.188 -0.6059  0.0812 -0.8432
   76CHL1   H2A 8078   2.218   5.769   7.150 -1.3151  1.1455 -0.3282
   76CHL1   H2B 8079   2.376   5.721   7.197  0.8003  0.6095 -3.7859
   76CHL1   C20 8080   2.517   6.064   8.091 -0.2502 -0.0546  0.9701
   76CHL1   H20 8081   2.626   6.040   8.097 -0.9023 -3.3413  1.8626
   76CHL1   C21 8082   2.435   5.940   8.124 -0.6348 -0.6364 -0.8805
   76CHL1  H21A 8083   2.465   5.860   8.053  0.2935  0.0693 -1.3158
   76CHL1  H21B 8084   2.329   5.970   8.121 -0.3392  0.8786  1.3432
   76CHL1  H21C 8085   2.463   5.896   8.222  0.8964  0.9842 -0.5207
   76CHL1   C22 8086   2.513   6.177   8.198 -0.5469  0.0668  0.0350
   76CHL1  H22A 8087   2.590   6.253   8.176  1.3693 -1.8795 -0.3185
   76CHL1  H22B 8088   2.420   6.237   8.187 -0.6408 -0.4714 -2.8567
   76CHL1   C23 8089   2.526   6.131   8.342 -0.1168 -0.6633 -0.0588
   76CHL1  H23A 8090   2.437   6.068   8.362 -0.9419  0.7041  0.7640
   76CHL1  H23B 8091   2.617   6.067   8.352  0.4464  0.3491  1.7102
   76CHL1   C24 8092   2.530   6.241   8.447  0.1791 -0.0817  0.1925
   76CHL1  H24A 8093   2.588   6.327   8.405 -1.7410  1.4427  0.5031
   76CHL1  H24B 8094   2.428   6.284   8.435  0.2676  0.2869  0.7485
   76CHL1   C25 8095   2.548   6.204   8.593 -0.1992  0.8568 -0.2573
   76CHL1   H25 8096   2.637   6.138   8.600 -1.1389 -0.4955 -0.7808
   76CHL1   C26 8097   2.563   6.334   8.671 -0.5757  0.8763 -1.1820
   76CHL1  H26A 8098   2.599   6.288   8.765  1.4631  1.9037 -1.3964
   76CHL1  H26B 8099   2.636   6.406   8.628  0.9469  0.3559  0.4094
   76CHL1  H26C 8100   2.467   6.388   8.681 -0.2566  1.0251  2.2204
   76CHL1   C27 8101   2.432   6.126   8.648  0.5481 -0.3358 -0.3690
   76CHL1  H27A 8102   2.340   6.188   8.651  0.4289 -0.5380  0.2464
   76CHL1  H27B 8103   2.407   6.040   8.582  1.1079 -0.6742 -0.1488
   76CHL1  H27C 8104   2.456   6.085   8.748  1.1328  0.2804 -0.2475
   77CHL1    C3 8105   3.991   5.814   6.711 -0.6303  0.1643  0.2100
   77CHL1    H3 8106   3.882   5.817   6.727 -0.6438 -0.5129  0.2705
   77CHL1    O3 8107   4.025   5.800   6.577 -0.2975 -0.0103 -0.2387
   77CHL1   H3' 8108   3.942   5.827   6.538  0.0795  0.4473 -0.7373
   77CHL1    C4 8109   4.048   5.953   6.741  0.1753 -0.4289 -0.2441
   77CHL1   H4A 8110   4.155   5.965   6.714  0.8783  1.0136  2.7188
   77CHL1   H4B 8111   4.002   6.030   6.675 -1.2066  1.3150  2.5740
   77CHL1    C5 8112   4.042   6.005   6.885 -0.2822  0.1818 -0.1737
   77CHL1    C6 8113   3.985   6.123   6.911  0.5486 -0.6198 -0.4877
   77CHL1    H6 8114   3.948   6.202   6.844  0.0562 -0.5841 -0.1780
   77CHL1    C7 8115   3.969   6.177   7.053 -0.7446 -0.8180  0.2472
   77CHL1   H7A 8116   3.986   6.286   7.065  2.8153 -0.9925 -1.7999
   77CHL1   H7B 8117   3.867   6.157   7.092 -0.3001  0.2368  2.0922
   77CHL1    C8 8118   4.064   6.094   7.153 -0.8074 -0.2348  0.1307
   77CHL1    H8 8119   4.166   6.131   7.131 -1.3484  1.7627  0.7757
   77CHL1   C14 8120   4.020   6.133   7.297 -0.3873 -0.1782  0.0604
   77CHL1   H14 8121   3.915   6.099   7.309 -0.0617 -0.7811  1.4337
   77CHL1   C15 8122   4.008   6.283   7.334 -0.6146  0.0637  0.1870
   77CHL1  H15A 8123   4.089   6.353   7.305  0.4166 -1.4404 -0.6713
   77CHL1  H15B 8124   3.911   6.324   7.297 -0.6948 -0.1163  0.1941
   77CHL1   C16 8125   4.004   6.286   7.486  0.4940  0.5102 -0.2310
   77CHL1  H16A 8126   4.084   6.348   7.534  0.9750 -1.9275  2.4027
   77CHL1  H16B 8127   3.917   6.335   7.534 -0.2196 -0.2153 -0.7582
   77CHL1   C17 8128   4.025   6.137   7.531 -0.4380  0.2721  0.0620
   77CHL1   H17 8129   3.920   6.101   7.527  0.0972 -1.2229 -1.4743
   77CHL1   C13 8130   4.096   6.064   7.412  0.5943 -0.1220 -0.5086
   77CHL1   C18 8131   4.246   6.091   7.418 -0.1594  0.6167  0.5312
   77CHL1  H18A 8132   4.268   6.189   7.465  0.3738  0.8828 -0.2520
   77CHL1  H18B 8133   4.300   6.009   7.468  0.7423 -1.0825 -2.8824
   77CHL1  H18C 8134   4.287   6.092   7.315  0.2814 -3.4521  0.4957
   77CHL1   C12 8135   4.069   5.912   7.392 -0.2180  0.1298 -0.1246
   77CHL1  H12A 8136   4.120   5.856   7.473 -1.3044  1.3876  1.4809
   77CHL1  H12B 8137   3.963   5.880   7.392  0.1912 -1.3232 -1.0603
   77CHL1   C11 8138   4.120   5.868   7.251  0.1611  0.6541  0.3342
   77CHL1  H11A 8139   4.228   5.896   7.251  0.1110  0.8641 -0.2488
   77CHL1  H11B 8140   4.100   5.761   7.229 -0.5594  1.1553 -1.6460
   77CHL1    C9 8141   4.045   5.947   7.134  0.6660 -0.3229  0.9947
   77CHL1    H9 8142   3.937   5.923   7.139  0.6776 -0.8321 -0.8600
   77CHL1   C10 8143   4.084   5.908   6.991  0.0890 -0.1434  0.2588
   77CHL1   C19 8144   4.245   5.902   6.987  0.5735 -0.0008  0.5748
   77CHL1  H19A 8145   4.286   5.999   7.021  1.7431  0.8089 -2.7336
   77CHL1  H19B 8146   4.281   5.817   7.049 -0.9858 -0.8370  0.4013
   77CHL1  H19C 8147   4.291   5.890   6.886  0.5908  0.1731  0.5622
   77CHL1    C1 8148   4.033   5.768   6.966  0.7824 -0.9381  0.0265
   77CHL1   H1A 8149   4.077   5.689   7.031 -1.0340 -0.2258  2.2692
   77CHL1   H1B 8150   3.924   5.767   6.987  0.9964  2.0522  1.9492
   77CHL1    C2 8151   4.054   5.720   6.819  0.4299 -0.1048 -0.4857
   77CHL1   H2A 8152   4.029   5.613   6.801  4.9979 -1.1836 -2.1009
   77CHL1   H2B 8153   4.164   5.712   6.803  0.9919  3.5464  0.5211
   77CHL1   C20 8154   4.076   6.122   7.675 -0.1013  0.4323  0.2967
   77CHL1   H20 8155   4.185   6.143   7.679 -0.1163  0.3423  1.5089
   77CHL1   C21 8156   4.060   5.978   7.721 -0.6125  0.9565 -0.2408
   77CHL1  H21A 8157   4.094   5.964   7.826 -0.1204  0.0607 -0.5063
   77CHL1  H21B 8158   4.113   5.903   7.658 -1.3618  0.5393 -0.3978
   77CHL1  H21C 8159   3.953   5.945   7.723  0.3252 -2.6433  2.1602
   77CHL1   C22 8160   4.005   6.225   7.772 -0.6215 -0.1682 -0.1448
   77CHL1  H22A 8161   4.031   6.332   7.756 -0.3303 -0.3656 -1.0856
   77CHL1  H22B 8162   3.897   6.216   7.748 -0.5901 -0.7043 -0.0934
   77CHL1   C23 8163   4.022   6.201   7.921 -0.5178  0.1931  1.0891
   77CHL1  H23A 8164   3.971   6.105   7.942 -1.6198  0.0552 -1.8020
   77CHL1  H23B 8165   4.130   6.196   7.948 -0.4741 -1.6666  0.6564
   77CHL1   C24 8166   3.965   6.320   7.995  0.1166 -1.0968 -0.0390
   77CHL1  H24A 8167   4.010   6.421   7.978 -0.7861 -0.8018 -0.7603
   77CHL1  H24B 8168   3.863   6.330   7.951  0.5951 -0.3830 -1.0203
   77CHL1   C25 8169   3.953   6.310   8.151  0.4537  0.6396 -0.8515
   77CHL1   H25 8170   3.897   6.214   8.150  0.3251  0.7125 -0.6966
   77CHL1   C26 8171   4.086   6.288   8.224  0.3532  0.1202  0.0997
   77CHL1  H26A 8172   4.067   6.309   8.331 -3.6704 -0.2789 -0.3954
   77CHL1  H26B 8173   4.118   6.182   8.214  1.7541  0.4858  0.4702
   77CHL1  H26C 8174   4.159   6.357   8.177  0.0142  0.9137  0.7232
   77CHL1   C27 8175   3.865   6.429   8.210  0.1932  0.0465 -0.0952
   77CHL1  H27A 8176   3.841   6.405   8.316 -1.6314 -0.6060 -0.6093
   77CHL1  H27B 8177   3.917   6.525   8.195  0.7993 -0.4681 -1.4091
   77CHL1  H27C 8178   3.765   6.417   8.162 -1.1288 -2.2040  2.8733
   78CHL1    C3 8179   3.166   3.460   6.884  0.0423 -0.2538 -0.1749
   78CHL1    H3 8180   3.110   3.368   6.912  0.4983 -0.2995  0.5906
   78CHL1    O3 8181   3.142   3.486   6.748  0.0594  0.7568  0.2503
   78CHL1   H3' 8182   3.182   3.571   6.730  1.3240  0.2687  0.6512
   78CHL1    C4 8183   3.106   3.568   6.975 -0.2359 -0.4320 -0.0872
   78CHL1   H4A 8184   3.161   3.664   6.965 -0.3875 -0.1562  1.5895
   78CHL1   H4B 8185   3.005   3.593   6.938  0.1330 -1.8251 -2.3057
   78CHL1    C5 8186   3.105   3.524   7.124  0.6586 -0.4900  0.3081
   78CHL1    C6 8187   2.993   3.519   7.196 -0.5587  0.4388 -0.1075
   78CHL1    H6 8188   2.892   3.547   7.163 -0.2410  0.1910 -1.3393
   78CHL1    C7 8189   2.983   3.475   7.340 -0.0471  0.3364 -0.1228
   78CHL1   H7A 8190   2.930   3.551   7.401 -1.4490 -0.3637 -0.4336
   78CHL1   H7B 8191   2.923   3.382   7.350  0.4117  0.1884  1.6532
   78CHL1    C8 8192   3.122   3.464   7.404 -0.0501 -0.0705 -0.3139
   78CHL1    H8 8193   3.155   3.564   7.441 -0.4930  0.7395 -2.0142
   78CHL1   C14 8194   3.123   3.369   7.528  0.2430  1.2274  0.3292
   78CHL1   H14 8195   3.088   3.267   7.499 -3.6375  1.6983  2.6340
   78CHL1   C15 8196   3.030   3.409   7.640 -0.2318  0.1521  0.0244
   78CHL1  H15A 8197   3.031   3.520   7.643  3.2601  0.2667 -0.8276
   78CHL1  H15B 8198   2.925   3.385   7.612 -0.0681  0.1272 -0.5876
   78CHL1   C16 8199   3.089   3.350   7.765  0.1192  0.1609  0.0182
   78CHL1  H16A 8200   3.094   3.434   7.838 -3.6045 -0.5313  1.3289
   78CHL1  H16B 8201   3.032   3.270   7.817  0.3137  0.8537  1.3552
   78CHL1   C17 8202   3.229   3.290   7.733  0.5210  0.1881  1.0304
   78CHL1   H17 8203   3.209   3.186   7.699  1.6745 -0.2247  1.5765
   78CHL1   C13 8204   3.265   3.356   7.596 -0.3585 -0.5989  0.0886
   78CHL1   C18 8205   3.328   3.495   7.623  0.0699 -0.3987 -0.3727
   78CHL1  H18A 8206   3.268   3.556   7.694  0.7203 -0.1958  0.0143
   78CHL1  H18B 8207   3.421   3.475   7.681 -0.3975 -1.5150  0.0254
   78CHL1  H18C 8208   3.348   3.566   7.541  0.3735  2.5565  2.0695
   78CHL1   C12 8209   3.358   3.283   7.500 -0.1383  0.1775  0.0671
   78CHL1  H12A 8210   3.461   3.268   7.540  0.1309  1.1190 -0.2528
   78CHL1  H12B 8211   3.318   3.183   7.471 -0.4063  0.8126 -1.9329
   78CHL1   C11 8212   3.367   3.358   7.363  0.0874 -0.5120 -0.0867
   78CHL1  H11A 8213   3.428   3.449   7.377 -3.0445  1.3379  2.9944
   78CHL1  H11B 8214   3.408   3.295   7.280 -1.4321 -1.5899 -0.0612
   78CHL1    C9 8215   3.229   3.400   7.301  0.1209 -0.2577  0.3898
   78CHL1    H9 8216   3.179   3.305   7.270  0.8328 -0.2959 -0.6589
   78CHL1   C10 8217   3.238   3.482   7.172  0.0825 -0.0835  0.6083
   78CHL1   C19 8218   3.312   3.614   7.199 -0.5528 -0.6613  0.1406
   78CHL1  H19A 8219   3.318   3.681   7.111  0.8529 -1.3906 -0.3656
   78CHL1  H19B 8220   3.275   3.667   7.289  1.9450  0.4657  0.6052
   78CHL1  H19C 8221   3.418   3.585   7.218 -0.1065 -0.4142 -1.7520
   78CHL1    C1 8222   3.313   3.402   7.065 -0.8012  0.3054  0.9766
   78CHL1   H1A 8223   3.421   3.389   7.086 -0.5343  0.9149  0.0446
   78CHL1   H1B 8224   3.261   3.304   7.067 -0.9614  0.4016  1.6852
   78CHL1    C2 8225   3.314   3.448   6.920 -0.1790 -0.4790 -0.1140
   78CHL1   H2A 8226   3.358   3.370   6.855  1.9771 -0.9468  1.7896
   78CHL1   H2B 8227   3.378   3.537   6.903  0.6303 -0.2943  3.2091
   78CHL1   C20 8228   3.323   3.282   7.856 -0.4699 -0.3645  0.5905
   78CHL1   H20 8229   3.372   3.376   7.889  2.4840 -1.3144 -0.7589
   78CHL1   C21 8230   3.450   3.193   7.820  0.3456 -0.1660  0.3468
   78CHL1  H21A 8231   3.422   3.102   7.763 -0.2552 -0.3640  0.9401
   78CHL1  H21B 8232   3.500   3.168   7.916 -0.4087 -1.5840  0.3998
   78CHL1  H21C 8233   3.528   3.252   7.767  0.0454  2.4397  2.5505
   78CHL1   C22 8234   3.263   3.223   7.988  0.2815 -0.4323  0.4396
   78CHL1  H22A 8235   3.342   3.219   8.066  0.6784  2.7695  0.3611
   78CHL1  H22B 8236   3.181   3.283   8.033  0.4494  0.5366 -0.4915
   78CHL1   C23 8237   3.202   3.081   7.972  0.0020 -0.6560 -0.3836
   78CHL1  H23A 8238   3.134   3.086   7.885 -0.6301  1.4483  0.1519
   78CHL1  H23B 8239   3.279   3.003   7.959  1.2200  0.7323 -1.7802
   78CHL1   C24 8240   3.115   3.029   8.092 -0.9168  0.0318  0.8422
   78CHL1  H24A 8241   3.017   3.081   8.097 -0.6941  0.4555  0.8523
   78CHL1  H24B 8242   3.101   2.920   8.073 -1.3393  0.0630  0.9646
   78CHL1   C25 8243   3.184   3.040   8.226 -0.0462  0.0212 -0.2389
   78CHL1   H25 8244   3.217   3.145   8.241 -1.7950  0.3772  1.6334
   78CHL1   C26 8245   3.085   3.001   8.333  0.5225  0.3305 -0.2981
   78CHL1  H26A 8246   3.061   2.894   8.343 -0.4763  0.0778 -3.9749
   78CHL1  H26B 8247   3.137   3.011   8.431 -0.5698 -0.1301  0.3368
   78CHL1  H26C 8248   2.996   3.065   8.349  0.4743  0.6707 -1.7333
   78CHL1   C27 8249   3.308   2.943   8.229 -0.9344  0.2998  0.1855
   78CHL1  H27A 8250   3.349   2.945   8.332 -0.6807  0.7015  0.0820
   78CHL1  H27B 8251   3.289   2.836   8.210  1.3355  0.1557 -1.7381
   78CHL1  H27C 8252   3.378   2.973   8.148 -0.9499  1.7687  0.6766
   79CHL1    C3 8253   1.407   0.788   7.251  0.1793  0.4897 -0.0824
   79CHL1    H3 8254   1.312   0.832   7.288 -0.8368 -0.3926 -1.5071
   79CHL1    O3 8255   1.426   0.802   7.108 -0.6315  0.5805 -0.2982
   79CHL1   H3' 8256   1.341   0.800   7.064 -0.8627 -1.3536  0.1482
   79CHL1    C4 8257   1.528   0.841   7.322 -0.1340  0.6479 -0.0780
   79CHL1   H4A 8258   1.620   0.800   7.273  0.9029  2.1588  0.5191
   79CHL1   H4B 8259   1.525   0.951   7.304 -2.9419  0.3983 -1.7546
   79CHL1    C5 8260   1.531   0.803   7.471 -0.1160 -0.5285  0.0956
   79CHL1    C6 8261   1.567   0.891   7.569 -0.1958  0.2068 -0.0665
   79CHL1    H6 8262   1.597   0.994   7.545 -0.0839 -0.1443 -1.5158
   79CHL1    C7 8263   1.570   0.857   7.714  0.5592  0.1342  0.3182
   79CHL1   H7A 8264   1.660   0.910   7.751 -0.7183  1.9260  1.0182
   79CHL1   H7B 8265   1.481   0.902   7.763  0.9310  1.4483 -0.1698
   79CHL1    C8 8266   1.574   0.707   7.748 -0.1522  0.4018 -0.0186
   79CHL1    H8 8267   1.679   0.677   7.731  0.2279  2.6727 -2.5080
   79CHL1   C14 8268   1.553   0.684   7.895 -0.2956 -0.5496  0.4724
   79CHL1   H14 8269   1.460   0.743   7.906  1.7035  2.9326  0.2170
   79CHL1   C15 8270   1.654   0.755   7.988  0.0524  0.7532 -0.2697
   79CHL1  H15A 8271   1.755   0.727   7.951 -0.9032 -3.2107 -0.2669
   79CHL1  H15B 8272   1.645   0.866   7.991 -0.0482  0.7285  0.3303
   79CHL1   C16 8273   1.633   0.684   8.117 -0.0137  0.2340  0.2853
   79CHL1  H16A 8274   1.729   0.652   8.163  0.3648  0.8146 -0.0820
   79CHL1  H16B 8275   1.575   0.752   8.183 -2.9201 -0.8569 -0.9868
   79CHL1   C17 8276   1.537   0.563   8.092  0.4407 -0.4780 -1.4108
   79CHL1   H17 8277   1.437   0.604   8.117  0.7690 -1.0516  1.1703
   79CHL1   C13 8278   1.537   0.535   7.940  0.6357 -0.3321 -0.6830
   79CHL1   C18 8279   1.660   0.447   7.907  0.2843 -0.5565 -0.1719
   79CHL1  H18A 8280   1.705   0.475   7.809  1.4188 -1.6551  0.0142
   79CHL1  H18B 8281   1.736   0.487   7.978  0.4803  0.1599 -0.7694
   79CHL1  H18C 8282   1.632   0.339   7.904 -1.5792 -0.0924 -1.2632
   79CHL1   C12 8283   1.408   0.484   7.869 -0.7582 -0.3201  0.0991
   79CHL1  H12A 8284   1.379   0.383   7.907  1.4218 -0.5386  1.3111
   79CHL1  H12B 8285   1.320   0.542   7.904 -0.0633 -0.2229  1.7982
   79CHL1   C11 8286   1.434   0.492   7.716 -0.0526 -0.1076  0.6590
   79CHL1  H11A 8287   1.512   0.416   7.697  0.3106  0.3866  0.1356
   79CHL1  H11B 8288   1.338   0.468   7.665  0.3493  0.0209 -0.1847
   79CHL1    C9 8289   1.472   0.636   7.667 -0.3152 -0.1851  0.0589
   79CHL1    H9 8290   1.376   0.688   7.686 -0.6728 -0.8733  0.1534
   79CHL1   C10 8291   1.497   0.654   7.513  1.3343  0.7876 -0.6162
   79CHL1   C19 8292   1.613   0.562   7.479 -0.0130 -0.8024  0.4829
   79CHL1  H19A 8293   1.708   0.577   7.534 -0.4040  1.7347  0.5556
   79CHL1  H19B 8294   1.585   0.458   7.509 -0.3293 -1.3420 -1.5025
   79CHL1  H19C 8295   1.643   0.557   7.372 -0.1075 -1.5498  0.4809
   79CHL1    C1 8296   1.366   0.623   7.435  0.0193 -0.1864 -0.2713
   79CHL1   H1A 8297   1.329   0.519   7.448 -0.8146 -0.0967 -1.7191
   79CHL1   H1B 8298   1.281   0.690   7.457 -1.3883 -1.9632 -0.0068
   79CHL1    C2 8299   1.382   0.639   7.283  0.0955 -0.4007 -0.7270
   79CHL1   H2A 8300   1.287   0.608   7.235 -0.8715 -1.2715  1.5909
   79CHL1   H2B 8301   1.471   0.582   7.248  0.5658  0.3551 -0.7816
   79CHL1   C20 8302   1.560   0.450   8.192 -0.1648  0.3124  0.4322
   79CHL1   H20 8303   1.652   0.399   8.157 -1.1796  0.1008 -2.0797
   79CHL1   C21 8304   1.451   0.346   8.175 -0.2492 -0.7823  0.0725
   79CHL1  H21A 8305   1.350   0.392   8.186  0.2897  0.8684 -1.4704
   79CHL1  H21B 8306   1.461   0.260   8.246 -0.7189 -1.0386 -0.1646
   79CHL1  H21C 8307   1.458   0.307   8.071 -1.2716 -3.9345  1.0709
   79CHL1   C22 8308   1.592   0.490   8.343  0.1891  0.0279 -0.0976
   79CHL1  H22A 8309   1.595   0.396   8.403 -1.7580  0.6875  1.1019
   79CHL1  H22B 8310   1.690   0.540   8.360 -0.2109  1.0312 -0.6417
   79CHL1   C23 8311   1.480   0.581   8.402 -0.2659  0.8958 -0.5249
   79CHL1  H23A 8312   1.470   0.681   8.354 -0.7198  0.5226 -1.2234
   79CHL1  H23B 8313   1.393   0.516   8.383  1.4490 -0.9860 -2.5379
   79CHL1   C24 8314   1.498   0.600   8.551 -0.4927  0.6711 -0.2162
   79CHL1  H24A 8315   1.512   0.500   8.599  2.7987  0.5946 -1.1616
   79CHL1  H24B 8316   1.589   0.658   8.576  0.8764 -0.1786 -2.8682
   79CHL1   C25 8317   1.377   0.658   8.624  0.8145  0.1252 -0.1921
   79CHL1   H25 8318   1.281   0.609   8.595  0.5223  0.0019  0.9412
   79CHL1   C26 8319   1.389   0.616   8.769  0.2791  0.4296  0.2860
   79CHL1  H26A 8320   1.395   0.506   8.778 -0.3080  0.1021 -2.4537
   79CHL1  H26B 8321   1.494   0.639   8.798  0.7777  0.8156 -1.7010
   79CHL1  H26C 8322   1.323   0.668   8.842 -0.0292 -0.9012  0.9756
   79CHL1   C27 8323   1.367   0.808   8.602 -0.9330  0.0371  0.0879
   79CHL1  H27A 8324   1.268   0.849   8.633 -0.9326  0.7221 -0.7882
   79CHL1  H27B 8325   1.448   0.854   8.661 -1.5214  1.1748  0.0295
   79CHL1  H27C 8326   1.389   0.838   8.498  2.6260 -1.3319  0.3160
   80CHL1    C3 8327   0.374   6.376   7.059 -0.2654  0.3722 -0.9161
   80CHL1    H3 8328   0.361   6.482   7.090  1.2603  1.2771 -3.0642
   80CHL1    O3 8329   0.405   6.395   6.923  0.6095  0.2966  0.1719
   80CHL1   H3' 8330   0.427   6.308   6.889  2.4787  0.9647 -0.4495
   80CHL1    C4 8331   0.494   6.314   7.125 -0.9839 -0.2587  0.1728
   80CHL1   H4A 8332   0.518   6.217   7.077  2.0998  0.3817  0.1811
   80CHL1   H4B 8333   0.588   6.373   7.120 -0.8281 -0.4117  1.1202
   80CHL1    C5 8334   0.462   6.284   7.271  0.0893  0.0292  0.1304
   80CHL1    C6 8335   0.530   6.334   7.369 -0.7044  0.2984  0.4829
   80CHL1    H6 8336   0.627   6.383   7.352 -1.1284  1.5338  1.4825
   80CHL1    C7 8337   0.510   6.288   7.509  0.3498 -0.0722 -0.4959
   80CHL1   H7A 8338   0.609   6.274   7.556  0.2171  1.7561  0.4381
   80CHL1   H7B 8339   0.469   6.378   7.560  0.0648  0.0791 -0.9881
   80CHL1    C8 8340   0.415   6.171   7.531  0.2396  0.2134 -0.8803
   80CHL1    H8 8341   0.466   6.077   7.501  0.7944  0.7027 -1.5043
   80CHL1   C14 8342   0.377   6.165   7.680  0.2668 -0.0430  0.1121
   80CHL1   H14 8343   0.333   6.264   7.703  3.1953  2.1430 -2.6647
   80CHL1   C15 8344   0.482   6.146   7.781 -0.2284 -0.6019 -0.2530
   80CHL1  H15A 8345   0.548   6.060   7.755  1.3151  0.3422  0.3929
   80CHL1  H15B 8346   0.543   6.237   7.802  0.8821 -0.0770 -4.7595
   80CHL1   C16 8347   0.402   6.111   7.906 -0.3649 -0.1445  0.4424
   80CHL1  H16A 8348   0.443   6.010   7.930  4.6919  1.4311 -0.3417
   80CHL1  H16B 8349   0.403   6.178   7.994  0.7020  2.3710 -1.3771
   80CHL1   C17 8350   0.252   6.088   7.863 -0.2029 -0.1535 -0.3347
   80CHL1   H17 8351   0.207   6.189   7.867  1.2134  0.4678  0.8372
   80CHL1   C13 8352   0.267   6.064   7.711 -0.5853 -0.2297 -1.0323
   80CHL1   C18 8353   0.316   5.922   7.694  0.2393 -0.1463 -0.9048
   80CHL1  H18A 8354   0.330   5.884   7.590  1.8566 -0.3885 -0.6215
   80CHL1  H18B 8355   0.412   5.891   7.741  1.6488  0.6240 -3.0945
   80CHL1  H18C 8356   0.233   5.860   7.735  0.0530 -0.2808 -1.4699
   80CHL1   C12 8357   0.146   6.085   7.622  0.4259 -0.4019 -0.1185
   80CHL1  H12A 8358   0.070   6.006   7.639  0.1691 -0.4747 -1.5078
   80CHL1  H12B 8359   0.099   6.181   7.654  3.8571  0.6240  2.3909
   80CHL1   C11 8360   0.182   6.092   7.471  0.3899 -0.5437  0.3853
   80CHL1  H11A 8361   0.196   5.987   7.437  2.3826  0.5105 -2.4217
   80CHL1  H11B 8362   0.096   6.144   7.424  2.6027  1.8650 -1.2744
   80CHL1    C9 8363   0.297   6.187   7.443 -0.4405  0.0546 -0.3035
   80CHL1    H9 8364   0.256   6.286   7.471 -1.8211  0.0037 -1.9817
   80CHL1   C10 8365   0.337   6.194   7.292 -0.0098 -0.1345 -0.1314
   80CHL1   C19 8366   0.372   6.052   7.246 -1.1790 -0.7221  0.1576
   80CHL1  H19A 8367   0.475   6.022   7.275 -0.9564 -1.8132 -1.6171
   80CHL1  H19B 8368   0.299   5.976   7.282 -0.6590 -1.8845 -1.1298
   80CHL1  H19C 8369   0.358   6.042   7.136 -0.5802  2.4750 -0.2931
   80CHL1    C1 8370   0.221   6.252   7.209  0.1829 -0.3853  0.1021
   80CHL1   H1A 8371   0.144   6.172   7.210  1.4130 -1.6043  1.4659
   80CHL1   H1B 8372   0.183   6.341   7.264 -0.5312  0.1683 -1.2408
   80CHL1    C2 8373   0.251   6.287   7.066 -0.1775 -0.0606 -0.1208
   80CHL1   H2A 8374   0.171   6.343   7.014 -0.4327 -0.0928  0.2401
   80CHL1   H2B 8375   0.276   6.198   7.005  0.0809  0.9568 -1.5573
   80CHL1   C20 8376   0.169   5.995   7.955 -0.2156  0.1497 -0.2934
   80CHL1   H20 8377   0.089   5.950   7.892 -0.3025 -0.2351  0.0909
   80CHL1   C21 8378   0.103   6.094   8.050 -0.3235  0.0993  0.4168
   80CHL1  H21A 8379   0.015   6.047   8.098 -0.8322  0.8838  0.2850
   80CHL1  H21B 8380   0.080   6.193   8.005  1.1568  0.3711  0.2356
   80CHL1  H21C 8381   0.182   6.107   8.126 -0.5081  3.0953  0.2292
   80CHL1   C22 8382   0.239   5.878   8.026  0.3686 -0.1891 -0.6348
   80CHL1  H22A 8383   0.280   5.812   7.947  0.6011 -0.2707 -0.4489
   80CHL1  H22B 8384   0.327   5.912   8.086 -0.4347  3.9252 -1.4476
   80CHL1   C23 8385   0.138   5.793   8.108  0.3217 -0.9620 -0.3327
   80CHL1  H23A 8386   0.093   5.860   8.184  0.6641  0.3643 -1.2715
   80CHL1  H23B 8387   0.046   5.769   8.049 -0.0674 -0.6093  0.1175
   80CHL1   C24 8388   0.183   5.668   8.182  0.3592 -0.0171 -0.1167
   80CHL1  H24A 8389   0.271   5.694   8.244 -0.5595 -0.7535  1.5575
   80CHL1  H24B 8390   0.102   5.635   8.250 -0.5652  1.3024 -0.5457
   80CHL1   C25 8391   0.226   5.555   8.083 -0.3639  0.5041 -0.0745
   80CHL1   H25 8392   0.283   5.599   7.998  0.5684  0.7664  0.6730
   80CHL1   C26 8393   0.313   5.455   8.152  0.1627  0.8071 -0.0981
   80CHL1  H26A 8394   0.363   5.392   8.076 -0.2602 -1.1647  1.1840
   80CHL1  H26B 8395   0.391   5.498   8.218  0.5710 -0.4213  0.2340
   80CHL1  H26C 8396   0.261   5.378   8.213  0.5398  0.2159 -0.5177
   80CHL1   C27 8397   0.105   5.484   8.018  0.6416  0.2618  0.3749
   80CHL1  H27A 8398   0.132   5.420   7.932 -1.9076  1.3373 -1.3277
   80CHL1  H27B 8399   0.047   5.428   8.094  2.4284 -0.8850  0.9702
   80CHL1  H27C 8400   0.039   5.563   7.978 -0.5025 -1.0492 -0.3979
   81CHL1    C3 8401   6.183   1.036   6.826 -0.1587  0.2838  0.0746
   81CHL1    H3 8402   6.274   1.099   6.826 -1.5774  2.4417  1.0102
   81CHL1    O3 8403   6.146   0.995   6.695  0.2490 -0.0285 -0.2887
   81CHL1   H3' 8404   6.081   0.926   6.712  0.3831  0.1994  1.3145
   81CHL1    C4 8405   6.201   0.914   6.918  0.0092 -0.1172 -0.0469
   81CHL1   H4A 8406   6.108   0.855   6.905 -0.7445  1.0796 -0.2848
   81CHL1   H4B 8407   6.291   0.856   6.887  0.5340  1.4929 -1.7544
   81CHL1    C5 8408   6.221   0.941   7.062 -0.6135  0.1833  0.1195
   81CHL1    C6 8409   6.335   0.890   7.122 -0.1264  0.4816 -0.3928
   81CHL1    H6 8410   6.414   0.844   7.062  0.1067 -0.1484  0.3828
   81CHL1    C7 8411   6.359   0.912   7.271  0.4949  0.3504  0.0681
   81CHL1   H7A 8412   6.386   0.822   7.330  0.4098  1.3326  1.6523
   81CHL1   H7B 8413   6.443   0.981   7.293  1.3759 -1.1687  1.6243
   81CHL1    C8 8414   6.230   0.968   7.347 -0.1228  0.5358 -0.2925
   81CHL1    H8 8415   6.163   0.881   7.363  1.5745 -0.4647  1.8460
   81CHL1   C14 8416   6.264   1.025   7.487 -0.2705 -0.1214 -0.3656
   81CHL1   H14 8417   6.331   1.112   7.471 -1.3326  0.8331  0.2085
   81CHL1   C15 8418   6.333   0.930   7.596  0.5397  0.4473  0.9491
   81CHL1  H15A 8419   6.303   0.825   7.579 -1.6368  0.9381  1.4267
   81CHL1  H15B 8420   6.444   0.929   7.589  0.6193 -2.2708  1.5604
   81CHL1   C16 8421   6.286   0.976   7.728  0.3364  0.4001 -0.2283
   81CHL1  H16A 8422   6.231   0.894   7.779  0.2099  1.2330  1.0315
   81CHL1  H16B 8423   6.371   1.006   7.793  0.9686 -0.0978 -0.8125
   81CHL1   C17 8424   6.192   1.098   7.697  0.0150 -0.3933  0.5729
   81CHL1   H17 8425   6.272   1.175   7.692  0.2904 -0.7639 -2.3397
   81CHL1   C13 8426   6.137   1.083   7.556  0.2976  0.0985 -0.2467
   81CHL1   C18 8427   6.022   0.977   7.556  0.2056 -0.5122  0.4650
   81CHL1  H18A 8428   6.071   0.877   7.567  1.4490 -0.3155 -2.3005
   81CHL1  H18B 8429   5.946   0.981   7.636 -1.0635 -1.1383 -0.6584
   81CHL1  H18C 8430   5.962   0.972   7.462 -1.9451 -0.0634  1.7552
   81CHL1   C12 8431   6.092   1.206   7.482 -0.9113  0.1447 -0.7048
   81CHL1  H12A 8432   6.003   1.252   7.530  0.0286  0.2346  1.0150
   81CHL1  H12B 8433   6.174   1.281   7.480 -0.2175 -0.6030 -0.7277
   81CHL1   C11 8434   6.067   1.176   7.331 -0.1358  0.2282  0.5010
   81CHL1  H11A 8435   5.963   1.140   7.316 -0.4396  0.9744  0.7456
   81CHL1  H11B 8436   6.080   1.273   7.279 -1.2102 -0.1194 -0.4661
   81CHL1    C9 8437   6.168   1.078   7.257 -0.1151 -0.7106 -0.3343
   81CHL1    H9 8438   6.256   1.142   7.232 -0.3916 -0.8600 -1.8135
   81CHL1   C10 8439   6.119   1.033   7.120 -0.5997  0.3543  0.2436
   81CHL1   C19 8440   5.980   0.957   7.135 -0.4757  0.9421  0.4745
   81CHL1  H19A 8441   5.974   0.876   7.211 -0.7120  0.6722  0.1696
   81CHL1  H19B 8442   5.889   1.020   7.147 -0.4819  0.4296  4.5720
   81CHL1  H19C 8443   5.950   0.912   7.038 -0.7245  2.2804 -0.0965
   81CHL1    C1 8444   6.102   1.166   7.033  0.7693  0.1362  0.5994
   81CHL1   H1A 8445   6.018   1.225   7.075  2.4508  1.7754  1.8390
   81CHL1   H1B 8446   6.185   1.240   7.043 -0.0004  1.1027 -0.0232
   81CHL1    C2 8447   6.078   1.135   6.880 -0.0079  0.4150  0.3774
   81CHL1   H2A 8448   6.076   1.232   6.825 -2.3678  0.1964 -0.0302
   81CHL1   H2B 8449   5.979   1.085   6.879  1.4157 -2.6243  1.2340
   81CHL1   C20 8450   6.095   1.137   7.816  0.6936 -0.7387 -0.4400
   81CHL1   H20 8451   6.002   1.166   7.764  0.3632  2.4118  1.6689
   81CHL1   C21 8452   6.166   1.266   7.877 -0.8612  0.2083 -0.0543
   81CHL1  H21A 8453   6.254   1.231   7.935 -0.7939 -0.7699 -0.7075
   81CHL1  H21B 8454   6.091   1.309   7.946 -2.1811  0.1266 -1.3883
   81CHL1  H21C 8455   6.198   1.343   7.803 -1.3346 -0.3870 -0.8985
   81CHL1   C22 8456   6.072   1.028   7.921  0.4483 -0.5016  0.1687
   81CHL1  H22A 8457   6.024   0.937   7.880  0.2753 -0.3915  0.1237
   81CHL1  H22B 8458   6.168   0.994   7.964  1.2893  1.0773 -0.3858
   81CHL1   C23 8459   5.994   1.078   8.047 -0.1730 -0.5953  0.6079
   81CHL1  H23A 8460   6.046   1.158   8.104  0.6692 -1.0910  0.5471
   81CHL1  H23B 8461   5.899   1.127   8.016  0.7298 -0.9843 -3.3429
   81CHL1   C24 8462   5.985   0.956   8.144 -0.8488 -0.6683  0.1398
   81CHL1  H24A 8463   5.925   0.883   8.085  0.3003 -1.3782 -0.1862
   81CHL1  H24B 8464   6.084   0.909   8.161 -0.9937 -0.9131  0.3337
   81CHL1   C25 8465   5.938   0.997   8.283 -0.0807  0.0587  0.0122
   81CHL1   H25 8466   6.020   1.054   8.333 -0.7602  0.8905  0.1969
   81CHL1   C26 8467   5.814   1.083   8.281 -0.1297 -0.2816  0.2166
   81CHL1  H26A 8468   5.758   1.089   8.376 -0.3307  0.0519  0.0777
   81CHL1  H26B 8469   5.842   1.180   8.236 -0.5527  0.7152  2.0248
   81CHL1  H26C 8470   5.740   1.035   8.213  0.5591  1.8684 -2.1730
   81CHL1   C27 8471   5.913   0.874   8.369 -0.0009  0.9973 -0.4604
   81CHL1  H27A 8472   5.830   0.822   8.316  1.4833 -1.5918 -0.3722
   81CHL1  H27B 8473   5.999   0.806   8.385 -1.4410 -0.8087 -0.0933
   81CHL1  H27C 8474   5.855   0.901   8.460  0.8346  0.5944  0.2019
   82CHL1    C3 8475   6.529   1.295   7.326 -0.6536 -0.6014 -0.0661
   82CHL1    H3 8476   6.442   1.228   7.341 -0.5037 -1.0674 -1.1373
   82CHL1    O3 8477   6.495   1.379   7.216  0.1468 -0.4084 -0.1721
   82CHL1   H3' 8478   6.583   1.396   7.183  0.8926 -2.2625  0.7093
   82CHL1    C4 8479   6.551   1.386   7.448  0.0481  1.2964  0.3392
   82CHL1   H4A 8480   6.626   1.463   7.420  0.5384  0.9255  0.6139
   82CHL1   H4B 8481   6.460   1.446   7.465 -1.1863 -0.5095  0.3915
   82CHL1    C5 8482   6.604   1.316   7.574  0.2602  0.6528 -0.4075
   82CHL1    C6 8483   6.554   1.340   7.693  0.4348 -0.5138  0.8755
   82CHL1    H6 8484   6.471   1.411   7.710  0.3987 -0.4826  0.5782
   82CHL1    C7 8485   6.615   1.268   7.815 -0.1366  0.4023  0.1619
   82CHL1   H7A 8486   6.619   1.336   7.902  0.9648  0.9383 -0.3003
   82CHL1   H7B 8487   6.539   1.193   7.849 -1.6186  2.5132  1.7445
   82CHL1    C8 8488   6.750   1.197   7.795  0.6962  0.0992 -0.3439
   82CHL1    H8 8489   6.832   1.272   7.806  1.7405 -1.3592  3.4778
   82CHL1   C14 8490   6.764   1.090   7.907  0.3689 -0.1266 -0.3350
   82CHL1   H14 8491   6.690   1.013   7.877 -0.0470  0.0539  0.2142
   82CHL1   C15 8492   6.749   1.144   8.046  0.9087 -0.5792 -0.0609
   82CHL1  H15A 8493   6.791   1.247   8.053 -1.7500  0.8217 -2.6083
   82CHL1  H15B 8494   6.643   1.149   8.080  1.0103 -4.1890  1.2509
   82CHL1   C16 8495   6.812   1.038   8.137 -0.2340  0.1990 -0.3506
   82CHL1  H16A 8496   6.875   1.080   8.219  0.0613 -0.6247 -0.1489
   82CHL1  H16B 8497   6.725   0.979   8.175  0.6172 -0.7519  0.1654
   82CHL1   C17 8498   6.895   0.944   8.039  0.0247 -0.2650 -0.6315
   82CHL1   H17 8499   6.823   0.864   8.011  2.1634 -2.7027  0.3770
   82CHL1   C13 8500   6.901   1.018   7.902 -0.2057 -0.3727  0.4158
   82CHL1   C18 8501   7.022   1.117   7.909  0.3380 -0.3797 -0.5439
   82CHL1  H18A 8502   7.005   1.161   8.010 -0.8274 -1.1011 -0.3974
   82CHL1  H18B 8503   7.114   1.056   7.914  1.1170  0.8476  2.2308
   82CHL1  H18C 8504   7.039   1.199   7.836  1.5679  0.9601  1.1443
   82CHL1   C12 8505   6.913   0.951   7.764 -0.2698  0.5005  0.2021
   82CHL1  H12A 8506   7.019   0.917   7.764 -0.5977 -0.5679 -0.7504
   82CHL1  H12B 8507   6.852   0.859   7.763 -1.4011  1.1467  2.6362
   82CHL1   C11 8508   6.890   1.055   7.652 -0.5286 -0.6234  0.5725
   82CHL1  H11A 8509   6.974   1.128   7.651  1.1767 -2.5254  0.9756
   82CHL1  H11B 8510   6.904   1.003   7.555 -4.8373 -1.4542  0.1907
   82CHL1    C9 8511   6.754   1.128   7.659  0.3681 -0.2343  0.3459
   82CHL1    H9 8512   6.678   1.047   7.661 -0.4622  0.5181 -0.3249
   82CHL1   C10 8513   6.728   1.226   7.545  0.8733  0.2306  0.2724
   82CHL1   C19 8514   6.852   1.314   7.517  0.2643  0.1355 -0.3072
   82CHL1  H19A 8515   6.941   1.260   7.477  0.6966  1.4048 -1.1150
   82CHL1  H19B 8516   6.835   1.409   7.462  0.0181  0.5974  0.5457
   82CHL1  H19C 8517   6.886   1.341   7.619  1.8181 -0.7854 -0.5435
   82CHL1    C1 8518   6.699   1.141   7.415  0.2882  0.4192 -0.0319
   82CHL1   H1A 8519   6.799   1.097   7.397  0.7812  1.0085  1.0996
   82CHL1   H1B 8520   6.620   1.067   7.438 -0.7284  0.8953 -1.8111
   82CHL1    C2 8521   6.656   1.209   7.287 -0.7982 -1.0010 -0.0427
   82CHL1   H2A 8522   6.630   1.134   7.210 -1.1961 -0.6684 -0.2392
   82CHL1   H2B 8523   6.738   1.276   7.253  0.2482 -0.5896  2.9990
   82CHL1   C20 8524   7.022   0.870   8.095  0.4767 -0.2875 -0.1109
   82CHL1   H20 8525   7.100   0.948   8.079 -1.1829  0.8876 -3.3142
   82CHL1   C21 8526   7.050   0.741   8.012 -0.7055  0.3386  0.0467
   82CHL1  H21A 8527   6.964   0.674   8.036 -0.4961  0.9071  2.6496
   82CHL1  H21B 8528   7.144   0.686   8.034 -0.5531 -0.5336 -2.4328
   82CHL1  H21C 8529   7.046   0.754   7.901  0.5164 -0.7738 -0.1552
   82CHL1   C22 8530   7.016   0.846   8.252  0.7366  0.3008  0.6934
   82CHL1  H22A 8531   6.992   0.938   8.308  1.9350  1.8632 -1.2319
   82CHL1  H22B 8532   6.934   0.774   8.271  0.5918  0.4967  0.8101
   82CHL1   C23 8533   7.152   0.804   8.307  0.3682 -0.1785 -0.0720
   82CHL1  H23A 8534   7.136   0.698   8.336 -3.4990  0.2302 -0.2164
   82CHL1  H23B 8535   7.230   0.817   8.230 -0.6673 -2.0086 -1.5067
   82CHL1   C24 8536   7.198   0.885   8.445 -0.0037 -0.5916  0.5853
   82CHL1  H24A 8537   7.189   0.995   8.438  3.2362 -0.2708  0.2815
   82CHL1  H24B 8538   7.131   0.861   8.531 -2.5038  1.4091 -0.6576
   82CHL1   C25 8539   7.344   0.865   8.485 -0.1033  0.4387  0.2325
   82CHL1   H25 8540   7.395   0.903   8.393  0.6418  1.0474  0.8818
   82CHL1   C26 8541   7.399   0.951   8.606 -0.1462 -0.1623  0.4882
   82CHL1  H26A 8542   7.510   0.948   8.598 -0.1136  2.2347 -0.7793
   82CHL1  H26B 8543   7.380   1.060   8.601 -0.5171 -0.2122  0.7127
   82CHL1  H26C 8544   7.374   0.925   8.711 -0.2725  1.4307  0.8783
   82CHL1   C27 8545   7.387   0.718   8.501 -0.8487  0.8460 -0.0758
   82CHL1  H27A 8546   7.404   0.672   8.401 -0.2512  1.3221 -0.2005
   82CHL1  H27B 8547   7.484   0.712   8.557 -0.4048 -0.8863 -0.9376
   82CHL1  H27C 8548   7.307   0.659   8.550 -2.3772  1.9543 -1.1669
   83CHL1    C3 8549   2.043   1.044   6.888 -0.1646 -0.4848  0.7684
   83CHL1    H3 8550   2.047   0.941   6.930  0.5220 -0.0686  1.7747
   83CHL1    O3 8551   2.008   1.037   6.748  0.2416 -0.4215  0.1561
   83CHL1   H3' 8552   2.090   1.051   6.700 -0.4026 -0.2203 -0.9185
   83CHL1    C4 8553   1.928   1.112   6.964  0.2422  0.9127  0.1890
   83CHL1   H4A 8554   1.922   1.217   6.929  1.9776  1.0992  0.3640
   83CHL1   H4B 8555   1.831   1.061   6.944  1.1939 -0.5206 -1.0097
   83CHL1    C5 8556   1.959   1.105   7.113  0.6218 -0.3690 -0.5182
   83CHL1    C6 8557   1.872   1.047   7.203  0.0502 -0.0544  0.4267
   83CHL1    H6 8558   1.770   1.015   7.179  0.2532 -0.7394  0.4380
   83CHL1    C7 8559   1.907   1.026   7.345 -0.0270 -0.2053 -0.0511
   83CHL1   H7A 8560   1.823   1.044   7.416 -1.1855  1.9062 -1.8563
   83CHL1   H7B 8561   1.925   0.916   7.351 -1.8244 -0.6643 -1.9603
   83CHL1    C8 8562   2.024   1.113   7.401 -0.0993 -0.2145 -0.1122
   83CHL1    H8 8563   1.989   1.218   7.407  0.8091  0.0264  1.3555
   83CHL1   C14 8564   2.070   1.077   7.539 -0.3364  0.5656 -0.6624
   83CHL1   H14 8565   2.108   0.973   7.530  0.4746  0.7810  0.1022
   83CHL1   C15 8566   1.961   1.092   7.649  0.6546  0.8978  0.1540
   83CHL1  H15A 8567   1.900   1.184   7.636  0.6128  1.1027  1.5865
   83CHL1  H15B 8568   1.896   1.002   7.646  2.8828 -0.7793 -0.5353
   83CHL1   C16 8569   2.044   1.097   7.780 -0.5960  0.4174 -0.3672
   83CHL1  H16A 8570   2.011   1.184   7.841 -0.5328  0.3461 -0.2317
   83CHL1  H16B 8571   2.029   1.004   7.838 -2.8525  0.6157 -0.5423
   83CHL1   C17 8572   2.195   1.107   7.732 -0.0444 -0.2993  0.7745
   83CHL1   H17 8573   2.238   1.005   7.723 -0.4419 -0.3661 -0.5488
   83CHL1   C13 8574   2.192   1.160   7.583 -0.1309 -0.7692 -0.4357
   83CHL1   C18 8575   2.158   1.313   7.580 -0.0273  0.1339 -0.8304
   83CHL1  H18A 8576   2.240   1.381   7.612 -1.0768  0.6862  0.7835
   83CHL1  H18B 8577   2.138   1.347   7.476 -0.5557 -1.0743 -1.1423
   83CHL1  H18C 8578   2.065   1.329   7.638  1.2250 -0.6043  1.4921
   83CHL1   C12 8579   2.308   1.123   7.494 -0.9300  0.3474  0.8226
   83CHL1  H12A 8580   2.401   1.168   7.534 -0.9599 -0.0700  1.3715
   83CHL1  H12B 8581   2.320   1.013   7.507 -2.6246 -0.0727 -0.7366
   83CHL1   C11 8582   2.276   1.165   7.351 -0.9780  0.2875  0.1548
   83CHL1  H11A 8583   2.286   1.274   7.329 -0.6308  0.0814 -0.7518
   83CHL1  H11B 8584   2.349   1.129   7.276 -0.8277 -0.1821  0.5208
   83CHL1    C9 8585   2.140   1.108   7.303  0.1127 -0.8857 -0.4349
   83CHL1    H9 8586   2.156   0.999   7.287 -0.3010 -1.0090 -0.0602
   83CHL1   C10 8587   2.101   1.157   7.157  0.7594  0.0243  0.2454
   83CHL1   C19 8588   2.103   1.309   7.141  0.5307 -0.1072 -0.0714
   83CHL1  H19A 8589   2.095   1.324   7.031 -0.4595 -1.7054 -0.2415
   83CHL1  H19B 8590   2.014   1.356   7.188  0.1455 -0.8453 -0.0574
   83CHL1  H19C 8591   2.202   1.354   7.166  0.8865  0.0403 -1.6610
   83CHL1    C1 8592   2.207   1.092   7.056 -0.0395  0.1783  0.7412
   83CHL1   H1A 8593   2.308   1.132   7.079  0.5466 -1.3479  0.9365
   83CHL1   H1B 8594   2.214   0.984   7.081  1.0947  0.1886  0.4836
   83CHL1    C2 8595   2.179   1.096   6.909  0.4368 -0.5854  0.3804
   83CHL1   H2A 8596   2.253   1.039   6.848  0.6041  1.1040 -1.0392
   83CHL1   H2B 8597   2.189   1.196   6.863  3.2481 -1.5022 -1.2719
   83CHL1   C20 8598   2.273   1.189   7.831 -0.0525 -0.3833 -0.6026
   83CHL1   H20 8599   2.246   1.297   7.835  0.3349 -0.2419 -1.5230
   83CHL1   C21 8600   2.425   1.203   7.795  0.7396  0.2452  0.0100
   83CHL1  H21A 8601   2.472   1.265   7.874 -1.8459  2.3411  0.0339
   83CHL1  H21B 8602   2.436   1.275   7.711  0.4369  1.7338  1.2100
   83CHL1  H21C 8603   2.481   1.112   7.765 -0.1901  0.0703 -1.2551
   83CHL1   C22 8604   2.262   1.142   7.979 -0.2877 -0.0273 -0.5696
   83CHL1  H22A 8605   2.303   1.229   8.035 -0.7830 -0.1733  0.0324
   83CHL1  H22B 8606   2.156   1.136   8.011  0.0159 -0.8216  0.3123
   83CHL1   C23 8607   2.328   1.005   8.010  0.0357  0.4041 -0.7012
   83CHL1  H23A 8608   2.265   0.937   7.948 -2.5431  3.3022 -1.5129
   83CHL1  H23B 8609   2.436   1.004   7.985  0.3698 -0.2647  0.6698
   83CHL1   C24 8610   2.318   0.945   8.148  0.1604  1.2102 -0.3425
   83CHL1  H24A 8611   2.210   0.932   8.171 -0.3946  2.0811 -2.2060
   83CHL1  H24B 8612   2.375   0.850   8.156  1.4207  2.0697  1.6093
   83CHL1   C25 8613   2.382   1.023   8.266 -0.1557  0.6918  0.1581
   83CHL1   H25 8614   2.338   1.124   8.283 -1.4382  0.0375  0.8622
   83CHL1   C26 8615   2.353   0.938   8.388 -0.3765 -0.0276  0.5091
   83CHL1  H26A 8616   2.393   0.995   8.474 -1.4579  1.0627  0.3181
   83CHL1  H26B 8617   2.245   0.916   8.401 -0.3392  0.4223  1.6414
   83CHL1  H26C 8618   2.402   0.840   8.369  0.7075  0.7469 -0.9405
   83CHL1   C27 8619   2.541   1.041   8.246  0.0546  0.1604 -0.4959
   83CHL1  H27A 8620   2.591   0.943   8.263 -0.4528 -0.4029 -2.0852
   83CHL1  H27B 8621   2.557   1.064   8.139  0.3191 -2.1392 -0.9886
   83CHL1  H27C 8622   2.582   1.128   8.302 -0.8061 -0.2399  0.8220
   84CHL1    C3 8623   6.250   4.794   6.810  0.4398 -0.0294  0.2533
   84CHL1    H3 8624   6.259   4.899   6.845  3.7654 -0.2147  0.2554
   84CHL1    O3 8625   6.243   4.789   6.665 -0.2277 -0.0937 -0.3989
   84CHL1   H3' 8626   6.255   4.875   6.625 -1.6597 -1.0418 -3.1422
   84CHL1    C4 8627   6.363   4.712   6.864  0.2513 -0.1535 -0.1294
   84CHL1   H4A 8628   6.344   4.610   6.825  0.8732 -0.4543  0.3423
   84CHL1   H4B 8629   6.461   4.743   6.822 -0.1118  0.3515 -0.6329
   84CHL1    C5 8630   6.366   4.711   7.015 -0.3208 -0.1021  0.0751
   84CHL1    C6 8631   6.467   4.762   7.082 -0.1521 -0.2109 -0.4224
   84CHL1    H6 8632   6.555   4.800   7.029  0.1407  0.2342  0.3671
   84CHL1    C7 8633   6.484   4.765   7.233  0.4437  0.1163  0.6400
   84CHL1   H7A 8634   6.586   4.729   7.259  0.2981  0.7257  2.1166
   84CHL1   H7B 8635   6.475   4.865   7.279  1.2956  0.6537 -0.2970
   84CHL1    C8 8636   6.379   4.666   7.296 -0.0798 -0.0019 -0.1950
   84CHL1    H8 8637   6.416   4.562   7.287  0.8702  0.2742  0.3276
   84CHL1   C14 8638   6.365   4.693   7.445  0.0313  0.4403 -0.6942
   84CHL1   H14 8639   6.323   4.796   7.448  0.6705  0.6903  0.6665
   84CHL1   C15 8640   6.498   4.697   7.514 -0.9126 -0.0641 -0.3605
   84CHL1  H15A 8641   6.564   4.612   7.487  0.8189  1.2251 -0.3542
   84CHL1  H15B 8642   6.568   4.778   7.483 -1.9340  0.7294 -0.6920
   84CHL1   C16 8643   6.462   4.694   7.655 -0.5147  1.0477 -0.5922
   84CHL1  H16A 8644   6.520   4.631   7.726 -3.2161 -1.2776 -0.3145
   84CHL1  H16B 8645   6.472   4.794   7.704 -1.3420  1.3422 -1.0068
   84CHL1   C17 8646   6.310   4.662   7.663 -0.6744 -0.7184 -0.0405
   84CHL1   H17 8647   6.267   4.765   7.661  1.5236  0.2519 -2.0671
   84CHL1   C13 8648   6.271   4.607   7.525 -0.1919  0.0952  1.1058
   84CHL1   C18 8649   6.317   4.464   7.523 -0.0918  0.5022 -0.1922
   84CHL1  H18A 8650   6.422   4.451   7.558 -0.4773 -3.3650 -0.0688
   84CHL1  H18B 8651   6.262   4.394   7.588 -1.0326  0.4438 -1.0238
   84CHL1  H18C 8652   6.311   4.425   7.419 -1.5925  2.8765 -1.0979
   84CHL1   C12 8653   6.136   4.627   7.469  0.2036 -0.3064  0.5089
   84CHL1  H12A 8654   6.064   4.563   7.526 -0.0396  0.8714  1.5746
   84CHL1  H12B 8655   6.111   4.734   7.485  4.6527  0.9024  0.6358
   84CHL1   C11 8656   6.136   4.602   7.322  0.0666  0.0489 -0.1444
   84CHL1  H11A 8657   6.149   4.492   7.310  2.1328  0.0207  1.6241
   84CHL1  H11B 8658   6.034   4.615   7.281 -0.7850 -0.8916  1.5658
   84CHL1    C9 8659   6.242   4.678   7.235  0.0613 -0.0467  0.1821
   84CHL1    H9 8660   6.215   4.784   7.254  1.2194  0.1238  0.9433
   84CHL1   C10 8661   6.242   4.657   7.087 -0.2921  1.0167  0.0452
   84CHL1   C19 8662   6.225   4.506   7.055 -0.1270  0.1987  0.3224
   84CHL1  H19A 8663   6.288   4.436   7.114  0.8682 -0.1631 -1.1176
   84CHL1  H19B 8664   6.122   4.476   7.082  0.2991  0.0081  1.8218
   84CHL1  H19C 8665   6.246   4.481   6.949  0.0014  1.0936  0.1225
   84CHL1    C1 8666   6.122   4.723   7.026 -0.5405 -0.2940  0.3318
   84CHL1   H1A 8667   6.027   4.674   7.058 -0.4239 -1.7041 -1.3479
   84CHL1   H1B 8668   6.126   4.828   7.061 -0.9264 -0.0167 -0.4231
   84CHL1    C2 8669   6.127   4.727   6.869  0.2121  0.2346  0.1509
   84CHL1   H2A 8670   6.032   4.774   6.835 -0.8488 -0.1106  2.4322
   84CHL1   H2B 8671   6.129   4.622   6.832 -0.4424 -0.1099  1.0366
   84CHL1   C20 8672   6.271   4.585   7.792  0.7258  0.7327  0.0802
   84CHL1   H20 8673   6.328   4.490   7.790 -0.5679 -0.0582 -0.7055
   84CHL1   C21 8674   6.129   4.526   7.792  0.5611  0.4678 -0.2046
   84CHL1  H21A 8675   6.114   4.455   7.708  0.2194 -0.8910  0.9643
   84CHL1  H21B 8676   6.055   4.606   7.777  1.4948  1.6239  1.0888
   84CHL1  H21C 8677   6.115   4.467   7.885  1.2713  1.0015  0.2444
   84CHL1   C22 8678   6.300   4.661   7.921 -1.2454  0.2303  0.0016
   84CHL1  H22A 8679   6.404   4.702   7.914 -1.9979  2.1552 -0.4596
   84CHL1  H22B 8680   6.223   4.735   7.950 -0.8321  0.4351  0.6143
   84CHL1   C23 8681   6.321   4.567   8.047  0.1707  0.2098  0.1927
   84CHL1  H23A 8682   6.222   4.515   8.047  0.0172  0.4759 -0.7801
   84CHL1  H23B 8683   6.409   4.501   8.035 -0.3364 -0.3841 -0.2999
   84CHL1   C24 8684   6.323   4.647   8.174 -0.4281  0.3064  0.4146
   84CHL1  H24A 8685   6.342   4.576   8.258 -2.2196 -1.0355 -0.2414
   84CHL1  H24B 8686   6.409   4.717   8.166 -0.2524  0.2280  1.5350
   84CHL1   C25 8687   6.206   4.730   8.215  0.7009 -1.5854 -0.0328
   84CHL1   H25 8688   6.190   4.813   8.142  2.8075 -1.7819 -0.7920
   84CHL1   C26 8689   6.067   4.657   8.217 -0.2934 -0.7531  0.3356
   84CHL1  H26A 8690   6.091   4.561   8.268 -0.7576 -1.8425 -1.3967
   84CHL1  H26B 8691   5.995   4.722   8.271 -0.5662 -1.5410  0.9366
   84CHL1  H26C 8692   6.040   4.639   8.111 -0.3963  3.6038 -0.5467
   84CHL1   C27 8693   6.228   4.797   8.357  0.4203  0.2326 -0.0832
   84CHL1  H27A 8694   6.143   4.867   8.370 -2.2371 -2.5460 -1.3240
   84CHL1  H27B 8695   6.232   4.720   8.437 -0.6000 -0.4917 -0.7090
   84CHL1  H27C 8696   6.324   4.853   8.347 -1.0149  2.7897 -0.4779
   85CHL1    C3 8697   5.315   4.145   6.600 -0.6939 -0.2473 -0.2053
   85CHL1    H3 8698   5.301   4.037   6.583  1.4352 -0.4589 -0.8408
   85CHL1    O3 8699   5.272   4.221   6.489  0.1175  0.5177  0.5917
   85CHL1   H3' 8700   5.280   4.316   6.503 -2.3086  0.8169  0.4208
   85CHL1    C4 8701   5.228   4.180   6.719  0.5010 -0.0848 -0.4686
   85CHL1   H4A 8702   5.229   4.288   6.746  0.2242 -0.1387 -0.2247
   85CHL1   H4B 8703   5.124   4.158   6.686  1.0343 -1.8259 -1.0672
   85CHL1    C5 8704   5.262   4.099   6.839  0.2111  0.3450  0.4552
   85CHL1    C6 8705   5.170   4.031   6.906 -0.0514 -0.1205  0.7874
   85CHL1    H6 8706   5.067   4.045   6.870  0.0685 -2.9894 -0.9454
   85CHL1    C7 8707   5.194   3.981   7.049  0.5833  0.0015 -0.2036
   85CHL1   H7A 8708   5.124   4.024   7.123 -0.1281 -1.9089  0.2872
   85CHL1   H7B 8709   5.180   3.872   7.033  1.2231 -0.0389 -0.5078
   85CHL1    C8 8710   5.333   4.010   7.107 -0.4185 -0.1708 -0.2663
   85CHL1    H8 8711   5.335   4.110   7.154 -0.9057 -1.3435  2.3946
   85CHL1   C14 8712   5.363   3.909   7.210 -0.1658 -0.3059  0.5148
   85CHL1   H14 8713   5.370   3.805   7.170  0.4590 -0.9169  2.1146
   85CHL1   C15 8714   5.264   3.897   7.321  0.6131  0.0194 -0.5451
   85CHL1  H15A 8715   5.237   3.998   7.358  2.2162  0.1403  0.4105
   85CHL1  H15B 8716   5.176   3.839   7.285  0.5460  0.3996 -1.0024
   85CHL1   C16 8717   5.331   3.812   7.427 -0.3104 -0.9265 -0.3229
   85CHL1  H16A 8718   5.312   3.845   7.531 -0.9515  0.5419 -0.8791
   85CHL1  H16B 8719   5.315   3.702   7.424  0.1954 -1.1604  2.7598
   85CHL1   C17 8720   5.479   3.813   7.379 -0.2132 -0.2125 -0.2626
   85CHL1   H17 8721   5.498   3.725   7.313 -1.7190  0.4598 -1.6774
   85CHL1   C13 8722   5.499   3.921   7.272  0.2422 -0.2725 -0.4032
   85CHL1   C18 8723   5.513   4.055   7.352  0.1202 -0.1042  0.7164
   85CHL1  H18A 8724   5.427   4.071   7.420 -0.7726 -1.1398 -0.1134
   85CHL1  H18B 8725   5.615   4.051   7.395  0.2840  0.4355  0.3930
   85CHL1  H18C 8726   5.506   4.140   7.281  0.0921 -0.7836 -0.1176
   85CHL1   C12 8727   5.601   3.900   7.156  0.9388  0.0994 -0.0510
   85CHL1  H12A 8728   5.706   3.888   7.188  0.7486 -2.0196 -0.0870
   85CHL1  H12B 8729   5.577   3.804   7.105  0.1213  0.9822 -1.4181
   85CHL1   C11 8730   5.589   4.001   7.048 -0.1182 -0.1187  0.1162
   85CHL1  H11A 8731   5.625   4.098   7.086 -0.9346 -0.3926  1.6880
   85CHL1  H11B 8732   5.651   3.979   6.959 -0.1237  1.9492 -0.4470
   85CHL1    C9 8733   5.439   4.007   6.993  0.3044 -0.1269 -0.0772
   85CHL1    H9 8734   5.423   3.909   6.942  0.4724  0.1443 -0.6563
   85CHL1   C10 8735   5.411   4.109   6.885  0.6468  0.1957  0.0604
   85CHL1   C19 8736   5.442   4.248   6.940  0.4158 -0.7509 -0.7132
   85CHL1  H19A 8737   5.550   4.256   6.963  0.8530 -1.6411 -2.3468
   85CHL1  H19B 8738   5.414   4.333   6.874 -0.4031  0.2874  0.8940
   85CHL1  H19C 8739   5.400   4.268   7.041  2.6313 -1.5673  0.4372
   85CHL1    C1 8740   5.505   4.091   6.761 -0.5412  0.4820  0.4838
   85CHL1   H1A 8741   5.607   4.115   6.797 -0.2083 -0.8038  0.4402
   85CHL1   H1B 8742   5.484   3.988   6.726 -0.1387  0.3323  0.6874
   85CHL1    C2 8743   5.462   4.181   6.637 -0.6569  0.6360 -0.2491
   85CHL1   H2A 8744   5.529   4.161   6.550 -1.6854 -1.2075 -0.6880
   85CHL1   H2B 8745   5.476   4.290   6.650 -1.6062  0.8241 -0.7619
   85CHL1   C20 8746   5.584   3.800   7.495 -0.4165 -0.5095  0.5553
   85CHL1   H20 8747   5.579   3.881   7.572 -0.9190 -0.3420  0.3491
   85CHL1   C21 8748   5.721   3.794   7.429 -0.3947 -0.6760 -0.0764
   85CHL1  H21A 8749   5.725   3.708   7.359 -1.9687 -1.1095  0.3447
   85CHL1  H21B 8750   5.803   3.778   7.502  0.1002  0.9310 -0.2443
   85CHL1  H21C 8751   5.750   3.887   7.376  0.3153 -0.8680 -0.0398
   85CHL1   C22 8752   5.561   3.670   7.573  0.3398  0.4570 -0.4749
   85CHL1  H22A 8753   5.454   3.662   7.601  0.7463 -1.7614  0.6920
   85CHL1  H22B 8754   5.587   3.582   7.510  0.7491  1.3055 -1.5210
   85CHL1   C23 8755   5.634   3.666   7.710  0.1993  0.1889  0.1074
   85CHL1  H23A 8756   5.743   3.688   7.700  0.3140 -0.1905  0.4701
   85CHL1  H23B 8757   5.578   3.742   7.770 -0.0954  0.2266 -0.2132
   85CHL1   C24 8758   5.609   3.527   7.770 -0.4325  0.0332  0.4725
   85CHL1  H24A 8759   5.502   3.513   7.741 -0.3309  0.4514 -0.1008
   85CHL1  H24B 8760   5.688   3.456   7.738  0.0362  1.1664 -0.9971
   85CHL1   C25 8761   5.607   3.535   7.926  0.5017 -0.2046 -0.0444
   85CHL1   H25 8762   5.546   3.625   7.947  2.6351  1.0708  1.1042
   85CHL1   C26 8763   5.555   3.414   8.002 -0.0995  0.5847 -0.1890
   85CHL1  H26A 8764   5.459   3.382   7.956  0.4405 -1.0581 -0.2413
   85CHL1  H26B 8765   5.630   3.333   7.985 -0.9218 -0.5001  1.0992
   85CHL1  H26C 8766   5.543   3.446   8.108 -2.0210 -0.0684 -0.1782
   85CHL1   C27 8767   5.743   3.578   7.980  0.0244  0.0638  0.7631
   85CHL1  H27A 8768   5.732   3.594   8.089 -2.5044  2.9693  0.2207
   85CHL1  H27B 8769   5.827   3.512   7.948  1.2011  0.7662  2.2761
   85CHL1  H27C 8770   5.776   3.670   7.926  0.4662 -1.4783 -1.7646
   86CHL1    C3 8771   0.490   6.767   6.882 -0.2026  0.1627  0.2422
   86CHL1    H3 8772   0.455   6.662   6.876 -3.4935  0.9910  2.3939
   86CHL1    O3 8773   0.499   6.829   6.758  0.4010 -0.4394  0.0641
   86CHL1   H3' 8774   0.591   6.833   6.733 -0.1176  1.1417 -1.7487
   86CHL1    C4 8775   0.393   6.850   6.970 -0.3502  0.1373 -0.2665
   86CHL1   H4A 8776   0.413   6.959   6.968 -1.1987  0.3054  0.2302
   86CHL1   H4B 8777   0.293   6.846   6.923 -0.6793 -1.6501  0.4994
   86CHL1    C5 8778   0.386   6.796   7.116 -0.8975  0.0234  0.3827
   86CHL1    C6 8779   0.273   6.765   7.171 -0.4809 -0.2117 -0.2545
   86CHL1    H6 8780   0.178   6.792   7.122 -0.3301  0.0758 -0.3893
   86CHL1    C7 8781   0.263   6.716   7.313 -0.1963  1.2404  0.0608
   86CHL1   H7A 8782   0.173   6.756   7.364 -0.0704 -0.3137  1.6180
   86CHL1   H7B 8783   0.250   6.606   7.326 -1.6802  1.2811 -0.8283
   86CHL1    C8 8784   0.390   6.751   7.400  0.4431  0.4746  0.3145
   86CHL1    H8 8785   0.384   6.860   7.421  0.8395  0.4705  0.4607
   86CHL1   C14 8786   0.385   6.674   7.530  0.2861 -0.2605 -0.3495
   86CHL1   H14 8787   0.388   6.566   7.506  2.4766 -0.3876  0.2749
   86CHL1   C15 8788   0.262   6.697   7.622 -0.2261 -0.5268 -0.5479
   86CHL1  H15A 8789   0.228   6.802   7.619  0.5618 -0.2272  0.4912
   86CHL1  H15B 8790   0.187   6.621   7.590 -0.3975 -1.1778  1.2537
   86CHL1   C16 8791   0.307   6.649   7.761 -0.0098 -0.2234  0.1499
   86CHL1  H16A 8792   0.278   6.727   7.834 -2.0969  0.4263 -1.2784
   86CHL1  H16B 8793   0.257   6.552   7.785 -1.7017  0.4477 -0.4525
   86CHL1   C17 8794   0.462   6.630   7.758  0.0120 -0.0886  0.6526
   86CHL1   H17 8795   0.471   6.521   7.741  0.6846 -0.2592  1.9611
   86CHL1   C13 8796   0.506   6.702   7.625  0.1504  0.1765  0.7876
   86CHL1   C18 8797   0.510   6.850   7.650 -0.3524 -0.3255  0.0920
   86CHL1  H18A 8798   0.600   6.874   7.710 -1.2085  1.5875  0.6743
   86CHL1  H18B 8799   0.518   6.917   7.562  2.0005  2.0303  1.9314
   86CHL1  H18C 8800   0.428   6.891   7.713 -1.7610 -1.9499 -0.5897
   86CHL1   C12 8801   0.627   6.643   7.547 -0.2800  0.3631  0.5781
   86CHL1  H12A 8802   0.722   6.667   7.600 -0.3344  1.6451  0.1188
   86CHL1  H12B 8803   0.622   6.533   7.531  1.4246  0.5199 -1.4298
   86CHL1   C11 8804   0.639   6.712   7.409  0.4562 -0.0528 -0.3331
   86CHL1  H11A 8805   0.680   6.809   7.442 -2.2847  0.6615  1.3472
   86CHL1  H11B 8806   0.718   6.659   7.351  1.1840 -0.8476  1.3367
   86CHL1    C9 8807   0.510   6.705   7.320  0.5627  0.3123 -0.3931
   86CHL1    H9 8808   0.490   6.598   7.296 -3.1006  0.6504  0.5982
   86CHL1   C10 8809   0.529   6.779   7.180  0.0614  0.1901 -0.4880
   86CHL1   C19 8810   0.584   6.915   7.211  0.5172 -0.1699  0.5339
   86CHL1  H19A 8811   0.588   6.972   7.116 -0.8029 -0.0631  0.5254
   86CHL1  H19B 8812   0.521   6.960   7.291  0.0340 -0.2162  0.1768
   86CHL1  H19C 8813   0.689   6.900   7.244  0.8169 -2.7955 -1.3437
   86CHL1    C1 8814   0.621   6.693   7.091 -0.2228 -0.0917  0.2203
   86CHL1   H1A 8815   0.723   6.689   7.134 -0.4523  0.1061  0.7968
   86CHL1   H1B 8816   0.578   6.591   7.096 -2.6221  0.8679  0.5370
   86CHL1    C2 8817   0.631   6.754   6.948  0.5666 -0.2032  0.6444
   86CHL1   H2A 8818   0.691   6.680   6.891  0.0207 -0.1774  0.0217
   86CHL1   H2B 8819   0.689   6.849   6.941  0.2269  0.0342  0.9864
   86CHL1   C20 8820   0.530   6.670   7.893  0.7241  0.3968  0.0440
   86CHL1   H20 8821   0.521   6.780   7.902 -1.0965  0.2853 -0.1293
   86CHL1   C21 8822   0.680   6.637   7.891  0.4087  0.1492 -0.2221
   86CHL1  H21A 8823   0.686   6.529   7.867  1.4458  0.3071 -0.7002
   86CHL1  H21B 8824   0.722   6.661   7.992 -2.5419  1.7553  0.7635
   86CHL1  H21C 8825   0.733   6.685   7.807  0.0069  0.5220 -0.2693
   86CHL1   C22 8826   0.462   6.611   8.024  0.2828 -0.9189  0.1335
   86CHL1  H22A 8827   0.355   6.642   8.023  0.4376 -0.2619  1.3996
   86CHL1  H22B 8828   0.450   6.502   8.007 -0.1889 -0.6417 -1.4928
   86CHL1   C23 8829   0.521   6.655   8.161  0.1032  0.0762 -0.4984
   86CHL1  H23A 8830   0.455   6.598   8.230  0.0225 -2.5843 -2.5936
   86CHL1  H23B 8831   0.621   6.610   8.175  0.2764 -0.4026 -2.8577
   86CHL1   C24 8832   0.516   6.805   8.205 -0.1179  0.2157  0.0926
   86CHL1  H24A 8833   0.587   6.861   8.140  0.3354  0.4456  0.7741
   86CHL1  H24B 8834   0.414   6.841   8.180 -0.5034 -1.9534 -1.7735
   86CHL1   C25 8835   0.543   6.841   8.350  0.5822 -0.0538  0.1451
   86CHL1   H25 8836   0.636   6.785   8.374  2.0210  1.4453 -1.6170
   86CHL1   C26 8837   0.581   6.984   8.362 -0.4235 -0.2779  0.0566
   86CHL1  H26A 8838   0.610   7.020   8.463  1.4595 -0.0490 -0.5275
   86CHL1  H26B 8839   0.678   7.003   8.311  0.6492 -1.9760  1.3770
   86CHL1  H26C 8840   0.507   7.058   8.325  2.6991  3.5593  0.8090
   86CHL1   C27 8841   0.436   6.799   8.457  0.6711  0.1984  0.2753
   86CHL1  H27A 8842   0.475   6.789   8.560 -3.0730 -1.2824  1.7087
   86CHL1  H27B 8843   0.349   6.868   8.453 -1.9109 -2.9168 -0.5486
   86CHL1  H27C 8844   0.394   6.697   8.452 -2.7790  1.5079 -0.6651
   87CHL1    C3 8845   0.664   1.992   7.077  0.4404 -0.1813 -0.0760
   87CHL1    H3 8846   0.672   2.099   7.107  2.6771  0.0874 -1.3848
   87CHL1    O3 8847   0.672   1.956   6.946  0.3733 -0.2294  0.0106
   87CHL1   H3' 8848   0.649   1.863   6.936  0.0342 -0.0082 -1.5625
   87CHL1    C4 8849   0.777   1.924   7.166 -0.1060  0.3517 -0.4674
   87CHL1   H4A 8850   0.783   1.815   7.143  0.7849 -0.3101  2.4915
   87CHL1   H4B 8851   0.874   1.964   7.129 -0.4236  1.3489 -0.2543
   87CHL1    C5 8852   0.752   1.959   7.308 -0.3742  0.0890 -0.0379
   87CHL1    C6 8853   0.849   2.015   7.377  0.7156  0.1081 -0.7770
   87CHL1    H6 8854   0.947   2.037   7.333  1.7706  1.2476  1.8899
   87CHL1    C7 8855   0.846   2.047   7.521  0.3581 -0.4109 -0.2139
   87CHL1   H7A 8856   0.941   2.011   7.566  0.4851  0.4728  0.2673
   87CHL1   H7B 8857   0.835   2.156   7.543 -3.3486 -0.1079 -2.7089
   87CHL1    C8 8858   0.729   1.982   7.604 -0.2494  0.3650  0.4345
   87CHL1    H8 8859   0.759   1.876   7.618  1.2721  0.8442  0.9859
   87CHL1   C14 8860   0.705   2.056   7.734  0.6558 -0.1285 -0.3440
   87CHL1   H14 8861   0.673   2.158   7.704 -1.6951 -1.0732 -1.3694
   87CHL1   C15 8862   0.821   2.063   7.823  0.0677 -0.9716 -0.3775
   87CHL1  H15A 8863   0.879   1.969   7.832 -0.4265 -1.1965  0.6378
   87CHL1  H15B 8864   0.890   2.139   7.781  0.5310  0.1925  2.3239
   87CHL1   C16 8865   0.767   2.101   7.962  0.3061 -0.4972  1.2058
   87CHL1  H16A 8866   0.819   2.041   8.039  1.8954  0.1682  0.6995
   87CHL1  H16B 8867   0.784   2.209   7.982 -1.0130 -0.0830  0.2594
   87CHL1   C17 8868   0.618   2.078   7.954  0.2178 -0.9775  0.3620
   87CHL1   H17 8869   0.568   2.176   7.941  0.0636 -1.2221 -1.0276
   87CHL1   C13 8870   0.590   1.994   7.818 -0.2139 -0.1856  0.3716
   87CHL1   C18 8871   0.610   1.841   7.843 -0.2886  0.0464  0.2593
   87CHL1  H18A 8872   0.536   1.794   7.911  0.8967 -2.4149 -0.0589
   87CHL1  H18B 8873   0.606   1.786   7.746 -1.3735  0.8291 -0.1663
   87CHL1  H18C 8874   0.711   1.823   7.884 -0.6861 -0.8604  0.8688
   87CHL1   C12 8875   0.471   2.030   7.737  0.1252  0.8795  0.1659
   87CHL1  H12A 8876   0.383   1.987   7.790 -0.2379  0.4410 -0.7514
   87CHL1  H12B 8877   0.438   2.136   7.733  1.1620  1.2455  0.9744
   87CHL1   C11 8878   0.472   1.978   7.592  0.3202 -0.0655 -0.6208
   87CHL1  H11A 8879   0.456   1.869   7.604  1.2255  0.0315  1.9451
   87CHL1  H11B 8880   0.386   2.016   7.533 -0.0062 -0.2650 -0.2804
   87CHL1    C9 8881   0.604   1.996   7.517  0.6547  0.0574 -0.1592
   87CHL1    H9 8882   0.605   2.102   7.485  0.6424 -0.5010 -2.1870
   87CHL1   C10 8883   0.616   1.932   7.371 -0.1400  0.2570  0.6580
   87CHL1   C19 8884   0.595   1.780   7.383 -0.0443 -0.0999 -0.0990
   87CHL1  H19A 8885   0.669   1.743   7.458  2.1023  2.4790 -0.7908
   87CHL1  H19B 8886   0.490   1.767   7.417 -0.5676  1.8905 -0.8028
   87CHL1  H19C 8887   0.608   1.725   7.287 -0.3365  1.1485 -0.8825
   87CHL1    C1 8888   0.500   1.992   7.287 -0.0707 -0.1259  0.1493
   87CHL1   H1A 8889   0.399   1.955   7.315 -0.6357  1.2204 -0.0315
   87CHL1   H1B 8890   0.508   2.103   7.294  0.0286  0.1077 -2.8028
   87CHL1    C2 8891   0.521   1.957   7.136 -1.0008 -0.5843  0.1367
   87CHL1   H2A 8892   0.443   2.007   7.075  0.6225  0.1827 -1.4063
   87CHL1   H2B 8893   0.524   1.846   7.124 -0.6343 -0.6283  0.6240
   87CHL1   C20 8894   0.560   2.023   8.088 -0.0352 -0.2967 -0.2038
   87CHL1   H20 8895   0.612   1.926   8.106  0.5389  0.0632  0.0849
   87CHL1   C21 8896   0.407   2.004   8.080 -0.3285  0.6203  0.3798
   87CHL1  H21A 8897   0.372   1.942   7.995  1.9829 -1.7666  1.0348
   87CHL1  H21B 8898   0.360   2.104   8.076 -0.4120  0.5935  0.7358
   87CHL1  H21C 8899   0.366   1.952   8.169 -2.9397  2.1937  0.1788
   87CHL1   C22 8900   0.612   2.114   8.206 -0.1189 -0.2280 -0.2724
   87CHL1  H22A 8901   0.723   2.120   8.211 -0.0429 -1.8205  0.5328
   87CHL1  H22B 8902   0.565   2.213   8.187  0.0019  0.1610  1.3011
   87CHL1   C23 8903   0.579   2.055   8.342 -0.3631  0.3082  0.3178
   87CHL1  H23A 8904   0.470   2.037   8.349 -0.3773  0.9493  2.3206
   87CHL1  H23B 8905   0.624   1.955   8.358 -0.2484  0.4068  0.6214
   87CHL1   C24 8906   0.610   2.149   8.466 -0.5978 -0.0298 -0.1122
   87CHL1  H24A 8907   0.593   2.257   8.446 -0.0641 -0.3010 -2.2596
   87CHL1  H24B 8908   0.541   2.120   8.548  1.7844 -0.4781  1.8276
   87CHL1   C25 8909   0.755   2.127   8.517  0.1319 -0.2264 -0.4870
   87CHL1   H25 8910   0.823   2.107   8.432 -1.3488  1.1274 -2.0724
   87CHL1   C26 8911   0.810   2.247   8.599  0.0320  0.2316 -0.0009
   87CHL1  H26A 8912   0.904   2.209   8.644  0.4202  1.2046  0.0379
   87CHL1  H26B 8913   0.833   2.334   8.534 -1.9798 -0.0772 -1.2327
   87CHL1  H26C 8914   0.743   2.281   8.681  1.0980  0.3634  0.8396
   87CHL1   C27 8915   0.765   2.001   8.609  0.2103 -0.0477  0.2395
   87CHL1  H27A 8916   0.689   1.996   8.691  2.0119 -3.9521  1.9589
   87CHL1  H27B 8917   0.742   1.914   8.544  0.4528 -0.4412  0.6733
   87CHL1  H27C 8918   0.865   1.992   8.656  0.1282 -0.0045  0.4260
   88CHL1    C3 8919   5.520   6.102   6.935  0.5272  0.6733  0.3397
   88CHL1    H3 8920   5.421   6.051   6.941  0.1590  0.8040 -2.6737
   88CHL1    O3 8921   5.544   6.139   6.797  0.2871  0.5313  0.3478
   88CHL1   H3' 8922   5.638   6.139   6.778 -0.0181 -0.7491 -1.3862
   88CHL1    C4 8923   5.513   6.232   7.013 -0.9080  0.6641  0.0742
   88CHL1   H4A 8924   5.614   6.275   6.996 -1.0440  1.7830  1.8819
   88CHL1   H4B 8925   5.442   6.303   6.965 -1.5076 -2.0351 -3.5316
   88CHL1    C5 8926   5.496   6.212   7.163  0.2209 -0.2661  0.1229
   88CHL1    C6 8927   5.393   6.261   7.237  0.5098 -0.0977  0.0704
   88CHL1    H6 8928   5.317   6.320   7.183 -0.4786 -1.0454  0.4141
   88CHL1    C7 8929   5.374   6.251   7.383 -0.7459  0.5143  0.1209
   88CHL1   H7A 8930   5.372   6.347   7.439 -2.9052 -1.1122  3.1109
   88CHL1   H7B 8931   5.277   6.201   7.405 -1.1892  0.4915 -1.6590
   88CHL1    C8 8932   5.491   6.169   7.447  0.8019 -0.4919  0.5662
   88CHL1    H8 8933   5.574   6.240   7.467 -1.1116  2.3172 -0.8141
   88CHL1   C14 8934   5.440   6.115   7.580 -0.1611  0.1057 -0.2176
   88CHL1   H14 8935   5.358   6.044   7.559  0.1770 -0.2712 -0.2773
   88CHL1   C15 8936   5.365   6.212   7.676  0.4229 -0.5878 -0.1502
   88CHL1  H15A 8937   5.426   6.304   7.689 -0.1314 -0.2739  0.2702
   88CHL1  H15B 8938   5.265   6.238   7.637 -0.0786 -0.8524  0.9283
   88CHL1   C16 8939   5.369   6.137   7.808  0.2287  0.0974 -0.0490
   88CHL1  H16A 8940   5.409   6.202   7.889 -0.9371  1.0140 -0.1887
   88CHL1  H16B 8941   5.270   6.093   7.832  0.3567 -0.5410 -0.6574
   88CHL1   C17 8942   5.467   6.015   7.790 -0.2893  0.3785  0.5733
   88CHL1   H17 8943   5.404   5.929   7.758 -1.3282  1.7044 -1.0756
   88CHL1   C13 8944   5.547   6.045   7.659 -0.0429  0.2422 -0.4985
   88CHL1   C18 8945   5.660   6.134   7.707 -0.2799 -0.0677  0.5308
   88CHL1  H18A 8946   5.713   6.176   7.618 -1.5839  2.6474  0.9309
   88CHL1  H18B 8947   5.621   6.219   7.767 -0.3027 -0.6638  1.3830
   88CHL1  H18C 8948   5.734   6.075   7.764  0.5212  0.1572 -0.2611
   88CHL1   C12 8949   5.586   5.916   7.577  0.1755 -0.3951  0.2704
   88CHL1  H12A 8950   5.650   5.844   7.631  0.6479 -1.1245 -1.1955
   88CHL1  H12B 8951   5.494   5.855   7.560  2.0322 -3.1223 -0.5975
   88CHL1   C11 8952   5.643   5.954   7.436 -0.5836 -0.3066 -0.5189
   88CHL1  H11A 8953   5.745   5.991   7.461 -0.4386 -1.3486  0.5043
   88CHL1  H11B 8954   5.662   5.862   7.378 -1.3259 -0.5594 -0.3682
   88CHL1    C9 8955   5.550   6.054   7.357 -0.3261 -0.6468 -0.1259
   88CHL1    H9 8956   5.459   5.993   7.338 -1.0072 -0.6651  2.7483
   88CHL1   C10 8957   5.598   6.103   7.224  0.0132 -0.0160 -0.0271
   88CHL1   C19 8958   5.735   6.171   7.229  0.2262 -0.2810  0.1177
   88CHL1  H19A 8959   5.734   6.270   7.280 -0.3671  0.1862 -0.7748
   88CHL1  H19B 8960   5.816   6.104   7.265 -0.4823 -0.9095  0.5773
   88CHL1  H19C 8961   5.762   6.193   7.124 -1.5751 -0.9047 -0.5094
   88CHL1    C1 8962   5.608   5.982   7.127 -0.4295 -0.3549 -0.0330
   88CHL1   H1A 8963   5.695   5.919   7.155  1.2787  2.0480  0.3689
   88CHL1   H1B 8964   5.516   5.921   7.135  0.1867 -1.2898  0.0749
   88CHL1    C2 8965   5.625   6.010   6.980 -0.3717  0.5248  0.2440
   88CHL1   H2A 8966   5.635   5.911   6.931  3.0325  0.3170  1.0415
   88CHL1   H2B 8967   5.720   6.063   6.954 -0.3443  0.3932  0.0764
   88CHL1   C20 8968   5.531   5.962   7.923 -0.0176 -0.4762 -0.5333
   88CHL1   H20 8969   5.618   6.027   7.948  0.3221  0.4145 -3.5865
   88CHL1   C21 8970   5.595   5.821   7.896  0.4594 -0.0031 -0.3398
   88CHL1  H21A 8971   5.678   5.833   7.824  1.1914  0.8666  0.6279
   88CHL1  H21B 8972   5.510   5.765   7.852  0.8425 -0.3186 -0.6871
   88CHL1  H21C 8973   5.626   5.768   7.989 -1.4418  1.3118  1.1289
   88CHL1   C22 8974   5.458   5.942   8.061  0.6393 -0.3413  0.1115
   88CHL1  H22A 8975   5.395   6.033   8.073  1.2769 -0.0484  1.4431
   88CHL1  H22B 8976   5.388   5.857   8.071  0.8790 -0.5189  0.2852
   88CHL1   C23 8977   5.554   5.943   8.182 -0.2297  0.3368 -0.1965
   88CHL1  H23A 8978   5.624   5.857   8.179 -1.1411 -0.4411  0.3482
   88CHL1  H23B 8979   5.615   6.035   8.168  0.0832  0.3415  1.1002
   88CHL1   C24 8980   5.498   5.947   8.330 -0.6982  0.1559  0.1170
   88CHL1  H24A 8981   5.465   6.053   8.341  1.1873  0.8808 -0.7834
   88CHL1  H24B 8982   5.415   5.874   8.321 -1.1675  0.6170  0.6588
   88CHL1   C25 8983   5.607   5.916   8.438 -0.0484  0.6938  0.7453
   88CHL1   H25 8984   5.654   5.817   8.416 -1.2763  0.5382 -1.4733
   88CHL1   C26 8985   5.725   6.008   8.434 -0.2935  0.2032 -0.0901
   88CHL1  H26A 8986   5.782   5.977   8.344 -2.4351 -0.3359 -1.3275
   88CHL1  H26B 8987   5.691   6.114   8.437  0.2837  0.3885  2.3228
   88CHL1  H26C 8988   5.787   5.990   8.524 -0.5161  2.1303  0.4986
   88CHL1   C27 8989   5.553   5.904   8.575  0.0498 -0.0461  0.4077
   88CHL1  H27A 8990   5.507   5.994   8.621  1.7390  1.1565 -0.1454
   88CHL1  H27B 8991   5.483   5.819   8.581 -1.6944  1.2679 -0.4802
   88CHL1  H27C 8992   5.636   5.894   8.649  1.0745  2.5083 -0.2762
   89CHL1    C3 8993   1.903   6.062   7.211  0.0732 -0.1783  0.1978
   89CHL1    H3 8994   2.004   6.099   7.241 -0.0967  0.6804 -0.2531
   89CHL1    O3 8995   1.879   6.079   7.069  0.2874  0.1986 -0.0392
   89CHL1   H3' 8996   1.933   6.016   7.023 -1.4795 -0.1301 -1.7939
   89CHL1    C4 8997   1.887   5.913   7.255  0.2496 -0.0912  0.1867
   89CHL1   H4A 8998   1.782   5.889   7.228  0.6192  0.5479 -2.0590
   89CHL1   H4B 8999   1.958   5.855   7.193  2.5475  1.4040  1.2832
   89CHL1    C5 9000   1.897   5.887   7.401  0.1766  0.5597  0.1896
   89CHL1    C6 9001   1.973   5.789   7.449 -0.3473 -0.9156  0.2222
   89CHL1    H6 9002   2.029   5.730   7.375 -2.0792 -0.6425 -1.3891
   89CHL1    C7 9003   1.968   5.750   7.594 -0.4562 -0.0002  0.2850
   89CHL1   H7A 9004   1.957   5.640   7.598 -1.0419  0.0818  2.0021
   89CHL1   H7B 9005   2.061   5.780   7.648 -1.6980  0.3711  2.3332
   89CHL1    C8 9006   1.861   5.827   7.680  0.5344  0.6502  0.0191
   89CHL1    H8 9007   1.759   5.783   7.666 -0.3482  2.1448  1.4244
   89CHL1   C14 9008   1.903   5.808   7.823 -0.0278  0.4714 -0.6551
   89CHL1   H14 9009   1.999   5.861   7.837 -0.4614  0.6149  2.3460
   89CHL1   C15 9010   1.934   5.661   7.873  0.4083 -0.3542 -0.3745
   89CHL1  H15A 9011   1.840   5.607   7.850 -0.3298 -0.8533  3.1620
   89CHL1  H15B 9012   2.030   5.613   7.844  0.3021 -1.3849  0.8866
   89CHL1   C16 9013   1.935   5.688   8.025 -0.9349 -0.3361 -0.5634
   89CHL1  H16A 9014   1.873   5.612   8.078  1.6955 -2.0047  0.3239
   89CHL1  H16B 9015   2.040   5.677   8.060 -0.3590  0.8446 -1.8531
   89CHL1   C17 9016   1.877   5.826   8.061 -0.5322  0.6663 -0.0403
   89CHL1   H17 9017   1.962   5.894   8.081 -2.6978  3.0790  1.8073
   89CHL1   C13 9018   1.814   5.877   7.930 -0.1140  0.0172  0.4853
   89CHL1   C18 9019   1.670   5.827   7.918 -0.0862 -0.5998  0.1712
   89CHL1  H18A 9020   1.629   5.844   7.816  0.6151  0.5883  0.0762
   89CHL1  H18B 9021   1.662   5.717   7.932 -0.0473 -0.7948 -1.2003
   89CHL1  H18C 9022   1.602   5.871   7.994  0.8748 -0.4910  0.9948
   89CHL1   C12 9023   1.821   6.027   7.904  0.0179 -0.8362 -0.3400
   89CHL1  H12A 9024   1.746   6.087   7.960  0.2933  1.3363 -2.1339
   89CHL1  H12B 9025   1.924   6.063   7.927  0.8235 -3.5521  0.6704
   89CHL1   C11 9026   1.781   6.049   7.752  0.0656 -0.0924 -0.3435
   89CHL1  H11A 9027   1.676   6.013   7.749 -0.9416  2.0302  3.2292
   89CHL1  H11B 9028   1.781   6.160   7.743 -0.8824  0.0820  1.3171
   89CHL1    C9 9029   1.854   5.975   7.643 -0.5455 -0.0694 -0.6794
   89CHL1    H9 9030   1.961   6.004   7.648 -0.8019  0.7435  0.7498
   89CHL1   C10 9031   1.811   5.989   7.490 -0.3482  0.8386  0.1318
   89CHL1   C19 9032   1.661   5.957   7.490  0.1875  0.6222  0.3053
   89CHL1  H19A 9033   1.616   5.978   7.390  0.0987  2.6296  0.7241
   89CHL1  H19B 9034   1.636   5.851   7.510  1.0818  0.5486  1.0719
   89CHL1  H19C 9035   1.610   6.025   7.561 -0.2763  1.4134 -0.7652
   89CHL1    C1 9036   1.832   6.141   7.440 -0.0298  0.4838 -1.0075
   89CHL1   H1A 9037   1.768   6.209   7.500 -0.4962  0.1538 -1.1248
   89CHL1   H1B 9038   1.937   6.170   7.464  0.4327 -2.1544  0.6356
   89CHL1    C2 9039   1.806   6.152   7.291  0.1376 -0.1084  0.7778
   89CHL1   H2A 9040   1.816   6.258   7.258  1.4326 -0.9145 -1.6777
   89CHL1   H2B 9041   1.702   6.117   7.275  0.2420  0.4801 -1.5244
   89CHL1   C20 9042   1.799   5.826   8.197  0.0992 -0.2875 -0.1920
   89CHL1   H20 9043   1.708   5.769   8.171 -0.0416 -0.5741  0.9052
   89CHL1   C21 9044   1.752   5.970   8.240  0.0337  0.7317  0.2693
   89CHL1  H21A 9045   1.726   6.027   8.148 -0.9717  0.1531  0.1802
   89CHL1  H21B 9046   1.834   6.019   8.297 -0.5990  1.2440  0.7534
   89CHL1  H21C 9047   1.661   5.949   8.300  0.7264  0.5375  1.2894
   89CHL1   C22 9048   1.883   5.766   8.316  0.3998 -0.3435 -1.1303
   89CHL1  H22A 9049   1.827   5.793   8.409 -0.4377 -0.2845 -1.6441
   89CHL1  H22B 9050   1.890   5.657   8.299  2.5161 -0.5377  0.5111
   89CHL1   C23 9051   2.024   5.819   8.331  0.5064 -0.1068  0.0036
   89CHL1  H23A 9052   2.073   5.795   8.235 -0.0934 -0.1379 -0.2989
   89CHL1  H23B 9053   2.016   5.928   8.351  0.5307  0.1672 -1.4013
   89CHL1   C24 9054   2.093   5.744   8.446  0.5638  0.4159  0.4521
   89CHL1  H24A 9055   2.069   5.784   8.546 -3.2748 -2.7802  1.0101
   89CHL1  H24B 9056   2.073   5.635   8.444 -1.1603  0.6997  0.8501
   89CHL1   C25 9057   2.253   5.737   8.429  0.2936  0.9990 -0.5220
   89CHL1   H25 9058   2.278   5.836   8.386 -0.4103  0.5635 -1.9800
   89CHL1   C26 9059   2.323   5.731   8.561 -0.8828  0.0152  0.4424
   89CHL1  H26A 9060   2.431   5.757   8.556 -1.3799  2.0998 -0.5567
   89CHL1  H26B 9061   2.279   5.802   8.634 -1.2518  0.0803  0.1579
   89CHL1  H26C 9062   2.321   5.630   8.607  2.3823 -0.2306  0.2875
   89CHL1   C27 9063   2.300   5.637   8.327  0.4132 -0.4841  0.1659
   89CHL1  H27A 9064   2.270   5.678   8.229 -2.4029 -1.2818  0.5968
   89CHL1  H27B 9065   2.408   5.611   8.329  0.4814 -0.2489 -0.3679
   89CHL1  H27C 9066   2.238   5.545   8.339  0.0939 -0.1913  0.8311
   90CHL1    C3 9067   0.976   0.408   6.963 -0.1593  0.5415 -0.1013
   90CHL1    H3 9068   1.083   0.377   6.970  0.1216  1.4825 -0.1211
   90CHL1    O3 9069   0.939   0.429   6.827 -0.3790 -0.1600  0.2754
   90CHL1   H3' 9070   0.994   0.502   6.797 -1.6485  0.6779 -0.1118
   90CHL1    C4 9071   0.876   0.302   7.022  0.0300 -0.3079 -0.4266
   90CHL1   H4A 9072   0.779   0.353   7.001  0.4193  1.0609  0.9042
   90CHL1   H4B 9073   0.886   0.209   6.962 -0.1779 -1.6861  1.5667
   90CHL1    C5 9074   0.898   0.281   7.170 -0.4472  0.8486 -0.4203
   90CHL1    C6 9075   0.931   0.157   7.209  0.2479  0.3395 -0.0218
   90CHL1    H6 9076   0.945   0.083   7.129 -0.6682  0.8840 -0.7169
   90CHL1    C7 9077   0.950   0.112   7.348 -0.1899 -0.3075 -0.8390
   90CHL1   H7A 9078   0.899   0.018   7.377  0.1776  0.0020  0.9249
   90CHL1   H7B 9079   1.060   0.109   7.368 -0.4885  0.2158  1.0582
   90CHL1    C8 9080   0.914   0.219   7.447  0.9219 -0.1460 -0.5639
   90CHL1    H8 9081   0.804   0.209   7.461  1.0214 -2.8463 -1.3016
   90CHL1   C14 9082   0.988   0.189   7.577 -0.3845 -0.1862 -0.2798
   90CHL1   H14 9083   1.097   0.190   7.559  0.0995 -1.1966  2.1676
   90CHL1   C15 9084   0.963   0.054   7.643 -0.1659 -0.2018 -0.5026
   90CHL1  H15A 9085   0.856   0.032   7.660 -0.0205  0.2347  1.1392
   90CHL1  H15B 9086   1.012  -0.031   7.590  2.4389  3.1528 -4.1654
   90CHL1   C16 9087   1.032   0.067   7.782  0.7399 -0.0653  0.6319
   90CHL1  H16A 9088   0.963   0.024   7.858  0.4781  0.9432  0.9903
   90CHL1  H16B 9089   1.135   0.027   7.781  1.6822  2.1815  0.7255
   90CHL1   C17 9090   1.041   0.216   7.808 -0.5536 -0.3969 -0.0395
   90CHL1   H17 9091   1.148   0.244   7.799 -0.5889  0.6299  2.0562
   90CHL1   C13 9092   0.960   0.284   7.695 -0.7166 -0.4043 -0.5100
   90CHL1   C18 9093   0.813   0.280   7.727  0.5985 -0.0704  0.1519
   90CHL1  H18A 9094   0.778   0.187   7.778 -0.5848  0.6809  0.7732
   90CHL1  H18B 9095   0.789   0.356   7.804 -1.8026 -1.4166  0.8462
   90CHL1  H18C 9096   0.751   0.312   7.640  0.7933  2.6596  0.9372
   90CHL1   C12 9097   1.016   0.423   7.647  0.7861  0.6220 -0.0576
   90CHL1  H12A 9098   1.003   0.494   7.732  0.4269 -2.2335  2.4220
   90CHL1  H12B 9099   1.123   0.410   7.621 -0.0033 -5.2539 -1.7093
   90CHL1   C11 9100   0.943   0.472   7.516 -0.0198  0.2869 -0.1860
   90CHL1  H11A 9101   0.838   0.500   7.539  0.4464  2.5776 -0.6690
   90CHL1  H11B 9102   0.987   0.565   7.474 -2.3839  0.9053 -1.4626
   90CHL1    C9 9103   0.957   0.361   7.400 -0.2036  0.2371 -0.6270
   90CHL1    H9 9104   1.066   0.355   7.383 -0.1724  1.9607 -1.2920
   90CHL1   C10 9105   0.903   0.402   7.264  0.5694  0.4549  0.2212
   90CHL1   C19 9106   0.759   0.441   7.275  0.0317  0.1998 -0.2871
   90CHL1  H19A 9107   0.688   0.358   7.296 -1.8699  1.6680 -0.6211
   90CHL1  H19B 9108   0.737   0.510   7.360 -3.0075 -1.9167  0.8192
   90CHL1  H19C 9109   0.732   0.496   7.182 -0.7682 -2.6587 -1.8515
   90CHL1    C1 9110   0.990   0.514   7.192  0.0100 -0.0505 -0.5628
   90CHL1   H1A 9111   0.948   0.610   7.229  0.5339  0.2734 -0.8045
   90CHL1   H1B 9112   1.097   0.506   7.221  0.2279 -1.4134 -1.6535
   90CHL1    C2 9113   0.967   0.534   7.045  0.0384 -0.2727 -0.7246
   90CHL1   H2A 9114   1.033   0.616   7.009  0.3028 -0.1598  0.0076
   90CHL1   H2B 9115   0.862   0.567   7.027  0.1840  0.6299  0.0161
   90CHL1   C20 9116   1.018   0.254   7.956  0.2598  0.1128 -0.1016
   90CHL1   H20 9117   0.920   0.217   7.992  1.1660 -0.1589  2.2599
   90CHL1   C21 9118   1.034   0.407   7.971  0.5906 -0.3240 -0.0397
   90CHL1  H21A 9119   1.129   0.439   7.924  0.7279 -0.0900  0.3953
   90CHL1  H21B 9120   1.031   0.435   8.078 -0.5272 -1.2579  0.1967
   90CHL1  H21C 9121   0.948   0.451   7.916  1.9916 -0.2121 -2.2694
   90CHL1   C22 9122   1.116   0.182   8.058  0.2313 -0.9303  0.3350
   90CHL1  H22A 9123   1.129   0.075   8.032 -0.9198 -1.2612  1.0565
   90CHL1  H22B 9124   1.210   0.242   8.054 -0.9546  0.9503 -1.1536
   90CHL1   C23 9125   1.068   0.185   8.209  0.2452 -0.1951 -0.6598
   90CHL1  H23A 9126   1.061   0.293   8.235 -0.1982 -0.1959 -0.7660
   90CHL1  H23B 9127   0.971   0.131   8.215  1.7419 -2.9738  0.3275
   90CHL1   C24 9128   1.153   0.119   8.312 -0.1498  0.9603  0.5373
   90CHL1  H24A 9129   1.148   0.008   8.313 -2.0817  0.9993 -0.1815
   90CHL1  H24B 9130   1.258   0.148   8.294  0.3902 -0.1178  1.7137
   90CHL1   C25 9131   1.117   0.160   8.460  0.4928  0.2080  0.1793
   90CHL1   H25 9132   1.087   0.267   8.470 -2.1645 -0.6780  4.8857
   90CHL1   C26 9133   0.992   0.084   8.509 -0.7033  0.1777  0.0488
   90CHL1  H26A 9134   0.955   0.125   8.606  0.1443  1.2736 -0.0731
   90CHL1  H26B 9135   0.916   0.100   8.429 -0.0816 -0.1747 -0.6259
   90CHL1  H26C 9136   1.006  -0.026   8.514 -1.3467  0.1379  1.4938
   90CHL1   C27 9137   1.237   0.137   8.546 -0.1331 -0.2207 -0.0930
   90CHL1  H27A 9138   1.222   0.174   8.650 -0.1697 -0.2683 -0.0816
   90CHL1  H27B 9139   1.265   0.029   8.555 -1.1470 -0.3862  1.6655
   90CHL1  H27C 9140   1.324   0.189   8.502 -1.6998  3.1719  0.4575
   91CHL1    C3 9141   2.017   6.481   7.130  0.0635 -0.4773  0.0540
   91CHL1    H3 9142   1.957   6.388   7.120  1.4431 -1.1711 -2.6521
   91CHL1    O3 9143   2.047   6.522   6.995 -0.2442  0.2657 -0.0021
   91CHL1   H3' 9144   2.043   6.438   6.949 -0.4270  1.1114 -1.6192
   91CHL1    C4 9145   1.935   6.580   7.213  0.5906  0.0350 -0.0106
   91CHL1   H4A 9146   1.984   6.679   7.210  0.5845  0.1089  1.4759
   91CHL1   H4B 9147   1.837   6.605   7.167 -0.8646  1.5405  3.5447
   91CHL1    C5 9148   1.913   6.541   7.356  0.0789  0.0027  0.0350
   91CHL1    C6 9149   1.797   6.544   7.416 -0.4958  0.5652 -0.2407
   91CHL1    H6 9150   1.709   6.573   7.356  0.6978 -1.0465 -2.9518
   91CHL1    C7 9151   1.783   6.530   7.568  0.2146  0.3134 -0.6365
   91CHL1   H7A 9152   1.714   6.597   7.624 -1.4007 -1.1131 -0.8421
   91CHL1   H7B 9153   1.746   6.427   7.583 -2.9680  1.6755  2.1535
   91CHL1    C8 9154   1.922   6.527   7.650  0.5183  0.3369  0.1686
   91CHL1    H8 9155   1.946   6.635   7.661 -1.1738  0.7773 -0.1877
   91CHL1   C14 9156   1.904   6.464   7.790 -0.0656 -0.6484  0.4537
   91CHL1   H14 9157   1.865   6.361   7.776 -1.9970  0.0632  0.2996
   91CHL1   C15 9158   1.798   6.534   7.879 -0.3352  0.0947  0.2628
   91CHL1  H15A 9159   1.810   6.644   7.872 -0.8584  0.1108 -0.5421
   91CHL1  H15B 9160   1.692   6.507   7.862 -0.0108 -0.3212 -1.2514
   91CHL1   C16 9161   1.834   6.481   8.022  0.1231 -0.2431 -0.5715
   91CHL1  H16A 9162   1.839   6.567   8.091  0.5299 -1.1025  0.5059
   91CHL1  H16B 9163   1.751   6.414   8.054  0.3986 -1.5044 -2.3092
   91CHL1   C17 9164   1.966   6.406   8.011  0.5436 -0.3921  0.7160
   91CHL1   H17 9165   1.934   6.302   7.991  0.6221 -0.4931  1.1078
   91CHL1   C13 9166   2.027   6.457   7.881  0.8951  0.2539  0.8575
   91CHL1   C18 9167   2.078   6.604   7.904 -0.1986 -0.5086  0.6508
   91CHL1  H18A 9168   2.188   6.606   7.912  0.2134  2.0369 -3.0925
   91CHL1  H18B 9169   2.060   6.669   7.816 -1.9554 -1.7568  0.0285
   91CHL1  H18C 9170   2.031   6.662   7.987 -1.0936  2.6826 -1.8669
   91CHL1   C12 9171   2.127   6.373   7.805 -0.2306  0.4479  0.7344
   91CHL1  H12A 9172   2.224   6.366   7.858  0.9565 -3.9597 -1.5066
   91CHL1  H12B 9173   2.089   6.272   7.776  0.4251  0.6524 -0.9808
   91CHL1   C11 9174   2.156   6.434   7.665  0.1450 -0.5352  0.2207
   91CHL1  H11A 9175   2.219   6.521   7.691 -0.2301 -0.5609  1.2448
   91CHL1  H11B 9176   2.229   6.373   7.607  0.2463 -0.9833  0.8106
   91CHL1    C9 9177   2.027   6.451   7.574 -0.1504  0.1079  0.1879
   91CHL1    H9 9178   1.984   6.350   7.557 -1.4238  0.7406 -0.4973
   91CHL1   C10 9179   2.048   6.504   7.428 -0.0446 -0.2155  0.3886
   91CHL1   C19 9180   2.132   6.633   7.438  0.3141 -0.1784  0.2519
   91CHL1  H19A 9181   2.147   6.678   7.337 -0.2107  0.3533  0.4040
   91CHL1  H19B 9182   2.074   6.703   7.501  0.1702  0.1086 -0.1948
   91CHL1  H19C 9183   2.234   6.618   7.481 -0.1385 -1.0795  1.0312
   91CHL1    C1 9184   2.136   6.402   7.348 -0.3975  0.2981 -0.5765
   91CHL1   H1A 9185   2.236   6.391   7.395 -1.0602 -0.0766  0.7903
   91CHL1   H1B 9186   2.071   6.313   7.347  1.3309 -1.0409  0.4359
   91CHL1    C2 9187   2.149   6.446   7.199 -0.1792 -0.4234 -0.1557
   91CHL1   H2A 9188   2.193   6.361   7.141 -1.0646 -1.5716  0.8109
   91CHL1   H2B 9189   2.209   6.539   7.205 -2.2481  0.9516  0.1937
   91CHL1   C20 9190   2.048   6.414   8.142  0.3695  0.0465 -0.1559
   91CHL1   H20 9191   2.102   6.510   8.150  1.9929 -0.8957  0.8594
   91CHL1   C21 9192   2.133   6.294   8.140  0.2388 -0.1452 -0.1057
   91CHL1  H21A 9193   2.204   6.302   8.225  1.4006  1.3525 -1.1703
   91CHL1  H21B 9194   2.193   6.279   8.048  0.0905  1.2440 -0.4638
   91CHL1  H21C 9195   2.077   6.201   8.164  1.5107 -0.8599  0.1484
   91CHL1   C22 9196   1.959   6.412   8.275 -0.0720  0.4192 -0.0929
   91CHL1  H22A 9197   1.894   6.503   8.269  2.2142  2.0657 -2.2176
   91CHL1  H22B 9198   1.900   6.319   8.279  2.3774 -1.2364 -0.2104
   91CHL1   C23 9199   2.036   6.433   8.406  0.3321 -0.0461 -0.4904
   91CHL1  H23A 9200   2.121   6.364   8.425  0.1223 -0.7005 -1.8178
   91CHL1  H23B 9201   2.077   6.536   8.412 -1.5399  0.6743  1.8408
   91CHL1   C24 9202   1.931   6.420   8.529 -0.3792  0.3705  0.1933
   91CHL1  H24A 9203   1.991   6.455   8.616 -1.9476 -0.1704  1.5539
   91CHL1  H24B 9204   1.844   6.489   8.519 -0.2411  0.3099 -1.6366
   91CHL1   C25 9205   1.886   6.278   8.573  0.5084  0.2342 -0.1263
   91CHL1   H25 9206   1.825   6.237   8.490  0.0666  2.4455 -0.9558
   91CHL1   C26 9207   2.004   6.184   8.599  0.3237  0.7797 -0.5755
   91CHL1  H26A 9208   1.984   6.093   8.659 -1.1215  0.1137 -1.9989
   91CHL1  H26B 9209   2.043   6.139   8.506 -1.3284 -0.7771 -0.5752
   91CHL1  H26C 9210   2.087   6.239   8.648 -0.3732  0.9928  0.4080
   91CHL1   C27 9211   1.804   6.288   8.705 -0.3521 -0.2522  0.0011
   91CHL1  H27A 9212   1.787   6.186   8.745  1.4457 -0.2907  0.7361
   91CHL1  H27B 9213   1.861   6.361   8.766  0.2182  0.0598 -0.8773
   91CHL1  H27C 9214   1.710   6.344   8.683 -0.1617 -0.0835 -0.3962
   92CHL1    C3 9215   5.526   5.343   6.830 -0.9316 -0.0927 -0.2967
   92CHL1    H3 9216   5.552   5.236   6.848 -0.3104  0.4057  2.0404
   92CHL1    O3 9217   5.534   5.363   6.685  0.7023  0.2577  0.3191
   92CHL1   H3' 9218   5.468   5.304   6.650  0.4129  1.1019 -0.5894
   92CHL1    C4 9219   5.387   5.374   6.885 -0.2127 -0.1343 -0.0919
   92CHL1   H4A 9220   5.372   5.480   6.856  0.7050 -0.0182 -0.1498
   92CHL1   H4B 9221   5.306   5.321   6.830 -0.0542  0.3776 -0.8311
   92CHL1    C5 9222   5.374   5.359   7.034  0.0311 -0.1236  0.8815
   92CHL1    C6 9223   5.282   5.276   7.090  0.0206 -0.2226 -0.1257
   92CHL1    H6 9224   5.217   5.206   7.036  0.0294 -1.2663  1.1628
   92CHL1    C7 9225   5.256   5.267   7.232  0.3849  0.0718  0.6475
   92CHL1   H7A 9226   5.148   5.283   7.253  0.0597  1.1847 -1.4913
   92CHL1   H7B 9227   5.277   5.163   7.264 -1.9668 -0.8247 -0.5298
   92CHL1    C8 9228   5.338   5.362   7.325  0.0935  0.7483  0.4243
   92CHL1    H8 9229   5.309   5.469   7.319 -0.9099  0.4217 -1.0671
   92CHL1   C14 9230   5.330   5.318   7.468  0.2397 -0.3068 -0.3135
   92CHL1   H14 9231   5.378   5.219   7.478  1.8301  0.5573  1.0697
   92CHL1   C15 9232   5.184   5.293   7.535 -1.2950 -0.2178 -0.1197
   92CHL1  H15A 9233   5.119   5.376   7.500 -1.9545 -1.3466 -1.6736
   92CHL1  H15B 9234   5.134   5.201   7.499  0.8260 -1.4443 -0.0863
   92CHL1   C16 9235   5.218   5.309   7.686 -0.4201  0.2979  0.3916
   92CHL1  H16A 9236   5.152   5.390   7.721  0.0803  0.9943 -0.2408
   92CHL1  H16B 9237   5.193   5.214   7.738  1.7047  0.7222  2.3400
   92CHL1   C17 9238   5.365   5.354   7.703 -0.1772 -0.0782 -0.2069
   92CHL1   H17 9239   5.424   5.262   7.721 -0.0325  0.3333  1.6430
   92CHL1   C13 9240   5.403   5.413   7.567 -0.4074  0.0543  1.3246
   92CHL1   C18 9241   5.344   5.553   7.566  0.3337  1.0270 -0.5883
   92CHL1  H18A 9242   5.372   5.597   7.468  2.8775 -1.0110 -0.8917
   92CHL1  H18B 9243   5.234   5.551   7.576  0.2285  3.2862 -0.9015
   92CHL1  H18C 9244   5.371   5.625   7.646 -0.5135 -0.3379  0.9866
   92CHL1   C12 9245   5.552   5.412   7.523 -0.7219 -0.2969 -0.2353
   92CHL1  H12A 9246   5.612   5.489   7.575  1.8048 -2.2843 -0.0263
   92CHL1  H12B 9247   5.591   5.310   7.541 -4.1924 -1.7554 -0.1509
   92CHL1   C11 9248   5.571   5.449   7.371 -0.0521  0.3856 -1.0698
   92CHL1  H11A 9249   5.549   5.558   7.370  0.1117  0.4241 -0.6748
   92CHL1  H11B 9250   5.679   5.443   7.343  0.6484  0.5889  1.3886
   92CHL1    C9 9251   5.478   5.373   7.266  0.0586 -0.0438 -0.6064
   92CHL1    H9 9252   5.520   5.271   7.259 -1.3713 -0.8598  1.4755
   92CHL1   C10 9253   5.485   5.426   7.121  0.3848  0.7732  0.4212
   92CHL1   C19 9254   5.467   5.575   7.122  0.3719 -0.1967  0.7172
   92CHL1  H19A 9255   5.384   5.617   7.183  0.7244  1.5932  0.0268
   92CHL1  H19B 9256   5.554   5.625   7.170  1.3274 -2.0581  1.0322
   92CHL1  H19C 9257   5.460   5.614   7.019  1.5902  2.8109  1.6627
   92CHL1    C1 9258   5.621   5.393   7.053  0.1922 -0.6737  0.8800
   92CHL1   H1A 9259   5.697   5.453   7.107 -1.5871  0.6827  2.0191
   92CHL1   H1B 9260   5.640   5.287   7.080 -0.1040 -0.8818  0.2951
   92CHL1    C2 9261   5.629   5.425   6.905  0.0970  0.4443 -0.5358
   92CHL1   H2A 9262   5.729   5.411   6.859  0.8968  0.1766  1.1945
   92CHL1   H2B 9263   5.597   5.531   6.898 -1.4088  0.3298  2.5891
   92CHL1   C20 9264   5.390   5.434   7.828  0.0617  0.0162 -0.4645
   92CHL1   H20 9265   5.342   5.534   7.824  2.5836  1.2808 -1.4075
   92CHL1   C21 9266   5.537   5.467   7.855 -0.2721 -0.2683  0.1510
   92CHL1  H21A 9267   5.583   5.508   7.762  0.3786 -2.3736 -0.5259
   92CHL1  H21B 9268   5.606   5.380   7.867  2.0953  1.7135  1.9618
   92CHL1  H21C 9269   5.555   5.530   7.944 -0.4319  0.0282 -0.0270
   92CHL1   C22 9270   5.342   5.361   7.954  0.0000 -0.8318 -0.4328
   92CHL1  H22A 9271   5.236   5.331   7.940 -1.3841  3.6898 -1.0572
   92CHL1  H22B 9272   5.402   5.268   7.944  0.9660 -0.3320  0.4673
   92CHL1   C23 9273   5.351   5.433   8.091  0.0815  0.1784 -0.0633
   92CHL1  H23A 9274   5.324   5.361   8.171 -1.8808  0.0400 -0.7788
   92CHL1  H23B 9275   5.456   5.465   8.109 -0.3015  0.5471  1.6787
   92CHL1   C24 9276   5.247   5.542   8.116  0.3738 -0.4124 -0.1285
   92CHL1  H24A 9277   5.269   5.623   8.044 -1.8697  0.0899 -0.3117
   92CHL1  H24B 9278   5.144   5.510   8.091 -1.1586  1.6797  2.8289
   92CHL1   C25 9279   5.243   5.590   8.265 -0.1180  0.3609 -0.3298
   92CHL1   H25 9280   5.350   5.607   8.289  0.5825 -0.7936 -2.4314
   92CHL1   C26 9281   5.176   5.726   8.282 -0.1582  0.1048 -0.1595
   92CHL1  H26A 9282   5.224   5.803   8.218  1.2292 -0.2771  0.3901
   92CHL1  H26B 9283   5.070   5.707   8.254 -0.1172 -2.4368  1.1393
   92CHL1  H26C 9284   5.166   5.774   8.381  0.1765  1.6292 -0.8286
   92CHL1   C27 9285   5.181   5.486   8.363 -0.3059 -0.4174  0.9205
   92CHL1  H27A 9286   5.245   5.395   8.367 -2.4688 -2.1725 -1.1550
   92CHL1  H27B 9287   5.190   5.523   8.468  1.8982 -0.3368  0.7566
   92CHL1  H27C 9288   5.078   5.457   8.332 -0.0517 -0.3805  0.0176
   93CHL1    C3 9289   6.222   3.699   6.995 -0.3931  0.5730 -0.5305
   93CHL1    H3 9290   6.332   3.709   7.008 -0.3633  2.0661 -1.6128
   93CHL1    O3 9291   6.189   3.729   6.862 -0.3160  0.5022 -0.3659
   93CHL1   H3' 9292   6.139   3.657   6.824 -0.5088 -0.1020  0.9826
   93CHL1    C4 9293   6.176   3.557   7.029 -0.2763  0.2769 -0.0815
   93CHL1   H4A 9294   6.069   3.543   7.004 -0.3511  1.2247 -0.3494
   93CHL1   H4B 9295   6.228   3.488   6.960  0.2808 -0.8782  1.4487
   93CHL1    C5 9296   6.198   3.508   7.165 -0.1997  0.1533 -0.1388
   93CHL1    C6 9297   6.262   3.391   7.196  0.0037 -0.2635  0.1038
   93CHL1    H6 9298   6.289   3.323   7.114  2.4481  1.5353 -0.7313
   93CHL1    C7 9299   6.291   3.344   7.339  0.4445 -0.2427  0.4496
   93CHL1   H7A 9300   6.265   3.237   7.352 -2.5167 -0.5231 -5.0101
   93CHL1   H7B 9301   6.402   3.350   7.347  0.6209 -1.7250 -0.5154
   93CHL1    C8 9302   6.220   3.427   7.448 -0.0691  0.5720  0.4224
   93CHL1    H8 9303   6.116   3.392   7.432 -0.0873  0.6877  0.2863
   93CHL1   C14 9304   6.275   3.390   7.581  0.7997 -0.4265  0.5837
   93CHL1   H14 9305   6.381   3.422   7.580  0.2722  1.5607  2.0586
   93CHL1   C15 9306   6.281   3.249   7.627 -0.4172 -0.0716  0.1874
   93CHL1  H15A 9307   6.183   3.199   7.611 -0.3176  0.0887 -0.9538
   93CHL1  H15B 9308   6.369   3.200   7.581  0.8142  0.5008  1.8175
   93CHL1   C16 9309   6.298   3.268   7.783  0.6809 -0.3722  0.1331
   93CHL1  H16A 9310   6.205   3.225   7.827  0.1508  0.7284  0.1089
   93CHL1  H16B 9311   6.381   3.215   7.834 -0.3318 -0.4854  1.7408
   93CHL1   C17 9312   6.299   3.420   7.814  0.2859 -0.5735  0.3452
   93CHL1   H17 9313   6.401   3.463   7.803 -0.1426  0.1243 -1.3023
   93CHL1   C13 9314   6.223   3.479   7.698  0.1929 -0.3715 -0.3903
   93CHL1   C18 9315   6.066   3.453   7.714  0.3108  0.0754 -0.0777
   93CHL1  H18A 9316   6.041   3.345   7.726 -2.1881  0.7263  1.1713
   93CHL1  H18B 9317   6.029   3.509   7.802 -1.6852  0.8894 -1.3650
   93CHL1  H18C 9318   6.008   3.490   7.627 -1.0907 -0.4135  0.6101
   93CHL1   C12 9319   6.251   3.624   7.662  0.9726  0.2812 -0.4200
   93CHL1  H12A 9320   6.223   3.700   7.739 -0.4808  0.6348 -1.2516
   93CHL1  H12B 9321   6.358   3.643   7.637  1.1214  2.0086  1.2579
   93CHL1   C11 9322   6.174   3.672   7.539 -0.5393 -0.4664  0.3681
   93CHL1  H11A 9323   6.064   3.674   7.550 -0.6034 -0.0626 -0.2870
   93CHL1  H11B 9324   6.219   3.769   7.508 -0.2348 -0.9302 -0.7123
   93CHL1    C9 9325   6.226   3.575   7.419 -0.1240  0.2520 -0.0739
   93CHL1    H9 9326   6.334   3.598   7.404  0.2250 -1.3407 -0.2079
   93CHL1   C10 9327   6.164   3.609   7.279  1.1971 -0.5907 -0.2300
   93CHL1   C19 9328   6.011   3.617   7.299 -0.1971 -0.0660 -0.3833
   93CHL1  H19A 9329   5.977   3.698   7.367 -1.4061 -1.3282  0.5820
   93CHL1  H19B 9330   5.965   3.647   7.202 -1.1391  0.6373  0.2576
   93CHL1  H19C 9331   5.974   3.520   7.338 -2.1039  0.9227  0.4320
   93CHL1    C1 9332   6.204   3.758   7.238  0.1804  1.0444 -0.3089
   93CHL1   H1A 9333   6.149   3.823   7.309 -1.2382 -2.7321  2.3619
   93CHL1   H1B 9334   6.311   3.754   7.266  0.0653 -2.3609  0.0393
   93CHL1    C2 9335   6.166   3.800   7.093  0.1795 -0.8160  0.4131
   93CHL1   H2A 9336   6.195   3.907   7.084  2.2754 -1.1115  2.5635
   93CHL1   H2B 9337   6.057   3.793   7.076  0.5929 -3.6613 -1.7602
   93CHL1   C20 9338   6.266   3.451   7.958  0.1234 -0.3573 -0.3289
   93CHL1   H20 9339   6.160   3.422   7.969  0.4892 -0.9371  2.6500
   93CHL1   C21 9340   6.280   3.609   7.987 -0.2412 -0.2306  0.4133
   93CHL1  H21A 9341   6.359   3.641   7.916 -0.6612 -0.2961 -0.0963
   93CHL1  H21B 9342   6.320   3.613   8.090  0.6601 -2.2374  0.1815
   93CHL1  H21C 9343   6.186   3.667   7.971 -2.5137 -3.5648  0.6014
   93CHL1   C22 9344   6.330   3.356   8.062 -0.1302  0.4299  0.0313
   93CHL1  H22A 9345   6.283   3.373   8.161 -2.7803  0.9343 -1.2364
   93CHL1  H22B 9346   6.308   3.249   8.043 -0.8361  0.5369  0.2147
   93CHL1   C23 9347   6.478   3.387   8.090 -0.4869 -0.3575 -0.2143
   93CHL1  H23A 9348   6.533   3.398   7.994  0.9053 -0.1493  0.5750
   93CHL1  H23B 9349   6.491   3.487   8.138  2.5394 -0.4557 -0.6100
   93CHL1   C24 9350   6.557   3.285   8.167 -0.0230  0.7726  0.0050
   93CHL1  H24A 9351   6.562   3.198   8.099  2.1860  1.3659 -0.6775
   93CHL1  H24B 9352   6.665   3.304   8.187  0.1812  0.5124 -0.8140
   93CHL1   C25 9353   6.485   3.237   8.291  0.1882 -0.1030  0.2755
   93CHL1   H25 9354   6.385   3.192   8.272 -0.5123  0.6369  2.0229
   93CHL1   C26 9355   6.547   3.104   8.348 -0.2244  0.1030 -0.2871
   93CHL1  H26A 9356   6.548   3.013   8.284 -0.7582 -0.9310  1.1126
   93CHL1  H26B 9357   6.651   3.129   8.379 -0.3994 -0.2213  0.5859
   93CHL1  H26C 9358   6.486   3.078   8.437 -0.9482  0.8517 -0.5599
   93CHL1   C27 9359   6.479   3.346   8.397  0.0625  0.2900  0.1129
   93CHL1  H27A 9360   6.438   3.306   8.492  0.7604  0.4608  0.4919
   93CHL1  H27B 9361   6.579   3.384   8.429 -0.0709 -0.3210  1.3295
   93CHL1  H27C 9362   6.408   3.422   8.359 -0.4055 -0.5742 -0.7831
   94CHL1    C3 9363   6.617   5.976   6.955  0.1235  0.3252  0.0181
   94CHL1    H3 9364   6.508   5.998   6.955 -0.1111  0.0486  4.2652
   94CHL1    O3 9365   6.668   6.015   6.830 -0.4232  0.1537 -0.1193
   94CHL1   H3' 9366   6.755   5.975   6.828 -0.8913 -0.9351 -2.2395
   94CHL1    C4 9367   6.681   6.058   7.064  0.2417  0.0788 -0.5335
   94CHL1   H4A 9368   6.791   6.066   7.048  0.9469 -4.2752  0.6649
   94CHL1   H4B 9369   6.646   6.161   7.042 -0.5321 -0.1586 -0.4304
   94CHL1    C5 9370   6.654   6.012   7.208  0.8414  0.2471 -0.3156
   94CHL1    C6 9371   6.611   6.100   7.303 -0.7979  0.5804 -0.1663
   94CHL1    H6 9372   6.589   6.203   7.273  0.2433  0.2556 -2.2296
   94CHL1    C7 9373   6.588   6.059   7.445  0.1660  0.0071  0.3043
   94CHL1   H7A 9374   6.637   6.132   7.513  1.0073  0.2945 -0.5909
   94CHL1   H7B 9375   6.479   6.066   7.467  0.2173  1.0256  0.2850
   94CHL1    C8 9376   6.634   5.912   7.474 -0.8956 -0.4237  0.4081
   94CHL1    H8 9377   6.744   5.915   7.489 -0.7252  3.9212 -0.2737
   94CHL1   C14 9378   6.574   5.872   7.606  0.6288  0.4433  0.1409
   94CHL1   H14 9379   6.464   5.875   7.589  0.4565 -0.5702  0.9303
   94CHL1   C15 9380   6.593   5.962   7.727 -0.0045 -0.1010  0.1584
   94CHL1  H15A 9381   6.698   5.997   7.735 -0.2412  0.6984 -0.1046
   94CHL1  H15B 9382   6.531   6.054   7.719  1.0382  0.6186  0.2110
   94CHL1   C16 9383   6.558   5.878   7.846 -0.8534  0.3381  0.1973
   94CHL1  H16A 9384   6.640   5.870   7.919  0.4975  0.3239 -1.2748
   94CHL1  H16B 9385   6.470   5.914   7.904  0.3394  2.8800  0.5592
   94CHL1   C17 9386   6.518   5.734   7.790 -0.7177  0.3014 -0.4253
   94CHL1   H17 9387   6.412   5.740   7.756 -0.7224 -1.1801 -0.7259
   94CHL1   C13 9388   6.600   5.729   7.660  0.6361  0.3404  0.2894
   94CHL1   C18 9389   6.756   5.717   7.698  0.4170  0.2192  0.0519
   94CHL1  H18A 9390   6.769   5.731   7.808 -1.1130  2.8778 -0.0288
   94CHL1  H18B 9391   6.791   5.614   7.674 -3.6099 -1.9985  2.5476
   94CHL1  H18C 9392   6.813   5.789   7.635  0.8963 -0.8987 -0.8267
   94CHL1   C12 9393   6.564   5.630   7.553  0.2633  0.1217  0.5258
   94CHL1  H12A 9394   6.601   5.528   7.579  0.1608 -0.4138 -1.2649
   94CHL1  H12B 9395   6.458   5.622   7.520  0.3428  1.0012  0.0390
   94CHL1   C11 9396   6.634   5.661   7.413  0.4171  0.3042  0.7223
   94CHL1  H11A 9397   6.743   5.643   7.425  0.9837  2.7568 -0.1434
   94CHL1  H11B 9398   6.603   5.594   7.329 -0.0790  1.4085 -0.0020
   94CHL1    C9 9399   6.604   5.811   7.363 -0.7311  0.0218  0.0229
   94CHL1    H9 9400   6.495   5.818   7.342 -0.4706  0.5872 -1.2449
   94CHL1   C10 9401   6.674   5.853   7.232  0.5228  0.1833  0.2632
   94CHL1   C19 9402   6.824   5.813   7.226  0.1137 -0.6770 -0.1101
   94CHL1  H19A 9403   6.873   5.838   7.129  1.1398  1.6752  0.9288
   94CHL1  H19B 9404   6.879   5.876   7.300 -0.1941  1.0547 -1.2924
   94CHL1  H19C 9405   6.832   5.703   7.240  0.2332 -0.7886 -0.9826
   94CHL1    C1 9406   6.609   5.777   7.113 -1.1270  0.3557 -0.9154
   94CHL1   H1A 9407   6.657   5.677   7.112  1.5427  1.5483 -2.0097
   94CHL1   H1B 9408   6.501   5.758   7.132 -0.8020 -0.7264 -0.0019
   94CHL1    C2 9409   6.647   5.819   6.969  0.1722  0.1636 -0.0322
   94CHL1   H2A 9410   6.582   5.758   6.903 -1.1379  1.2033  0.2443
   94CHL1   H2B 9411   6.755   5.798   6.960  0.3083  1.2004 -1.1768
   94CHL1   C20 9412   6.534   5.613   7.890 -0.1467 -0.7836 -0.4668
   94CHL1   H20 9413   6.639   5.576   7.892 -0.7211 -2.4595  0.2301
   94CHL1   C21 9414   6.457   5.492   7.849 -0.0529  1.0875  0.3744
   94CHL1  H21A 9415   6.356   5.486   7.896  0.1417  0.0088  0.6736
   94CHL1  H21B 9416   6.513   5.406   7.892 -1.6403 -0.2733 -0.1800
   94CHL1  H21C 9417   6.456   5.492   7.738  2.7675  0.7265  0.2895
   94CHL1   C22 9418   6.504   5.658   8.034  1.4524  1.0086  0.1998
   94CHL1  H22A 9419   6.574   5.740   8.060  2.0188  0.2786  1.0437
   94CHL1  H22B 9420   6.401   5.691   8.060  1.8463  2.0417  0.4857
   94CHL1   C23 9421   6.535   5.553   8.143  0.0831  0.0177  0.4109
   94CHL1  H23A 9422   6.522   5.451   8.101  3.0393 -0.0461 -0.5905
   94CHL1  H23B 9423   6.645   5.547   8.160 -0.0254 -1.6969  0.6317
   94CHL1   C24 9424   6.457   5.575   8.274  0.6144  0.7697  0.4554
   94CHL1  H24A 9425   6.511   5.529   8.360  1.2819  1.7439  0.5806
   94CHL1  H24B 9426   6.462   5.685   8.293  0.6259  0.5588  1.7899
   94CHL1   C25 9427   6.305   5.539   8.272  0.0940  0.6558  0.0774
   94CHL1   H25 9428   6.266   5.590   8.182  0.5341 -1.5678 -1.4610
   94CHL1   C26 9429   6.286   5.381   8.248 -0.4179 -0.5230 -0.1136
   94CHL1  H26A 9430   6.353   5.327   8.318  0.2326 -1.2317 -1.2513
   94CHL1  H26B 9431   6.182   5.346   8.265 -0.0460 -2.1189 -0.8826
   94CHL1  H26C 9432   6.311   5.359   8.142 -1.8809  0.5240 -0.7095
   94CHL1   C27 9433   6.235   5.573   8.407  0.0603 -0.3186 -0.1480
   94CHL1  H27A 9434   6.240   5.681   8.433  1.0204 -0.3215 -0.3026
   94CHL1  H27B 9435   6.128   5.547   8.395  0.5810 -1.5871 -2.4943
   94CHL1  H27C 9436   6.285   5.518   8.490 -1.9728 -0.5292  1.0309
   95CHL1    C3 9437   5.275   3.208   6.823 -0.4419 -0.0948  0.2400
   95CHL1    H3 9438   5.342   3.276   6.879 -0.1173 -1.8854  2.1536
   95CHL1    O3 9439   5.259   3.255   6.684 -0.4084  0.3612 -0.6404
   95CHL1   H3' 9440   5.279   3.179   6.629 -2.3474 -0.2782 -0.5448
   95CHL1    C4 9441   5.345   3.072   6.820  0.2490  0.8470  0.1046
   95CHL1   H4A 9442   5.281   2.996   6.771  1.7496 -1.1133  1.0260
   95CHL1   H4B 9443   5.439   3.091   6.764 -0.0479 -0.0510 -0.7257
   95CHL1    C5 9444   5.362   3.024   6.964 -0.7781  0.3410  0.6669
   95CHL1    C6 9445   5.493   2.996   7.005 -0.0816 -0.0863 -0.4640
   95CHL1    H6 9446   5.572   2.999   6.928  0.0835  1.2985 -0.2629
   95CHL1    C7 9447   5.529   2.944   7.145  0.2921  0.1863  0.0899
   95CHL1   H7A 9448   5.594   2.854   7.141  0.9658  0.6459  0.4392
   95CHL1   H7B 9449   5.580   3.015   7.213  1.3011 -0.5221  0.1039
   95CHL1    C8 9450   5.399   2.892   7.212 -0.4200  0.1495 -0.0511
   95CHL1    H8 9451   5.378   2.793   7.166  1.4303 -0.0358 -0.5685
   95CHL1   C14 9452   5.417   2.880   7.363  0.0486 -0.1236  0.0491
   95CHL1   H14 9453   5.428   2.982   7.406 -0.2943 -0.3198  0.6097
   95CHL1   C15 9454   5.541   2.797   7.413 -0.6864  0.7067 -0.7429
   95CHL1  H15A 9455   5.538   2.688   7.391 -3.4000  0.6180 -0.2576
   95CHL1  H15B 9456   5.637   2.842   7.380 -0.6844  0.1955 -1.4473
   95CHL1   C16 9457   5.518   2.804   7.564  0.5450 -1.2006 -0.1253
   95CHL1  H16A 9458   5.575   2.729   7.622 -1.4103 -0.2762  3.2538
   95CHL1  H16B 9459   5.561   2.902   7.595  1.4272 -1.3989 -0.7010
   95CHL1   C17 9460   5.367   2.815   7.582  0.6909 -0.1523  0.0233
   95CHL1   H17 9461   5.338   2.905   7.639 -3.9615 -1.8010  0.6869
   95CHL1   C13 9462   5.300   2.831   7.443  0.8044  0.3414 -0.2092
   95CHL1   C18 9463   5.260   2.687   7.390  0.1670  0.1746 -0.0176
   95CHL1  H18A 9464   5.351   2.624   7.400  0.8686  1.2005  0.2368
   95CHL1  H18B 9465   5.180   2.636   7.447 -0.9696  1.5744 -0.3197
   95CHL1  H18C 9466   5.230   2.695   7.284 -2.0732 -3.5126  0.1988
   95CHL1   C12 9467   5.190   2.935   7.437 -0.1169  0.0388 -0.4709
   95CHL1  H12A 9468   5.101   2.902   7.495  1.7228 -1.5238  1.6637
   95CHL1  H12B 9469   5.234   3.020   7.493 -0.3327 -1.5361  2.2977
   95CHL1   C11 9470   5.152   2.971   7.293 -0.1625  0.2376  0.2494
   95CHL1  H11A 9471   5.095   2.884   7.253  0.4732 -0.0162 -0.1233
   95CHL1  H11B 9472   5.076   3.053   7.299  0.3798  0.6304  2.1421
   95CHL1    C9 9473   5.279   2.993   7.192 -0.1013 -0.3395  0.1063
   95CHL1    H9 9474   5.333   3.086   7.223  1.0875 -0.2627 -2.0305
   95CHL1   C10 9475   5.232   3.027   7.044  0.1030  0.4756  0.6269
   95CHL1   C19 9476   5.140   2.910   6.991 -0.3679 -0.5522 -0.5849
   95CHL1  H19A 9477   5.177   2.806   7.004 -0.2835 -0.2640  1.9575
   95CHL1  H19B 9478   5.039   2.924   7.035 -0.6603  1.7688 -1.8078
   95CHL1  H19C 9479   5.111   2.914   6.883 -0.7566 -2.4834 -0.5827
   95CHL1    C1 9480   5.155   3.160   7.038 -0.4381  0.4267  0.0471
   95CHL1   H1A 9481   5.059   3.146   7.092  0.5295 -3.8266  1.0359
   95CHL1   H1B 9482   5.218   3.227   7.098  2.2557 -2.2937  0.4861
   95CHL1    C2 9483   5.142   3.212   6.892 -0.4234 -0.4609 -0.2061
   95CHL1   H2A 9484   5.098   3.314   6.898  0.1807 -0.1613 -0.6955
   95CHL1   H2B 9485   5.070   3.148   6.836  0.0994  1.5145 -3.4119
   95CHL1   C20 9486   5.318   2.707   7.679 -0.2689 -1.0871 -0.0121
   95CHL1   H20 9487   5.334   2.601   7.649  2.3610 -1.0881  1.1736
   95CHL1   C21 9488   5.161   2.735   7.695 -0.3814 -0.0952 -0.4547
   95CHL1  H21A 9489   5.121   2.689   7.788 -0.2049  0.0808 -0.2885
   95CHL1  H21B 9490   5.100   2.693   7.612 -0.7227 -2.1255  0.7506
   95CHL1  H21C 9491   5.154   2.845   7.713  1.9354 -0.1520  1.1917
   95CHL1   C22 9492   5.387   2.709   7.829 -0.1443  0.5140  0.3550
   95CHL1  H22A 9493   5.490   2.748   7.814  0.0247 -0.0425  0.0177
   95CHL1  H22B 9494   5.327   2.777   7.894 -1.7090 -0.5151  0.0534
   95CHL1   C23 9495   5.402   2.562   7.887  1.2066 -0.8505 -0.7516
   95CHL1  H23A 9496   5.299   2.522   7.883 -0.1353  2.0577  1.2461
   95CHL1  H23B 9497   5.466   2.514   7.810  0.8921 -0.8576 -1.0140
   95CHL1   C24 9498   5.461   2.557   8.019  0.0137  0.4318 -0.0565
   95CHL1  H24A 9499   5.566   2.592   8.008 -0.0157  0.5408  0.0095
   95CHL1  H24B 9500   5.411   2.624   8.091 -0.5297 -0.0329  0.0080
   95CHL1   C25 9501   5.451   2.415   8.078 -0.0429  0.2470 -0.0340
   95CHL1   H25 9502   5.347   2.374   8.070  1.0413 -2.6303 -0.6263
   95CHL1   C26 9503   5.547   2.312   8.008 -0.2743 -0.4784  0.8123
   95CHL1  H26A 9504   5.646   2.362   8.008  1.0847 -3.0144  1.7334
   95CHL1  H26B 9505   5.551   2.218   8.067  0.9769  0.4248  2.2453
   95CHL1  H26C 9506   5.520   2.287   7.903  1.8487  0.5462 -0.0440
   95CHL1   C27 9507   5.487   2.420   8.222 -0.0636 -0.0034  0.4078
   95CHL1  H27A 9508   5.481   2.317   8.264  1.0394 -0.4520 -0.4801
   95CHL1  H27B 9509   5.594   2.450   8.228 -0.6346  1.9728  1.1198
   95CHL1  H27C 9510   5.414   2.493   8.261 -0.9887 -0.2600 -0.7982
   96CHL1    C3 9511   0.803   4.068   6.791 -0.1502  0.0204 -1.6363
   96CHL1    H3 9512   0.733   4.145   6.832  0.1030  0.1128 -1.3796
   96CHL1    O3 9513   0.780   4.062   6.653 -0.3379  0.2765 -0.0635
   96CHL1   H3' 9514   0.817   4.140   6.611  0.3962 -0.5204 -0.9665
   96CHL1    C4 9515   0.946   4.099   6.835  0.1933 -0.8335  0.7948
   96CHL1   H4A 9516   1.027   4.029   6.807  1.1852 -0.4644  2.6239
   96CHL1   H4B 9517   0.974   4.190   6.778 -1.6308 -1.2805 -0.9313
   96CHL1    C5 9518   0.964   4.111   6.985 -0.0632  0.4797 -0.2047
   96CHL1    C6 9519   1.016   4.211   7.049 -0.6129 -0.3239 -0.0657
   96CHL1    H6 9520   1.046   4.298   6.987 -0.2148 -1.3962 -1.4298
   96CHL1    C7 9521   1.028   4.220   7.193 -0.1981  0.3797  0.4656
   96CHL1   H7A 9522   1.131   4.255   7.216 -1.1079  1.7247  2.8426
   96CHL1   H7B 9523   0.962   4.303   7.227 -1.9894 -0.2725 -1.2486
   96CHL1    C8 9524   0.992   4.087   7.269 -0.8041 -0.6109 -0.7929
   96CHL1    H8 9525   1.089   4.031   7.270 -0.0875  0.5774  0.4895
   96CHL1   C14 9526   0.962   4.118   7.412  0.4006 -0.1768  0.0358
   96CHL1   H14 9527   0.871   4.179   7.404  0.5036  0.0259  0.3747
   96CHL1   C15 9528   1.056   4.208   7.492  0.0706 -0.1725 -0.6361
   96CHL1  H15A 9529   1.160   4.170   7.494  0.5816  1.0131  2.7290
   96CHL1  H15B 9530   1.052   4.305   7.437 -0.3051  0.3098  0.2244
   96CHL1   C16 9531   1.012   4.205   7.635  0.1168  0.1027  0.3204
   96CHL1  H16A 9532   1.095   4.180   7.704 -1.9073  0.5038  3.0714
   96CHL1  H16B 9533   0.963   4.299   7.669  1.4073 -0.0903  2.9664
   96CHL1   C17 9534   0.904   4.087   7.642  0.4011 -0.7875 -0.2117
   96CHL1   H17 9535   0.806   4.136   7.623 -0.8543 -2.4918  1.4321
   96CHL1   C13 9536   0.924   4.007   7.511  0.1523  0.2192  0.4429
   96CHL1   C18 9537   1.037   3.902   7.527  0.7343 -0.1383 -0.0029
   96CHL1  H18A 9538   1.006   3.819   7.595 -2.0439 -0.1169 -1.1027
   96CHL1  H18B 9539   1.060   3.852   7.431  1.3492  0.9780 -0.4541
   96CHL1  H18C 9540   1.125   3.957   7.566  0.4569  1.4041 -1.4396
   96CHL1   C12 9541   0.797   3.953   7.444  0.2882 -0.3699  0.2257
   96CHL1  H12A 9542   0.762   3.867   7.505  0.1082  1.3845  2.7740
   96CHL1  H12B 9543   0.713   4.025   7.439 -0.3624 -1.1727 -0.8036
   96CHL1   C11 9544   0.822   3.900   7.303 -0.3252 -0.7738  0.3566
   96CHL1  H11A 9545   0.893   3.816   7.293  0.9746 -0.0408  2.5405
   96CHL1  H11B 9546   0.721   3.869   7.267 -0.0105 -0.8525 -0.4556
   96CHL1    C9 9547   0.879   4.011   7.208  0.7704 -0.6101  0.4315
   96CHL1    H9 9548   0.796   4.085   7.207  1.3589  0.0804 -0.9822
   96CHL1   C10 9549   0.906   3.989   7.058  0.3282  0.5195  0.0553
   96CHL1   C19 9550   1.006   3.869   7.050 -0.3219 -0.1090 -0.2083
   96CHL1  H19A 9551   0.968   3.765   7.057 -1.0746  0.0004 -1.9855
   96CHL1  H19B 9552   1.045   3.868   6.946  0.0736 -0.7832 -0.0544
   96CHL1  H19C 9553   1.091   3.890   7.117 -1.2370 -2.3875  1.8164
   96CHL1    C1 9554   0.770   3.949   6.999  0.8411 -0.0481 -0.0430
   96CHL1   H1A 9555   0.740   3.852   7.043 -2.3634  0.7484 -0.2135
   96CHL1   H1B 9556   0.702   4.030   7.031  0.8920 -0.7149  1.8993
   96CHL1    C2 9557   0.764   3.925   6.852  0.0316 -0.0569 -0.1174
   96CHL1   H2A 9558   0.664   3.904   6.808 -0.4827  0.9019  0.5645
   96CHL1   H2B 9559   0.851   3.866   6.816  0.1250  0.6462 -1.0993
   96CHL1   C20 9560   0.913   4.010   7.773  0.2925  0.3700  0.5199
   96CHL1   H20 9561   1.016   3.967   7.769 -0.3786 -1.5014  1.6424
   96CHL1   C21 9562   0.813   3.898   7.781 -0.2615  0.4922  0.0261
   96CHL1  H21A 9563   0.823   3.805   7.720  0.5821 -0.1733  1.1559
   96CHL1  H21B 9564   0.709   3.934   7.765 -0.3733  0.9060  1.5117
   96CHL1  H21C 9565   0.820   3.862   7.886 -0.1888  0.6074  0.0613
   96CHL1   C22 9566   0.916   4.097   7.895  0.9000  0.5623  0.0501
   96CHL1  H22A 9567   0.967   4.194   7.877  1.2928  0.2182 -0.7325
   96CHL1  H22B 9568   0.807   4.116   7.908  0.5622  0.0218 -1.7294
   96CHL1   C23 9569   0.961   4.021   8.021  0.2699  0.2979  0.4546
   96CHL1  H23A 9570   0.872   3.972   8.067 -0.8251  2.0624  0.2988
   96CHL1  H23B 9571   1.022   3.932   7.996 -0.0930 -0.0623  0.8195
   96CHL1   C24 9572   1.011   4.123   8.128  0.2672  0.4477  0.2149
   96CHL1  H24A 9573   1.108   4.160   8.088  1.3572 -0.1022  2.2463
   96CHL1  H24B 9574   0.942   4.210   8.138 -1.2854 -0.5435 -1.3039
   96CHL1   C25 9575   1.023   4.061   8.266 -0.0074 -0.7057 -0.0287
   96CHL1   H25 9576   1.094   3.976   8.270  2.4708  1.2680  0.7232
   96CHL1   C26 9577   1.091   4.171   8.350  0.1774 -0.2217 -0.1521
   96CHL1  H26A 9578   1.041   4.270   8.345  0.2738  0.1188  3.3984
   96CHL1  H26B 9579   1.101   4.153   8.459  1.4430 -0.3916 -0.2900
   96CHL1  H26C 9580   1.192   4.180   8.304 -0.4279  1.1982 -1.2944
   96CHL1   C27 9581   0.885   4.011   8.316  0.8204  1.1425  0.1049
   96CHL1  H27A 9582   0.882   3.983   8.424  0.5040  0.2705 -0.1238
   96CHL1  H27B 9583   0.803   4.085   8.308  0.6722  0.7799 -2.2745
   96CHL1  H27C 9584   0.864   3.913   8.267  0.6224  1.6661 -0.8611
   97OSM      N 9585   1.959   5.032  11.050 -0.4930 -0.1606  0.2660
   97OSM    C15 9586   2.001   5.176  11.021 -0.4212 -0.9156  0.0023
   97OSM   H15A 9587   2.063   5.208  11.103 -1.9193  1.8415  0.1947
   97OSM   H15B 9588   1.908   5.230  11.034 -0.1840 -0.6369  0.5689
   97OSM   H15C 9589   2.061   5.194  10.934  0.5245  0.6787  0.9379
   97OSM    C14 9590   2.091   4.955  11.084  0.0630  0.2787  0.4080
   97OSM   H14A 9591   2.061   4.852  11.090 -0.1961  0.2610 -0.9080
   97OSM   H14B 9592   2.143   4.978  11.176  1.2575  2.3120 -0.6886
   97OSM   H14C 9593   2.164   4.961  11.005  0.5500  2.3047  0.9382
   97OSM    C13 9594   1.870   5.036  11.167  0.1075  0.5383  0.9504
   97OSM   H13A 9595   1.837   4.937  11.197 -1.5429  0.1047 -1.8897
   97OSM   H13B 9596   1.794   5.111  11.158 -0.1758  0.3605  1.8212
   97OSM   H13C 9597   1.930   5.072  11.249 -0.8446  2.9337  0.6785
   97OSM    C12 9598   1.903   4.989  10.920  0.6816 -0.3300  0.3472
   97OSM   H12A 9599   1.860   4.890  10.927 -2.9625  0.8898 -2.0591
   97OSM   H12B 9600   1.983   4.985  10.848  1.5137 -0.1274  1.2224
   97OSM    C11 9601   1.780   5.068  10.858  0.0016 -0.1826 -0.0566
   97OSM   H11A 9602   1.754   5.012  10.766  1.6016 -0.2466 -0.4987
   97OSM   H11B 9603   1.815   5.166  10.819 -0.1138 -1.2035 -2.9178
   97OSM      P 9604   1.549   4.981  10.945  0.0747  0.0017  0.3180
   97OSM    O13 9605   1.605   4.857  10.993  0.2862 -0.0274 -0.1285
   97OSM    O14 9606   1.438   5.024  11.026  0.0875 -0.2955 -0.0977
   97OSM    O11 9607   1.517   4.957  10.792 -0.2121 -0.3632 -0.4503
   97OSM    O12 9608   1.670   5.083  10.953  0.2967 -0.6047  0.1480
   97OSM    C1S 9609   1.392   4.883  10.761 -0.0899  0.1866 -0.1829
   97OSM    H1S 9610   1.302   4.946  10.774  0.0513  0.0627  1.6905
   97OSM    H1T 9611   1.377   4.791  10.822  1.5654 -0.1942 -0.2961
   97OSM     NF 9612   1.273   4.785  10.560  0.0017  1.0317  0.7132
   97OSM    HNF 9613   1.264   4.686  10.557  0.4118  1.0189 -0.2200
   97OSM    C2S 9614   1.401   4.842  10.613 -0.5039 -0.1186  0.7628
   97OSM    H2S 9615   1.431   4.934  10.559  3.9700 -1.0191  1.3351
   97OSM    C3S 9616   1.517   4.743  10.597  0.1150  0.5927 -0.3735
   97OSM    H3S 9617   1.505   4.650  10.657  0.2063  0.2504 -0.8727
   97OSM     O3 9618   1.653   4.791  10.620 -0.4203  0.5919  0.1243
   97OSM    HO3 9619   1.641   4.867  10.678  1.8341  0.8119  0.4160
   97OSM    C4S 9620   1.509   4.686  10.453 -0.1306 -0.5584 -0.3824
   97OSM    H4S 9621   1.432   4.607  10.448 -0.5867 -0.3628  2.0901
   97OSM    C5S 9622   1.560   4.726  10.339 -0.0822 -0.3719  0.6450
   97OSM    H5S 9623   1.628   4.812  10.340 -1.3857  0.7042  0.6148
   97OSM    C6S 9624   1.550   4.656  10.200  0.4562 -0.2197  0.6266
   97OSM    H6S 9625   1.580   4.550  10.209  0.6558 -0.3606 -1.3463
   97OSM    H6T 9626   1.613   4.702  10.121 -1.8046  0.7310 -0.6976
   97OSM    C7S 9627   1.399   4.637  10.149 -0.0901  1.0677  0.2601
   97OSM    H7S 9628   1.367   4.740  10.123  0.5273  1.2587  0.2278
   97OSM    H7T 9629   1.333   4.599  10.230  0.8557 -2.9431 -0.6336
   97OSM    C8S 9630   1.386   4.540  10.028  0.1685  0.3118 -0.1793
   97OSM    H8S 9631   1.281   4.550   9.995 -0.1749 -1.2232  0.3959
   97OSM    H8T 9632   1.405   4.436  10.063 -0.9182 -0.6601 -2.3039
   97OSM    C9S 9633   1.478   4.560   9.908  0.7810 -0.1625  0.1722
   97OSM    H9S 9634   1.576   4.587   9.954 -0.1842  2.0287  1.1083
   97OSM    H9T 9635   1.447   4.655   9.858 -0.4123 -0.6640 -0.0619
   97OSM   C10S 9636   1.462   4.458   9.798  0.2935 -0.2033  0.1283
   97OSM   H10S 9637   1.358   4.444   9.762  0.6733 -0.3220 -0.9437
   97OSM   H10T 9638   1.500   4.361   9.834  2.7896  1.2317  1.6407
   97OSM   C11S 9639   1.545   4.487   9.673  0.0513 -1.1018 -0.5477
   97OSM   H11S 9640   1.652   4.500   9.703 -0.3840 -0.4608  0.8077
   97OSM   H11T 9641   1.521   4.591   9.641  0.1282 -0.7393  0.5257
   97OSM   C12S 9642   1.523   4.380   9.566 -0.0427 -0.1158 -0.4202
   97OSM   H12S 9643   1.422   4.333   9.556 -0.1477  0.3699 -1.8374
   97OSM   H12T 9644   1.596   4.299   9.588 -0.8183 -0.9961 -0.9925
   97OSM   C13S 9645   1.547   4.444   9.429 -1.0105 -0.6891  0.4965
   97OSM   H13S 9646   1.647   4.487   9.409 -0.8446 -1.0293  0.5854
   97OSM   H13T 9647   1.465   4.515   9.405 -0.7619 -0.1722  1.1471
   97OSM   C14S 9648   1.544   4.328   9.323 -0.1160  0.7267  0.2598
   97OSM   H14S 9649   1.452   4.266   9.329  1.3202 -1.3799  1.7785
   97OSM   H14T 9650   1.633   4.261   9.332 -0.4858  0.0789 -0.7878
   97OSM   C15S 9651   1.564   4.378   9.177 -0.5968 -0.2891 -0.0652
   97OSM   H15S 9652   1.666   4.422   9.171 -0.4432 -0.3764  1.6102
   97OSM   H15T 9653   1.488   4.458   9.168 -0.5073  0.2681  3.0749
   97OSM   C16S 9654   1.563   4.263   9.070 -0.1468 -0.4932 -0.1005
   97OSM   H16S 9655   1.464   4.213   9.071  0.5579 -1.9199  0.9851
   97OSM   H16T 9656   1.638   4.186   9.099 -1.2342 -0.7799  2.1764
   97OSM   C17S 9657   1.597   4.312   8.926  0.0872  0.3976 -0.2889
   97OSM   H17S 9658   1.700   4.355   8.923  2.4031 -4.4431 -0.2103
   97OSM   H17T 9659   1.516   4.386   8.915 -0.8811 -0.3193  1.5208
   97OSM   C18S 9660   1.590   4.202   8.817 -0.2935 -0.3412 -0.1434
   97OSM   H18S 9661   1.487   4.162   8.824 -0.4310  0.1789  1.0425
   97OSM   H18T 9662   1.667   4.124   8.838  0.7303  0.4214 -0.9413
   97OSM   H18U 9663   1.620   4.235   8.715  2.6669  0.5190  0.8965
   97OSM    C1F 9664   1.171   4.859  10.537  0.3848  0.7554 -0.0719
   97OSM     OF 9665   1.188   4.974  10.575 -0.2558  0.0056 -0.2885
   97OSM    C2F 9666   1.041   4.802  10.476  0.3718 -0.3613 -0.2731
   97OSM    H2F 9667   0.967   4.788  10.558  1.0152 -1.1058  0.2016
   97OSM    H2G 9668   1.070   4.706  10.428  2.9447  0.6908 -0.9556
   97OSM    C3F 9669   0.980   4.891  10.369 -0.0632  0.0189  0.7033
   97OSM    H3F 9670   0.957   4.994  10.404 -1.3405 -0.4732  1.3656
   97OSM    H3G 9671   0.879   4.853  10.344  0.5133 -0.4353 -1.1481
   97OSM    C4F 9672   1.060   4.898  10.237  0.1658 -0.0167 -0.0822
   97OSM    H4F 9673   1.111   4.802  10.216  0.1441  0.0709 -0.5343
   97OSM    H4G 9674   1.143   4.969  10.254 -2.3043  3.3761 -1.1346
   97OSM    C5F 9675   0.968   4.946  10.123  0.3517 -0.0242  0.0895
   97OSM    H5F 9676   0.928   5.046  10.151  1.0026 -0.2173  1.8755
   97OSM    H5G 9677   0.877   4.884  10.116 -0.1362  0.1839  3.1086
   97OSM    C6F 9678   1.036   4.953   9.988 -0.2142  0.3868  0.6691
   97OSM    H6F 9679   1.062   4.852   9.949 -2.6951 -0.0308 -0.0555
   97OSM    H6G 9680   1.120   5.026   9.995  1.2045 -0.9921 -0.9160
   97OSM    C7F 9681   0.957   5.007   9.871 -0.1677 -0.4291  0.0878
   97OSM    H7F 9682   0.910   5.108   9.874 -0.9275 -0.7955  1.7799
   97OSM    H7G 9683   0.869   4.939   9.862  0.7448 -1.4956 -1.0674
   97OSM    C8F 9684   1.043   5.007   9.740  0.7425 -0.0214  0.6664
   97OSM    H8F 9685   1.067   4.901   9.718 -1.4194 -0.5952  0.8825
   97OSM    H8G 9686   1.138   5.060   9.764  1.8776 -1.0699 -1.2643
   97OSM    C9F 9687   0.962   5.054   9.627  0.6597 -0.5683  0.7650
   97OSM    H9F 9688   0.855   5.055   9.651  0.8176 -0.8669  1.4891
   97OSM   C10F 9689   1.006   5.097   9.508 -0.0364 -0.0151  0.0135
   97OSM   H10F 9690   0.932   5.130   9.434 -1.1005 -2.0527  0.0932
   97OSM   C11F 9691   1.157   5.113   9.476  0.3119 -1.2240 -0.0225
   97OSM   H11F 9692   1.230   5.110   9.559  0.8518 -0.0766 -0.4422
   97OSM   H11G 9693   1.164   5.222   9.457  0.1650 -0.8782  1.7122
   97OSM   C12F 9694   1.199   5.037   9.347 -0.2397 -0.0035 -0.2240
   97OSM   H12F 9695   1.307   5.056   9.331 -0.4732  1.8990  0.1894
   97OSM   H12G 9696   1.147   5.081   9.260  1.0076  3.1608  0.4934
   97OSM   C13F 9697   1.188   4.883   9.358 -0.3478  0.1137  0.0511
   97OSM   H13F 9698   1.088   4.862   9.400 -2.3616  2.1985 -3.2894
   97OSM   H13G 9699   1.261   4.849   9.435  0.1934 -2.2455 -1.3697
   97OSM   C14F 9700   1.221   4.814   9.225 -0.2245 -0.3851  0.0531
   97OSM   H14F 9701   1.244   4.706   9.237  2.1142 -0.1046 -1.3023
   97OSM   H14G 9702   1.310   4.856   9.174  0.2267 -0.6788  0.5880
   97OSM   C15F 9703   1.107   4.822   9.118  0.2003  0.4754  0.2884
   97OSM   H15F 9704   1.049   4.914   9.142  1.3102  1.7032 -1.4465
   97OSM   H15G 9705   1.036   4.737   9.117 -0.5148  0.9027 -4.1462
   97OSM   C16F 9706   1.159   4.849   8.977  0.0852  0.3910  0.2301
   97OSM   H16F 9707   1.227   4.937   8.977  1.9207 -0.7792 -3.8720
   97OSM   H16G 9708   1.074   4.891   8.919 -1.1009  0.5141  1.9663
   97OSM   C17F 9709   1.205   4.720   8.901 -0.0775  0.1906 -0.8281
   97OSM   H17F 9710   1.117   4.653   8.907 -0.5250  0.8765  0.6283
   97OSM   H17G 9711   1.281   4.662   8.957 -0.5531  0.2245 -0.1460
   97OSM   C18F 9712   1.244   4.745   8.753 -0.1611  0.1136 -0.6256
   97OSM   H18F 9713   1.239   4.661   8.681 -0.0266  1.7964 -2.6928
   97OSM   H18G 9714   1.346   4.788   8.747  0.6491 -1.3477  1.4745
   97OSM   H18H 9715   1.179   4.825   8.709 -1.7638  0.1459  1.6256
   98OSM      N 9716   0.956   4.408  11.293  0.1828  0.5272  0.3582
   98OSM    C15 9717   1.035   4.456  11.407  0.8108  0.6226  0.1457
   98OSM   H15A 9718   1.109   4.379  11.426 -0.4187 -1.2168 -1.9678
   98OSM   H15B 9719   0.960   4.459  11.484  0.8667  1.3117  0.1781
   98OSM   H15C 9720   1.083   4.552  11.396  1.8570  0.0470 -0.4394
   98OSM    C14 9721   0.923   4.273  11.345  0.1440  0.1879  0.3732
   98OSM   H14A 9722   0.883   4.286  11.445  0.9787  1.6296  0.5383
   98OSM   H14B 9723   1.006   4.206  11.333 -0.6204 -0.4868 -1.4187
   98OSM   H14C 9724   0.842   4.235  11.284 -0.8372  1.3655  0.8966
   98OSM    C13 9725   0.838   4.489  11.282  0.3995  1.0871 -0.5182
   98OSM   H13A 9726   0.863   4.593  11.262  1.6752  1.1814  1.3586
   98OSM   H13B 9727   0.776   4.498  11.369 -0.8770 -3.6102 -0.6642
   98OSM   H13C 9728   0.770   4.454  11.206  0.1347 -0.2847  0.3225
   98OSM    C12 9729   1.032   4.415  11.168  0.2806  0.2677  0.9840
   98OSM   H12A 9730   1.128   4.367  11.182 -0.8045 -1.8612  1.5677
   98OSM   H12B 9731   1.059   4.515  11.137 -0.1554  0.4833  1.3046
   98OSM    C11 9732   0.973   4.346  11.042 -0.5102 -0.6158 -0.0665
   98OSM   H11A 9733   1.043   4.372  10.960  1.3562 -2.0527  0.9835
   98OSM   H11B 9734   0.876   4.378  10.999 -1.4997 -1.1035  1.6862
   98OSM      P 9735   1.117   4.131  11.042  0.2061  0.0455 -0.1425
   98OSM    O13 9736   1.217   4.215  11.107 -0.6551 -0.1678  0.2225
   98OSM    O14 9737   1.090   3.998  11.102  0.1857  0.1890 -0.5475
   98OSM    O11 9738   1.140   4.118  10.884 -0.5777  0.6151 -0.0108
   98OSM    O12 9739   0.977   4.201  11.048  0.3678  0.2941  0.0743
   98OSM    C1S 9740   1.047   4.136  10.777  0.9659 -0.2730 -0.7362
   98OSM    H1S 9741   0.989   4.229  10.798  2.6463  0.2679  2.0565
   98OSM    H1T 9742   0.974   4.053  10.768 -1.9093  2.0775 -0.6306
   98OSM     NF 9743   0.982   4.203  10.555  0.7832 -0.5914  0.1970
   98OSM    HNF 9744   0.952   4.139  10.485  1.4018  0.0786 -0.7041
   98OSM    C2S 9745   1.099   4.166  10.636 -0.0754  0.1439  0.2725
   98OSM    H2S 9746   1.163   4.257  10.644  0.5808  0.2291 -3.8180
   98OSM    C3S 9747   1.187   4.052  10.580  0.6879  0.0796  0.3004
   98OSM    H3S 9748   1.113   3.969  10.580  0.7216  0.0508  1.0135
   98OSM     O3 9749   1.301   4.011  10.660 -0.0385 -0.1543  0.6352
   98OSM    HO3 9750   1.282   4.047  10.747 -0.4193 -0.7773  0.8161
   98OSM    C4S 9751   1.231   4.092  10.442 -0.2244 -0.2626 -0.2502
   98OSM    H4S 9752   1.172   4.042  10.364 -0.8827  2.1433 -1.4029
   98OSM    C5S 9753   1.335   4.173  10.410 -0.4947  0.4597  0.2227
   98OSM    H5S 9754   1.402   4.225  10.481 -0.9079  1.4925 -0.1284
   98OSM    C6S 9755   1.372   4.189  10.260 -0.3559 -0.6271 -0.1408
   98OSM    H6S 9756   1.479   4.160  10.255  0.5302  1.8164  2.0405
   98OSM    H6T 9757   1.364   4.297  10.240 -0.5559 -0.4768  0.6823
   98OSM    C7S 9758   1.298   4.113  10.153 -0.5440  0.8085 -0.2683
   98OSM    H7S 9759   1.195   4.154  10.161  0.7193  4.2612  0.0174
   98OSM    H7T 9760   1.299   4.004  10.176 -0.5693  0.3848 -2.1029
   98OSM    C8S 9761   1.355   4.137  10.014  0.4411 -0.7713  1.3095
   98OSM    H8S 9762   1.466   4.130  10.017  0.4771 -0.3603  1.0399
   98OSM    H8T 9763   1.346   4.247  10.002  0.2908 -0.4263  4.0095
   98OSM    C9S 9764   1.301   4.053   9.903  0.1400  0.2429  0.0655
   98OSM    H9S 9765   1.198   4.088   9.880 -0.9509 -1.7979  1.5229
   98OSM    H9T 9766   1.309   3.948   9.939  2.8278  0.5758  0.6635
   98OSM   C10S 9767   1.381   4.068   9.769  0.1446  0.2639 -0.5364
   98OSM   H10S 9768   1.486   4.034   9.781  0.7613  2.5049  1.0947
   98OSM   H10T 9769   1.372   4.179   9.762 -0.7122  0.4158  2.1125
   98OSM   C11S 9770   1.324   3.980   9.659 -0.3298  0.6151 -0.0578
   98OSM   H11S 9771   1.214   3.998   9.655 -0.0593  2.4838 -0.3124
   98OSM   H11T 9772   1.331   3.873   9.685  0.5358  0.8984  0.9513
   98OSM   C12S 9773   1.367   4.008   9.510 -0.7949  0.1866  0.4772
   98OSM   H12S 9774   1.478   4.003   9.505 -0.3781  0.8894  4.9510
   98OSM   H12T 9775   1.330   4.112   9.497  1.1545  0.8208 -0.3383
   98OSM   C13S 9776   1.304   3.918   9.403  1.0145  0.1888 -0.6548
   98OSM   H13S 9777   1.194   3.925   9.412  1.0161 -0.5256 -0.0037
   98OSM   H13T 9778   1.328   3.811   9.419 -1.2443 -0.3284 -0.3965
   98OSM   C14S 9779   1.328   3.948   9.255  0.2654 -0.0080  0.2457
   98OSM   H14S 9780   1.326   4.058   9.238 -2.2657  0.4755  2.9427
   98OSM   H14T 9781   1.252   3.898   9.192 -0.5719 -0.0116  1.2390
   98OSM   C15S 9782   1.467   3.889   9.218 -0.3945  0.4204 -0.6437
   98OSM   H15S 9783   1.474   3.785   9.254 -2.9479 -0.0201 -1.1771
   98OSM   H15T 9784   1.549   3.942   9.272 -0.5531 -0.5630  0.6046
   98OSM   C16S 9785   1.481   3.895   9.065  0.0955 -0.0353 -0.2907
   98OSM   H16S 9786   1.478   3.997   9.020  2.0863  0.9160  1.5586
   98OSM   H16T 9787   1.391   3.845   9.023 -1.0774 -0.0069  2.0573
   98OSM   C17S 9788   1.606   3.830   9.009 -0.9077  0.6112  0.4254
   98OSM   H17S 9789   1.622   3.732   9.059 -2.4832  1.1833  2.1878
   98OSM   H17T 9790   1.684   3.895   9.054 -0.2080 -0.9158  1.5075
   98OSM   C18S 9791   1.615   3.817   8.856 -0.0927  0.5469  0.2016
   98OSM   H18S 9792   1.601   3.915   8.806  0.6186  0.7170  0.3208
   98OSM   H18T 9793   1.542   3.748   8.808  0.5600  0.3886 -0.5721
   98OSM   H18U 9794   1.716   3.777   8.832 -0.8167 -0.9483 -0.4844
   98OSM    C1F 9795   0.923   4.322  10.556 -0.1383  0.2799  0.2632
   98OSM     OF 9796   0.972   4.415  10.619 -0.0408  0.1064 -0.3449
   98OSM    C2F 9797   0.804   4.325  10.467 -0.4720 -0.3844  0.6283
   98OSM    H2F 9798   0.735   4.406  10.501  1.4629  1.4781  0.3532
   98OSM    H2G 9799   0.756   4.225  10.472  1.7566 -1.4746  1.3293
   98OSM    C3F 9800   0.827   4.360  10.318 -0.1216  0.0253  0.0571
   98OSM    H3F 9801   0.728   4.369  10.269  0.6862 -0.5618 -1.7718
   98OSM    H3G 9802   0.878   4.273  10.272 -2.1285 -0.2292 -1.8181
   98OSM    C4F 9803   0.900   4.498  10.305 -0.0502  0.2857 -0.0273
   98OSM    H4F 9804   1.008   4.485  10.329 -0.1100 -2.8263 -0.9539
   98OSM    H4G 9805   0.854   4.573  10.372 -1.7288 -1.0592  0.3959
   98OSM    C5F 9806   0.900   4.556  10.162  0.2587 -0.0105 -0.7354
   98OSM    H5F 9807   0.947   4.656  10.150 -2.6545  1.6875  0.8316
   98OSM    H5G 9808   0.792   4.583  10.157  0.6652  1.7209 -0.6392
   98OSM    C6F 9809   0.938   4.468  10.045 -0.3561 -0.1369  0.0266
   98OSM    H6F 9810   0.862   4.387  10.044  2.4485 -3.0235 -2.1143
   98OSM    H6G 9811   1.037   4.426  10.071 -0.7322  0.3100  2.3864
   98OSM    C7F 9812   0.955   4.543   9.909  0.2847  0.0973  0.0077
   98OSM    H7F 9813   1.009   4.637   9.930 -2.4551  1.7552  0.0732
   98OSM    H7G 9814   0.862   4.571   9.856  1.9369  1.5617 -2.3235
   98OSM    C8F 9815   1.042   4.473   9.800 -0.2134  0.1418 -0.6611
   98OSM    H8F 9816   0.990   4.393   9.743 -0.2842 -1.0134  0.9743
   98OSM    H8G 9817   1.120   4.425   9.862 -0.6900  0.4333  0.1850
   98OSM    C9F 9818   1.105   4.583   9.719 -0.3516  0.3536 -0.0725
   98OSM    H9F 9819   1.166   4.660   9.769 -0.5756  1.0622 -0.8649
   98OSM   C10F 9820   1.102   4.582   9.587 -0.3006 -0.5517 -0.5769
   98OSM   H10F 9821   1.140   4.674   9.539 -0.7620 -0.4596 -0.7716
   98OSM   C11F 9822   1.047   4.471   9.496  0.1336 -0.3345  0.3230
   98OSM   H11F 9823   0.936   4.462   9.491 -0.2033  3.0023 -0.6051
   98OSM   H11G 9824   1.077   4.372   9.536  1.2030 -0.6254 -1.0999
   98OSM   C12F 9825   1.110   4.469   9.354 -0.0766  0.0710 -0.1757
   98OSM   H12F 9826   1.215   4.505   9.362  0.4712 -1.4588 -0.2275
   98OSM   H12G 9827   1.067   4.536   9.277  1.9679  1.9234  0.1857
   98OSM   C13F 9828   1.129   4.325   9.298  0.5434  1.3853  0.6420
   98OSM   H13F 9829   1.032   4.273   9.282 -0.0278  2.5560  0.2080
   98OSM   H13G 9830   1.177   4.255   9.371  0.9532 -0.3704 -1.2206
   98OSM   C14F 9831   1.202   4.319   9.166 -0.1916 -0.1737 -1.1093
   98OSM   H14F 9832   1.234   4.213   9.154  4.1050  0.8974 -0.9652
   98OSM   H14G 9833   1.298   4.374   9.180 -1.1327  0.7855  3.1853
   98OSM   C15F 9834   1.116   4.353   9.045 -0.3747 -0.5325  0.4669
   98OSM   H15F 9835   1.089   4.461   9.049  1.8241  0.0880  0.0572
   98OSM   H15G 9836   1.029   4.285   9.041 -0.2402 -0.7502  1.1591
   98OSM   C16F 9837   1.185   4.329   8.906  0.3975  0.4965 -0.2014
   98OSM   H16F 9838   1.268   4.256   8.906 -0.3286 -0.4263 -2.3987
   98OSM   H16G 9839   1.232   4.421   8.863  2.0585 -0.3780 -0.3260
   98OSM   C17F 9840   1.085   4.281   8.794 -0.3736 -0.2253 -0.0497
   98OSM   H17F 9841   1.059   4.177   8.823  1.5433 -1.1095 -1.3490
   98OSM   H17G 9842   1.150   4.285   8.705  0.7915 -2.3773  0.6306
   98OSM   C18F 9843   0.966   4.378   8.790  0.2032  0.9309 -0.0267
   98OSM   H18F 9844   1.008   4.473   8.749 -1.0358  1.2399 -0.6418
   98OSM   H18G 9845   0.918   4.409   8.885  0.1883  0.2375  0.2002
   98OSM   H18H 9846   0.885   4.342   8.723 -0.5583 -0.0110  1.3631
   99OSM      N 9847   2.708   6.565  10.797 -0.2616 -0.2143  0.5426
   99OSM    C15 9848   2.638   6.452  10.849  0.0307 -0.0619 -0.1860
   99OSM   H15A 9849   2.550   6.487  10.900  1.3325 -1.7368  3.5296
   99OSM   H15B 9850   2.699   6.409  10.927 -0.9985  1.3785  1.4869
   99OSM   H15C 9851   2.608   6.372  10.783 -2.1845 -0.1259  0.8301
   99OSM    C14 9852   2.765   6.649  10.905  0.2214  0.3542  0.4649
   99OSM   H14A 9853   2.814   6.581  10.972 -3.2709 -1.6397  1.2694
   99OSM   H14B 9854   2.689   6.707  10.955  0.7110 -0.0373  1.6891
   99OSM   H14C 9855   2.838   6.710  10.854  0.3685 -1.7149 -1.9749
   99OSM    C13 9856   2.827   6.513  10.718 -0.2920  0.3115  0.5669
   99OSM   H13A 9857   2.795   6.464  10.627  0.6491 -0.9812  0.9208
   99OSM   H13B 9858   2.870   6.434  10.777 -0.9105 -0.5582 -0.1193
   99OSM   H13C 9859   2.894   6.589  10.680 -3.8878  2.0636 -3.1327
   99OSM    C12 9860   2.616   6.641  10.700  0.0346 -0.3507  0.2641
   99OSM   H12A 9861   2.585   6.565  10.629 -0.9621  0.6542 -0.4059
   99OSM   H12B 9862   2.679   6.716  10.655  0.8948 -0.7999  0.6961
   99OSM    C11 9863   2.480   6.696  10.760 -0.2440  0.1630  0.3693
   99OSM   H11A 9864   2.436   6.633  10.840  0.8889 -1.2462 -0.0571
   99OSM   H11B 9865   2.399   6.707  10.685  0.1821  0.4704 -0.0496
   99OSM      P 9866   2.522   6.956  10.754  0.3382  0.0908  0.4392
   99OSM    O13 9867   2.379   6.989  10.728  0.4426 -0.4253  0.3808
   99OSM    O14 9868   2.610   7.039  10.847 -0.2735  0.2108  0.0776
   99OSM    O11 9869   2.592   6.917  10.624 -0.3141  0.0213 -0.1064
   99OSM    O12 9870   2.515   6.815  10.826 -0.4333  0.0641 -0.2370
   99OSM    C1S 9871   2.723   6.956  10.598 -0.2748  0.3774 -0.8793
   99OSM    H1S 9872   2.792   6.926  10.679 -0.7997 -2.2046 -1.3024
   99OSM    H1T 9873   2.731   7.067  10.592  1.0150  0.3235 -0.3509
   99OSM     NF 9874   2.915   6.912  10.450 -0.8517  0.0138 -0.2103
   99OSM    HNF 9875   2.933   6.977  10.375 -2.1648 -0.5157 -1.0186
   99OSM    C2S 9876   2.772   6.886  10.467 -0.2222  0.7737 -0.3166
   99OSM    H2S 9877   2.757   6.777  10.482 -1.6438  0.8829 -0.7430
   99OSM    C3S 9878   2.683   6.929  10.346  0.0294 -0.2537  0.3681
   99OSM    H3S 9879   2.688   7.040  10.335  0.5794 -0.3885 -0.8676
   99OSM     O3 9880   2.538   6.918  10.357  0.4681 -0.8946 -0.1392
   99OSM    HO3 9881   2.531   6.915  10.453 -2.0188 -0.0808 -0.2005
   99OSM    C4S 9882   2.721   6.860  10.220 -0.0156  0.0048 -0.7439
   99OSM    H4S 9883   2.701   6.752  10.223  0.5628 -0.0853  0.6952
   99OSM    C5S 9884   2.767   6.914  10.109 -0.7603 -0.2584  0.1554
   99OSM    H5S 9885   2.780   7.023  10.109  0.0196 -0.3427  0.3455
   99OSM    C6S 9886   2.793   6.847   9.975 -0.4579 -0.3986 -0.6154
   99OSM    H6S 9887   2.774   6.738   9.984 -0.0816 -0.7492 -3.3749
   99OSM    H6T 9888   2.899   6.865   9.946 -1.0797  0.1355 -2.7184
   99OSM    C7S 9889   2.700   6.878   9.859  0.4243 -0.1767 -0.2088
   99OSM    H7S 9890   2.701   6.987   9.835 -2.2925  0.1681  0.9203
   99OSM    H7T 9891   2.598   6.850   9.891  0.4265  0.6192  0.5322
   99OSM    C8S 9892   2.733   6.792   9.730 -0.1725  0.0235  0.1451
   99OSM    H8S 9893   2.753   6.686   9.757 -0.0160 -0.8885 -3.1010
   99OSM    H8T 9894   2.824   6.835   9.683 -1.0045  1.0271 -0.6000
   99OSM    C9S 9895   2.620   6.781   9.629  0.8756  0.6751 -0.8314
   99OSM    H9S 9896   2.532   6.764   9.695  1.7693  3.0073  1.1399
   99OSM    H9T 9897   2.648   6.698   9.561 -0.0861  0.8978 -1.5218
   99OSM   C10S 9898   2.580   6.911   9.557  0.1700 -0.1740  0.0792
   99OSM   H10S 9899   2.672   6.965   9.529  0.1866  1.9886  3.6801
   99OSM   H10T 9900   2.524   6.976   9.628 -1.8703  0.2703 -1.8202
   99OSM   C11S 9901   2.489   6.882   9.433  0.4501 -0.2109 -0.3981
   99OSM   H11S 9902   2.404   6.821   9.470 -1.6758  1.0668 -2.8930
   99OSM   H11T 9903   2.531   6.819   9.352 -2.6124 -2.7917 -0.1915
   99OSM   C12S 9904   2.420   7.006   9.379 -0.0879  0.2209  0.1091
   99OSM   H12S 9905   2.365   6.964   9.291  2.6389 -2.7070 -0.3963
   99OSM   H12T 9906   2.351   7.038   9.460 -1.3956  0.9546 -1.2372
   99OSM   C13S 9907   2.512   7.116   9.321 -0.4726 -0.5176  0.1252
   99OSM   H13S 9908   2.580   7.061   9.252 -1.5743  0.1668 -1.5620
   99OSM   H13T 9909   2.568   7.170   9.400 -2.1842  2.0441 -0.3016
   99OSM   C14S 9910   2.429   7.213   9.235  0.0128  0.1267  0.2160
   99OSM   H14S 9911   2.339   7.243   9.293 -0.8937 -0.6729 -0.7378
   99OSM   H14T 9912   2.390   7.159   9.146 -1.3028  0.2536  0.6977
   99OSM   C15S 9913   2.493   7.353   9.199 -0.3001  0.6254  0.9455
   99OSM   H15S 9914   2.586   7.338   9.139 -1.3403 -0.3093 -0.5129
   99OSM   H15T 9915   2.511   7.410   9.293  3.8940  0.2703  0.5602
   99OSM   C16S 9916   2.404   7.444   9.110  0.5223  0.2605 -0.3055
   99OSM   H16S 9917   2.311   7.472   9.164  1.8770 -0.8903  2.8753
   99OSM   H16T 9918   2.389   7.401   9.009  0.8634 -0.6908  0.0337
   99OSM   C17S 9919   2.470   7.585   9.093 -0.5608  0.0832  0.3790
   99OSM   H17S 9920   2.553   7.567   9.022 -0.2215  2.9600 -0.0791
   99OSM   H17T 9921   2.512   7.622   9.189  1.2908 -2.8011  0.7683
   99OSM   C18S 9922   2.380   7.687   9.024  0.0874  0.2007  0.3314
   99OSM   H18S 9923   2.432   7.782   9.001 -0.4540  0.5957  0.7003
   99OSM   H18T 9924   2.308   7.732   9.096  0.0398  1.1111 -0.2696
   99OSM   H18U 9925   2.323   7.648   8.937  0.2980  0.9079 -0.1305
   99OSM    C1F 9926   3.006   6.848  10.513 -0.2040  0.4289  0.0859
   99OSM     OF 9927   2.982   6.764  10.595 -0.4543 -0.3982 -0.2110
   99OSM    C2F 9928   3.151   6.881  10.483 -0.6694 -0.6752 -0.0208
   99OSM    H2F 9929   3.212   6.835  10.564 -0.2210 -0.6162 -0.3221
   99OSM    H2G 9930   3.149   6.992  10.494 -2.1029 -0.8733  2.5454
   99OSM    C3F 9931   3.191   6.831  10.345  0.2468  0.0549 -0.8729
   99OSM    H3F 9932   3.146   6.732  10.324 -0.1622  0.6859 -3.1561
   99OSM    H3G 9933   3.158   6.895  10.260 -0.9161  0.1426 -0.3762
   99OSM    C4F 9934   3.345   6.844  10.326  0.2136  0.9669  0.0657
   99OSM    H4F 9935   3.384   6.783  10.410 -2.4008 -2.1346 -0.7871
   99OSM    H4G 9936   3.384   6.948  10.334  0.6683  0.7235  1.1710
   99OSM    C5F 9937   3.401   6.783  10.195 -0.1224  0.5742  1.3213
   99OSM    H5F 9938   3.360   6.680  10.183 -0.4601  0.9141 -0.8076
   99OSM    H5G 9939   3.509   6.775  10.218  0.1628  1.1358  0.2024
   99OSM    C6F 9940   3.361   6.861  10.068 -0.3878  0.4442 -0.1526
   99OSM    H6F 9941   3.403   6.963  10.086 -0.6623  0.1939  2.2780
   99OSM    H6G 9942   3.251   6.864  10.060 -0.3689  2.6445 -0.1877
   99OSM    C7F 9943   3.426   6.798   9.943  0.6064 -0.2320  0.2914
   99OSM    H7F 9944   3.396   6.693   9.926 -0.1776 -0.1769  1.2632
   99OSM    H7G 9945   3.533   6.780   9.967 -0.0027 -1.8170  1.9625
   99OSM    C8F 9946   3.407   6.882   9.816 -1.0826  0.0131 -0.3363
   99OSM    H8F 9947   3.473   6.846   9.734 -1.9092 -0.7714 -0.6726
   99OSM    H8G 9948   3.444   6.985   9.834  2.0598 -1.3411  2.0704
   99OSM    C9F 9949   3.263   6.881   9.777  0.3197 -0.0790 -0.1574
   99OSM    H9F 9950   3.196   6.928   9.850  0.4619  1.0304 -0.7165
   99OSM   C10F 9951   3.208   6.831   9.660 -1.1863  0.0065 -0.4189
   99OSM   H10F 9952   3.101   6.848   9.637 -1.5273 -0.1145  0.9903
   99OSM   C11F 9953   3.290   6.764   9.547  0.1942  0.2517  0.0539
   99OSM   H11F 9954   3.236   6.668   9.529 -0.7746  0.6089  0.9387
   99OSM   H11G 9955   3.398   6.749   9.569  0.0055 -0.2252  0.7015
   99OSM   C12F 9956   3.274   6.843   9.417  0.3549 -0.2635  0.1482
   99OSM   H12F 9957   3.348   6.925   9.423  0.1154  0.2161 -2.3313
   99OSM   H12G 9958   3.177   6.897   9.419  0.5498  0.3970 -3.1713
   99OSM   C13F 9959   3.282   6.755   9.286  0.4626 -1.1110 -0.2046
   99OSM   H13F 9960   3.190   6.697   9.266  0.3689 -0.7037 -1.0135
   99OSM   H13G 9961   3.371   6.688   9.290  1.4392  0.1463 -0.1152
   99OSM   C14F 9962   3.299   6.853   9.167  0.1492 -0.3047  0.2829
   99OSM   H14F 9963   3.404   6.888   9.159  0.1857  0.5141  3.2234
   99OSM   H14G 9964   3.223   6.935   9.164  0.4992  0.1084  1.8928
   99OSM   C15F 9965   3.278   6.771   9.044  0.0459 -0.3923 -0.1243
   99OSM   H15F 9966   3.209   6.684   9.058 -0.8368  0.2803 -0.2183
   99OSM   H15G 9967   3.375   6.722   9.020  0.5322 -0.0942  1.1281
   99OSM   C16F 9968   3.234   6.855   8.916  0.5345  0.3260  0.2223
   99OSM   H16F 9969   3.126   6.880   8.911  0.5749  0.3933 -0.3692
   99OSM   H16G 9970   3.246   6.781   8.834  1.7229  1.6328 -0.8342
   99OSM   C17F 9971   3.326   6.977   8.876  1.0906 -0.1800 -0.1224
   99OSM   H17F 9972   3.328   7.053   8.957 -0.4461 -0.7021  0.4329
   99OSM   H17G 9973   3.267   7.018   8.792  0.4843  0.1299  0.4469
   99OSM   C18F 9974   3.471   6.941   8.842 -0.1394  0.1343  0.0996
   99OSM   H18F 9975   3.516   7.007   8.764 -0.2630  0.0853 -0.0141
   99OSM   H18G 9976   3.480   6.839   8.799  0.2302  0.6240 -1.0345
   99OSM   H18H 9977   3.528   6.934   8.937 -1.2543 -1.1208  0.7056
  100OSM      N 9978   0.849   6.698  11.006  0.2737  0.5993  0.4420
  100OSM    C15 9979   0.723   6.688  11.082  0.5691 -0.1617  0.0176
  100OSM   H15A 9980   0.749   6.651  11.180  2.4378 -0.4059 -0.5259
  100OSM   H15B 9981   0.657   6.624  11.026  2.4389  0.7649 -3.5614
  100OSM   H15C 9982   0.673   6.784  11.092  0.5897  0.0304 -1.4453
  100OSM    C14 9983   0.936   6.800  11.070 -0.3079  0.4942 -0.1513
  100OSM   H14A 9984   0.993   6.767  11.156 -1.6571  1.5089  1.1849
  100OSM   H14B 9985   0.877   6.885  11.099  1.2150  1.6624 -0.3839
  100OSM   H14C 9986   1.008   6.834  10.998  1.3738  0.6862  1.5385
  100OSM    C13 9987   0.912   6.562  11.005  0.3125  0.0280 -0.5494
  100OSM   H13A 9988   0.842   6.499  10.952 -1.4785  2.1695 -0.9283
  100OSM   H13B 9989   0.921   6.521  11.105  0.8185 -0.3504 -0.7502
  100OSM   H13C 9990   1.010   6.561  10.960 -0.3534 -0.8246 -2.0177
  100OSM    C12 9991   0.824   6.732  10.858 -0.1396  0.1837  0.0105
  100OSM   H12A 9992   0.782   6.640  10.819  0.5523  0.2401 -0.9057
  100OSM   H12B 9993   0.921   6.736  10.811 -1.0099  1.1205 -1.8470
  100OSM    C11 9994   0.745   6.858  10.822 -0.3111 -0.1093  0.1116
  100OSM   H11A 9995   0.754   6.870  10.711  1.7512 -0.6670  0.1788
  100OSM   H11B 9996   0.803   6.948  10.850 -0.6959  0.4814 -0.9280
  100OSM      P 9997   0.510   6.761  10.807  0.1795  0.0632  0.0120
  100OSM    O13 9998   0.542   6.624  10.853 -0.3115  0.4182  0.1972
  100OSM    O14 9999   0.373   6.799  10.841 -0.5290 -0.8698 -0.3726
  100OSM    O1110000   0.533   6.780  10.654 -0.0631 -0.9069 -0.5329
  100OSM    O1210001   0.616   6.862  10.867  0.1640  0.5146  0.0672
  100OSM    C1S10002   0.452   6.727  10.553  0.1181 -0.0593 -0.7095
  100OSM    H1S10003   0.354   6.780  10.558  0.8762  1.2784  3.6642
  100OSM    H1T10004   0.447   6.619  10.580  1.3039  0.2574  0.8967
  100OSM     NF10005   0.432   6.729  10.306 -0.3785  0.0605 -0.1212
  100OSM    HNF10006   0.442   6.643  10.257 -0.0119 -0.6006  1.0778
  100OSM    C2S10007   0.519   6.751  10.417 -0.5297  0.0275 -0.7805
  100OSM    H2S10008   0.554   6.856  10.423  1.7702 -0.7843  2.2481
  100OSM    C3S10009   0.648   6.677  10.399 -1.2670  0.3207  0.2238
  100OSM    H3S10010   0.620   6.570  10.411 -2.6755  0.7302  0.8310
  100OSM     O310011   0.744   6.692  10.500  0.1586 -0.4351 -0.3030
  100OSM    HO310012   0.693   6.726  10.574 -0.5303  2.0732 -1.8035
  100OSM    C4S10013   0.709   6.703  10.271  0.5558  0.2426  0.2929
  100OSM    H4S10014   0.749   6.805  10.267 -0.2123  0.5224 -1.4083
  100OSM    C5S10015   0.721   6.611  10.169  0.3876 -0.2410  0.2570
  100OSM    H5S10016   0.684   6.509  10.185 -0.9789  0.1609 -0.1806
  100OSM    C6S10017   0.786   6.654  10.038  0.4267  0.4181  0.4941
  100OSM    H6S10018   0.882   6.603  10.016  1.1313  1.1852  1.6291
  100OSM    H6T10019   0.826   6.758  10.037  0.0186  0.5752 -1.1623
  100OSM    C7S10020   0.676   6.653   9.928  0.5889 -0.1757 -0.5108
  100OSM    H7S10021   0.586   6.714   9.949 -0.2012 -1.3356 -0.4155
  100OSM    H7T10022   0.631   6.552   9.917  2.8479 -1.4639  1.2971
  100OSM    C8S10023   0.730   6.696   9.795  0.2560 -0.3119 -0.5007
  100OSM    H8S10024   0.782   6.606   9.755  0.5095 -1.0257  1.3438
  100OSM    H8T10025   0.796   6.782   9.820 -1.4235  0.0849  3.1687
  100OSM    C9S10026   0.622   6.735   9.690  0.2464  0.2963 -0.1507
  100OSM    H9S10027   0.577   6.834   9.710  1.7994  0.8036  1.0891
  100OSM    H9T10028   0.550   6.652   9.702  0.7857 -0.0873  0.5225
  100OSM   C10S10029   0.681   6.743   9.550  0.5018  1.1121 -0.1480
  100OSM   H10S10030   0.739   6.650   9.530 -0.1311  0.6709  0.0386
  100OSM   H10T10031   0.753   6.828   9.540  1.5081  0.1246 -2.0980
  100OSM   C11S10032   0.564   6.756   9.444 -0.6398  0.3030 -0.5492
  100OSM   H11S10033   0.530   6.858   9.468  2.1360  0.9475  1.1364
  100OSM   H11T10034   0.480   6.687   9.469 -0.0753 -0.1154  0.2575
  100OSM   C12S10035   0.615   6.748   9.296  0.2711  1.2210 -0.4956
  100OSM   H12S10036   0.693   6.669   9.306 -0.5129  0.5169  0.2484
  100OSM   H12T10037   0.677   6.836   9.271  4.7860 -0.9045  1.9816
  100OSM   C13S10038   0.512   6.710   9.192 -0.1744  0.0538 -0.1408
  100OSM   H13S10039   0.419   6.770   9.208  0.3161  0.5037  1.0939
  100OSM   H13T10040   0.488   6.604   9.213  0.4208 -0.5801 -2.3720
  100OSM   C14S10041   0.560   6.731   9.055  0.0682 -0.5152 -0.7394
  100OSM   H14S10042   0.500   6.687   8.972 -1.0244  0.7539 -0.6573
  100OSM   H14T10043   0.659   6.686   9.033  0.9722  1.0846 -0.1222
  100OSM   C15S10044   0.565   6.878   9.013  0.0958 -0.8365  0.3248
  100OSM   H15S10045   0.626   6.940   9.081 -1.3326  0.3503  0.5952
  100OSM   H15T10046   0.463   6.923   9.010 -0.4760 -2.0753  0.5173
  100OSM   C16S10047   0.630   6.898   8.869  0.8655  0.0474 -0.0457
  100OSM   H16S10048   0.552   6.869   8.795 -0.4822  1.3468  0.7897
  100OSM   H16T10049   0.701   6.814   8.859  3.8883  2.5171 -0.6844
  100OSM   C17S10050   0.694   7.029   8.831 -1.0413  0.0582  0.4074
  100OSM   H17S10051   0.748   7.013   8.736 -0.7915 -1.3821  0.7697
  100OSM   H17T10052   0.769   7.057   8.907 -1.2999 -1.8845  1.4536
  100OSM   C18S10053   0.578   7.130   8.809  0.6250  0.3546 -0.4337
  100OSM   H18S10054   0.501   7.095   8.737  1.1201  0.3179 -0.9544
  100OSM   H18T10055   0.613   7.226   8.765 -2.0230  1.7517  0.3263
  100OSM   H18U10056   0.530   7.156   8.906  0.2801 -0.1690 -0.4596
  100OSM    C1F10057   0.320   6.799  10.287  0.0899 -0.1554 -0.3107
  100OSM     OF10058   0.299   6.907  10.345  0.3335 -0.0608  0.3752
  100OSM    C2F10059   0.212   6.735  10.206  0.3515  0.2447 -0.5742
  100OSM    H2F10060   0.114   6.737  10.258 -0.6499 -0.2016 -2.3670
  100OSM    H2G10061   0.245   6.632  10.182  0.0610 -0.3662  1.5288
  100OSM    C3F10062   0.182   6.820  10.083  0.3612 -0.0561 -0.1351
  100OSM    H3F10063   0.158   6.923  10.117  0.2327 -0.5272  1.2599
  100OSM    H3G10064   0.085   6.784  10.041  0.8847 -0.5915 -0.9298
  100OSM    C4F10065   0.298   6.829   9.974  0.2412  0.4187  0.0147
  100OSM    H4F10066   0.313   6.725   9.936 -0.0235  0.7759 -1.1222
  100OSM    H4G10067   0.392   6.845  10.031  0.2476 -0.9506  0.4194
  100OSM    C5F10068   0.292   6.926   9.856  0.1417 -1.0454 -0.3045
  100OSM    H5F10069   0.388   6.952   9.806  0.6908 -0.4469  1.0136
  100OSM    H5G10070   0.257   7.022   9.899 -1.0257 -1.1898 -0.8775
  100OSM    C6F10071   0.190   6.878   9.762  0.8542  0.1020 -0.1709
  100OSM    H6F10072   0.103   6.844   9.822  1.5382 -1.5383 -0.0648
  100OSM    H6G10073   0.210   6.782   9.711 -0.6220 -0.2297 -0.1723
  100OSM    C7F10074   0.125   6.990   9.675 -0.1352 -0.4691  0.1927
  100OSM    H7F10075   0.088   7.072   9.740 -0.7108 -0.3765 -0.2419
  100OSM    H7G10076   0.035   6.947   9.626  0.0931  0.1355 -0.7697
  100OSM    C8F10077   0.221   7.052   9.570 -0.0332  0.9327 -0.5566
  100OSM    H8F10078   0.269   6.962   9.526 -0.0300  1.7317 -2.2927
  100OSM    H8G10079   0.306   7.106   9.617 -0.0128  1.1739 -0.8666
  100OSM    C9F10080   0.149   7.143   9.478  0.5138 -0.3396 -0.4784
  100OSM    H9F10081   0.136   7.246   9.512  1.7064 -0.1054 -0.6776
  100OSM   C10F10082   0.089   7.110   9.359 -0.0065 -0.4103  0.8136
  100OSM   H10F10083   0.018   7.183   9.318 -0.0673 -1.0461 -0.2382
  100OSM   C11F10084   0.085   6.970   9.288 -0.0923 -0.4979  0.2552
  100OSM   H11F10085  -0.019   6.938   9.266  0.2556 -0.6616 -1.3150
  100OSM   H11G10086   0.131   6.888   9.347 -1.0360 -1.5172 -0.3994
  100OSM   C12F10087   0.157   6.980   9.152  0.0460  0.0358  0.5152
  100OSM   H12F10088   0.158   6.872   9.123 -1.9783  0.4138 -1.2456
  100OSM   H12G10089   0.259   7.022   9.162  0.2596 -0.4854  0.5918
  100OSM   C13F10090   0.082   7.056   9.037  0.3251 -0.2855  0.1352
  100OSM   H13F10091   0.046   7.150   9.084 -2.3725 -1.1984  0.0998
  100OSM   H13G10092  -0.017   7.010   9.015 -1.6881  3.6268  0.0727
  100OSM   C14F10093   0.154   7.088   8.904  0.9023 -0.6311  0.2036
  100OSM   H14F10094   0.235   7.164   8.910  0.4689 -0.1350 -0.1899
  100OSM   H14G10095   0.078   7.129   8.835 -0.2654 -0.4837  1.5341
  100OSM   C15F10096   0.223   6.970   8.837 -0.4090 -0.4357 -0.1294
  100OSM   H15F10097   0.302   6.937   8.908 -1.4708 -0.8264  0.9174
  100OSM   H15G10098   0.287   7.013   8.758  0.1922  0.1520  0.6591
  100OSM   C16F10099   0.129   6.855   8.808 -0.5279 -0.7505  0.3573
  100OSM   H16F10100   0.106   6.795   8.898 -0.5297  1.2310  1.7353
  100OSM   H16G10101   0.187   6.782   8.746  0.8852  0.1553  0.5622
  100OSM   C17F10102   0.006   6.883   8.718  0.2505 -0.3337 -0.4859
  100OSM   H17F10103  -0.065   6.946   8.775 -0.4427 -0.1292 -1.5488
  100OSM   H17G10104  -0.046   6.785   8.721  0.0967 -0.2454  2.3811
  100OSM   C18F10105   0.037   6.946   8.576 -0.0910  0.3465 -0.6940
  100OSM   H18F10106   0.086   7.044   8.595 -0.3258  0.2459  0.5746
  100OSM   H18G10107  -0.047   6.961   8.506 -0.7123 -1.7933 -0.4781
  100OSM   H18H10108   0.107   6.877   8.524  0.2762  1.0793 -1.1859
  101OSM      N10109   0.251   6.428  11.073  0.5519  0.1148  0.6737
  101OSM    C1510110   0.105   6.450  11.042 -0.1502 -0.3166 -0.9075
  101OSM   H15A10111   0.037   6.426  11.122  0.3252 -2.7667 -1.1695
  101OSM   H15B10112   0.071   6.397  10.954 -0.2330  0.3488 -1.2830
  101OSM   H15C10113   0.089   6.555  11.020 -1.1744 -0.3525 -0.3985
  101OSM    C1410114   0.293   6.500  11.198  0.1414  0.2468 -0.5434
  101OSM   H14A10115   0.393   6.477  11.231 -0.4325 -0.7071  0.6001
  101OSM   H14B10116   0.231   6.484  11.284  2.3093 -0.3397  0.9968
  101OSM   H14C10117   0.283   6.605  11.175  0.2564 -0.1486 -2.6303
  101OSM    C1310118   0.273   6.280  11.091 -0.0895 -0.3584 -0.2752
  101OSM   H13A10119   0.248   6.227  11.000 -0.7036 -0.4851 -0.0374
  101OSM   H13B10120   0.215   6.235  11.170 -0.4005  0.0406 -0.2734
  101OSM   H13C10121   0.377   6.263  11.113  0.3396  0.4329 -1.5726
  101OSM    C1210122   0.336   6.477  10.956  0.7622  0.4396 -0.2199
  101OSM   H12A10123   0.439   6.462  10.987  0.4168 -0.8820  0.3186
  101OSM   H12B10124   0.323   6.584  10.948  0.0192  0.2926 -1.2078
  101OSM    C1110125   0.317   6.415  10.816 -0.7831  0.3496  0.3235
  101OSM   H11A10126   0.394   6.460  10.750 -0.0475 -0.5670  0.5260
  101OSM   H11B10127   0.220   6.458  10.785 -1.1545  0.3698  1.4661
  101OSM      P10128   0.460   6.200  10.817 -0.0214  0.3715  0.1222
  101OSM    O1310129   0.531   6.236  10.943 -0.2461  0.2947 -0.4838
  101OSM    O1410130   0.439   6.053  10.808 -0.3768  0.0319  0.4070
  101OSM    O1110131   0.530   6.254  10.680  0.1666 -0.5433  1.0074
  101OSM    O1210132   0.332   6.271  10.816  0.1798 -0.0906 -0.2464
  101OSM    C1S10133   0.472   6.228  10.554 -0.7611  0.5726 -0.0588
  101OSM    H1S10134   0.388   6.301  10.548 -0.1229  1.3376  0.1586
  101OSM    H1T10135   0.446   6.120  10.546 -1.9538  0.6900  1.6141
  101OSM     NF10136   0.500   6.252  10.308 -0.1944 -0.4923 -0.3314
  101OSM    HNF10137   0.514   6.167  10.257  0.9526  0.6763 -2.0759
  101OSM    C2S10138   0.565   6.259  10.437  0.0662 -0.5632 -0.1536
  101OSM    H2S10139   0.598   6.364  10.451 -0.1945 -0.4844 -0.1282
  101OSM    C3S10140   0.693   6.170  10.448 -0.3670 -0.7782 -0.1078
  101OSM    H3S10141   0.661   6.066  10.422  1.5487 -0.7575 -2.8898
  101OSM     O310142   0.751   6.148  10.573 -0.4062 -0.2781  0.3296
  101OSM    HO310143   0.700   6.189  10.644  1.4908 -2.0372  2.9149
  101OSM    C4S10144   0.797   6.228  10.355 -0.1242 -0.1191  0.3894
  101OSM    H4S10145   0.845   6.316  10.400  0.4082 -0.7531  1.0911
  101OSM    C5S10146   0.837   6.175  10.241 -0.1533  0.0709 -0.0774
  101OSM    H5S10147   0.806   6.071  10.222  3.0583 -1.4375  2.0250
  101OSM    C6S10148   0.944   6.233  10.157 -0.7763  0.2758  0.0712
  101OSM    H6S10149   1.039   6.183  10.185 -1.0160 -1.0328 -1.3278
  101OSM    H6T10150   0.954   6.344  10.163  1.4205  0.3869 -3.2669
  101OSM    C7S10151   0.922   6.197  10.010 -0.5799 -0.1384  0.5667
  101OSM    H7S10152   0.882   6.095   9.994  0.1376 -0.1649 -1.3991
  101OSM    H7T10153   1.023   6.202   9.964 -0.4340  0.2699  0.9215
  101OSM    C8S10154   0.836   6.304   9.939 -0.5052 -0.2629 -0.9385
  101OSM    H8S10155   0.883   6.400   9.969 -0.0302 -0.9194  0.5210
  101OSM    H8T10156   0.737   6.308   9.989  0.6039  1.9991  1.2888
  101OSM    C9S10157   0.820   6.282   9.787 -1.0661  0.4609 -0.5446
  101OSM    H9S10158   0.736   6.349   9.758 -1.6944  0.1644  0.5206
  101OSM    H9T10159   0.805   6.175   9.759  2.0825 -0.0114 -0.7965
  101OSM   C10S10160   0.951   6.327   9.725  0.6405  0.2946 -0.1732
  101OSM   H10S10161   1.026   6.248   9.745  0.6643  0.2657 -0.3760
  101OSM   H10T10162   0.998   6.416   9.771 -0.8525  1.6314 -1.1184
  101OSM   C11S10163   0.952   6.340   9.572  0.0709 -0.5039 -0.1318
  101OSM   H11S10164   0.876   6.411   9.535  1.3332  0.1136 -1.6566
  101OSM   H11T10165   0.927   6.242   9.524  3.0381 -0.2639 -2.5322
  101OSM   C12S10166   1.090   6.380   9.532 -0.6405 -0.2982 -0.1625
  101OSM   H12S10167   1.173   6.322   9.578  1.9050  2.1173 -1.4132
  101OSM   H12T10168   1.102   6.478   9.583 -1.1456 -0.0533 -0.4992
  101OSM   C13S10169   1.115   6.414   9.382  0.8551  0.1055 -0.1649
  101OSM   H13S10170   1.135   6.326   9.318 -0.9096  0.1590 -0.8542
  101OSM   H13T10171   1.203   6.481   9.375  2.4146 -1.9163 -0.8705
  101OSM   C14S10172   0.994   6.489   9.319  0.9351  0.2014 -0.1757
  101OSM   H14S10173   0.969   6.567   9.395 -0.5193  0.4170 -0.8404
  101OSM   H14T10174   0.900   6.430   9.319  0.2905  1.1646  1.1100
  101OSM   C15S10175   1.028   6.533   9.176 -0.1682  0.0798 -0.3557
  101OSM   H15S10176   1.065   6.447   9.117 -3.0022 -0.2306 -1.8467
  101OSM   H15T10177   1.107   6.610   9.187 -1.0756  0.6789  3.4398
  101OSM   C16S10178   0.916   6.597   9.096  0.1893  0.2566 -0.4678
  101OSM   H16S10179   0.881   6.683   9.156  0.0895  0.7311 -1.1913
  101OSM   H16T10180   0.825   6.533   9.098 -1.2423  2.2007 -0.8909
  101OSM   C17S10181   0.980   6.631   8.959  0.9608 -0.2197 -0.1240
  101OSM   H17S10182   0.890   6.672   8.909  0.1553 -1.7433  0.0099
  101OSM   H17T10183   1.026   6.544   8.908  2.0947 -1.2322  2.4477
  101OSM   C18S10184   1.073   6.752   8.960 -0.5012 -0.7241 -0.1772
  101OSM   H18S10185   1.101   6.775   8.855 -0.1964  0.2366  0.1021
  101OSM   H18T10186   1.167   6.729   9.014 -0.4262  0.7503  0.3592
  101OSM   H18U10187   1.022   6.838   9.008 -0.3746 -0.7187 -0.0509
  101OSM    C1F10188   0.405   6.338  10.277  0.3913  0.0658  0.4547
  101OSM     OF10189   0.382   6.440  10.336  0.1783  0.6004  0.2003
  101OSM    C2F10190   0.334   6.289  10.152  0.0949 -0.1507  0.1740
  101OSM    H2F10191   0.224   6.292  10.168  0.3992  3.1884  2.8542
  101OSM    H2G10192   0.373   6.194  10.109 -0.2522 -0.7963  1.2720
  101OSM    C3F10193   0.367   6.387  10.037  0.1011 -0.1371 -0.1458
  101OSM    H3F10194   0.477   6.404  10.035  1.2230 -5.6408 -1.6447
  101OSM    H3G10195   0.314   6.481  10.063  2.4438  0.9821  0.9968
  101OSM    C4F10196   0.325   6.342   9.892  0.2464  0.4302 -0.0990
  101OSM    H4F10197   0.215   6.328   9.896  0.1971  1.0512  2.2702
  101OSM    H4G10198   0.385   6.252   9.869 -0.1582 -0.1527  1.0308
  101OSM    C5F10199   0.343   6.451   9.792  0.6214 -0.8349  0.5078
  101OSM    H5F10200   0.443   6.495   9.810  0.5815 -1.6633  3.0821
  101OSM    H5G10201   0.267   6.531   9.808 -0.8002 -1.7652 -1.1148
  101OSM    C6F10202   0.332   6.392   9.647 -0.2337 -0.1566  0.2632
  101OSM    H6F10203   0.253   6.315   9.631 -0.5600  0.6231 -2.2733
  101OSM    H6G10204   0.295   6.474   9.582 -0.9074 -0.1110  0.6917
  101OSM    C7F10205   0.469   6.344   9.597  0.5534 -0.0633  0.3470
  101OSM    H7F10206   0.483   6.248   9.650 -0.5754  0.9829  2.6983
  101OSM    H7G10207   0.543   6.423   9.625  1.1345 -0.1325 -0.9429
  101OSM    C8F10208   0.474   6.338   9.446 -0.6643 -0.0221  0.7611
  101OSM    H8F10209   0.481   6.432   9.386 -1.1147 -1.9986 -2.6506
  101OSM    H8G10210   0.372   6.307   9.413 -0.2145  0.3421 -1.0982
  101OSM    C9F10211   0.587   6.246   9.398  0.8730  0.0151  0.6934
  101OSM    H9F10212   0.666   6.234   9.474  0.8409 -0.8754  0.6043
  101OSM   C10F10213   0.588   6.173   9.280  0.3010 -0.3004 -0.1539
  101OSM   H10F10214   0.672   6.105   9.257 -1.0941 -2.1382  0.0488
  101OSM   C11F10215   0.483   6.189   9.178  0.5165  0.5076  0.8421
  101OSM   H11F10216   0.384   6.224   9.215 -1.5083 -1.1820 -2.5125
  101OSM   H11G10217   0.449   6.093   9.134  0.1592  1.2002 -0.4595
  101OSM   C12F10218   0.511   6.288   9.063 -0.1062 -0.4805 -0.1120
  101OSM   H12F10219   0.526   6.393   9.095 -1.1083 -0.5244  0.5554
  101OSM   H12G10220   0.417   6.293   9.004 -1.5571 -2.2458  1.8717
  101OSM   C13F10221   0.630   6.259   8.966  0.0914 -0.2543 -0.0120
  101OSM   H13F10222   0.644   6.151   8.943  0.1279 -0.0540 -0.9533
  101OSM   H13G10223   0.721   6.298   9.017 -0.4999  2.7452 -1.0634
  101OSM   C14F10224   0.623   6.325   8.826  0.7542 -0.2115 -0.0828
  101OSM   H14F10225   0.645   6.434   8.821 -0.3391 -0.0139 -1.2260
  101OSM   H14G10226   0.521   6.312   8.784  0.1885  1.6852  0.6104
  101OSM   C15F10227   0.719   6.253   8.732 -1.1704 -0.9633  0.0841
  101OSM   H15F10228   0.710   6.143   8.744 -2.4895 -0.7394  1.3858
  101OSM   H15G10229   0.817   6.277   8.778 -1.3767 -0.7046  0.3968
  101OSM   C16F10230   0.724   6.309   8.583 -0.2846 -0.0845  1.3890
  101OSM   H16F10231   0.788   6.239   8.524 -3.1616 -0.7342 -1.2570
  101OSM   H16G10232   0.769   6.410   8.581 -1.4579  0.4516  0.4200
  101OSM   C17F10233   0.596   6.323   8.505  0.1194  0.2009 -0.6227
  101OSM   H17F10234   0.520   6.365   8.574  1.7866  0.4875  1.1189
  101OSM   H17G10235   0.567   6.222   8.469  2.8943 -1.4467  1.4259
  101OSM   C18F10236   0.620   6.424   8.388 -0.0019 -1.2865 -0.0008
  101OSM   H18F10237   0.662   6.520   8.425 -0.3851 -0.5376 -1.4206
  101OSM   H18G10238   0.519   6.457   8.358 -0.5295 -0.8538  2.0930
  101OSM   H18H10239   0.687   6.395   8.304  1.7315 -0.1890  0.9359
  102OSM      N10240   5.653   1.519  11.134  0.0914 -0.4614  0.1831
  102OSM    C1510241   5.673   1.670  11.128  0.5742 -0.0050 -0.2733
  102OSM   H15A10242   5.581   1.720  11.103  1.0319 -0.2358 -2.6078
  102OSM   H15B10243   5.743   1.692  11.049  0.7791  2.0376  0.4014
  102OSM   H15C10244   5.711   1.720  11.216 -1.6290  1.5667 -0.1175
  102OSM    C1410245   5.783   1.461  11.177  0.2668 -0.5172  0.4522
  102OSM   H14A10246   5.773   1.353  11.177 -2.1225 -0.3344 -0.3087
  102OSM   H14B10247   5.810   1.499  11.275  0.3720 -2.5795  1.2767
  102OSM   H14C10248   5.868   1.483  11.114  1.2778 -0.8171  1.6596
  102OSM    C1310249   5.551   1.487  11.235 -0.0079 -0.1753  0.1664
  102OSM   H13A10250   5.509   1.389  11.222  2.5982 -1.4118  0.4285
  102OSM   H13B10251   5.473   1.562  11.231  0.8092  0.6932  0.2500
  102OSM   H13C10252   5.589   1.497  11.336 -2.9516  4.3191  1.1211
  102OSM    C1210253   5.622   1.469  10.994  0.0704  0.0645  0.6694
  102OSM   H12A10254   5.535   1.518  10.954  1.1594  1.5985  0.0939
  102OSM   H12B10255   5.593   1.364  10.993  1.1222 -0.2568  1.5311
  102OSM    C1110256   5.727   1.485  10.882 -0.0554  0.1070 -0.6376
  102OSM   H11A10257   5.683   1.434  10.794 -0.5664 -1.7235  0.6229
  102OSM   H11B10258   5.819   1.426  10.903  0.9581  1.5153 -0.9972
  102OSM      P10259   5.684   1.725  10.779  0.5287  0.2080  0.0517
  102OSM    O1310260   5.650   1.838  10.864 -0.1262 -0.6241 -0.2981
  102OSM    O1410261   5.755   1.754  10.655  0.0641  0.2188  0.2203
  102OSM    O1110262   5.545   1.653  10.746  0.1117 -0.0822  0.1018
  102OSM    O1210263   5.763   1.622  10.858 -0.7529  0.3791  0.3140
  102OSM    C1S10264   5.441   1.715  10.666  0.3768  0.2410  0.7618
  102OSM    H1S10265   5.437   1.825  10.686 -0.7149  0.8438 -2.3071
  102OSM    H1T10266   5.343   1.681  10.705  0.7725 -1.0417  0.6775
  102OSM     NF10267   5.370   1.778  10.422 -0.2478 -0.0970  0.2915
  102OSM    HNF10268   5.278   1.749  10.396 -0.4782  0.1286  0.8465
  102OSM    C2S10269   5.443   1.692  10.511 -0.5346  0.4089  0.0214
  102OSM    H2S10270   5.549   1.702  10.481 -0.7007 -1.3571 -1.3481
  102OSM    C3S10271   5.405   1.546  10.495  0.3498 -0.5082 -0.1533
  102OSM    H3S10272   5.294   1.539  10.493  0.3939 -1.3602 -1.6706
  102OSM     O310273   5.447   1.457  10.606  0.1243 -0.0038  0.2317
  102OSM    HO310274   5.469   1.526  10.669  0.3849  0.4750 -0.3736
  102OSM    C4S10275   5.449   1.496  10.360  0.1429  0.9258  0.5930
  102OSM    H4S10276   5.366   1.508  10.288 -2.2582  1.4323  3.2534
  102OSM    C5S10277   5.559   1.423  10.332 -0.0379  0.1808 -0.9956
  102OSM    H5S10278   5.622   1.386  10.415 -1.3898  0.0861  0.0257
  102OSM    C6S10279   5.592   1.371  10.195 -0.5073  0.3369 -0.2079
  102OSM    H6S10280   5.570   1.263  10.189 -1.4321  0.4166  1.3375
  102OSM    H6T10281   5.703   1.374  10.185 -0.3763 -2.1331 -0.0786
  102OSM    C7S10282   5.535   1.448  10.082 -0.2377 -0.4007  0.1686
  102OSM    H7S10283   5.539   1.558  10.096  1.4257 -0.5380  1.1119
  102OSM    H7T10284   5.427   1.424  10.076  0.3730 -3.2502 -1.7147
  102OSM    C8S10285   5.587   1.417   9.940  0.1843 -0.1245 -0.0189
  102OSM    H8S10286   5.596   1.307   9.930 -2.3228 -0.6462  2.4319
  102OSM    H8T10287   5.691   1.454   9.922  0.7998 -1.6055  0.3752
  102OSM    C9S10288   5.484   1.478   9.834  0.1164 -0.1732  0.4823
  102OSM    H9S10289   5.448   1.577   9.870  0.5234 -0.5121  1.8939
  102OSM    H9T10290   5.391   1.417   9.833 -0.9636  1.4153  0.7264
  102OSM   C10S10291   5.537   1.480   9.687  0.1075 -0.1708  0.7373
  102OSM   H10S10292   5.544   1.378   9.643 -0.3065  0.8024 -1.7601
  102OSM   H10T10293   5.638   1.525   9.682 -0.4752  1.0884 -0.3550
  102OSM   C11S10294   5.453   1.559   9.581 -0.3474  0.1542  0.2701
  102OSM   H11S10295   5.431   1.662   9.616 -0.4257  0.2716 -0.1257
  102OSM   H11T10296   5.364   1.505   9.544 -0.1157  0.9198 -1.5226
  102OSM   C12S10297   5.532   1.579   9.441  0.7544 -0.1668  0.3320
  102OSM   H12S10298   5.558   1.475   9.411 -2.3207 -0.4022 -2.1124
  102OSM   H12T10299   5.637   1.611   9.461 -0.2663  1.6839  3.4985
  102OSM   C13S10300   5.452   1.638   9.328 -0.5197 -0.0169  0.8830
  102OSM   H13S10301   5.411   1.739   9.345  0.3049  0.8537 -1.7802
  102OSM   H13T10302   5.358   1.579   9.317 -0.9605  0.6670  0.9407
  102OSM   C14S10303   5.541   1.638   9.204  0.2053  0.7921  0.1151
  102OSM   H14S10304   5.558   1.536   9.163  1.1500  1.1708 -0.4476
  102OSM   H14T10305   5.639   1.680   9.235  1.0217 -1.2317  0.4324
  102OSM   C15S10306   5.485   1.731   9.100 -1.0892  0.3676 -0.2905
  102OSM   H15S10307   5.506   1.829   9.147  1.0578  0.8065 -1.9894
  102OSM   H15T10308   5.375   1.717   9.089 -1.3990  0.3646  2.3541
  102OSM   C16S10309   5.569   1.717   8.973 -0.2749  0.3464  1.2343
  102OSM   H16S10310   5.518   1.634   8.920 -1.5560  1.2360  1.0071
  102OSM   H16T10311   5.670   1.692   9.011 -0.4449 -0.8123  0.9683
  102OSM   C17S10312   5.566   1.829   8.877  0.0478  0.2089  1.2496
  102OSM   H17S10313   5.593   1.922   8.933  0.8868  0.3143  0.6836
  102OSM   H17T10314   5.461   1.838   8.842  0.0897  1.4571  1.4048
  102OSM   C18S10315   5.664   1.818   8.761 -0.1472  0.5979  0.4991
  102OSM   H18S10316   5.666   1.909   8.698 -1.0175  0.5002  0.3177
  102OSM   H18T10317   5.638   1.738   8.688 -1.1862  0.9426  0.4685
  102OSM   H18U10318   5.769   1.808   8.796  0.1374  0.0503 -0.4666
  102OSM    C1F10319   5.413   1.896  10.380 -0.4749 -0.0422 -1.7698
  102OSM     OF10320   5.535   1.918  10.385 -0.2103  0.5124 -0.3879
  102OSM    C2F10321   5.317   1.997  10.315  0.4213 -1.0673 -0.6472
  102OSM    H2F10322   5.289   2.063  10.399  0.8661 -1.8288  0.1225
  102OSM    H2G10323   5.226   1.948  10.274  0.8370 -0.4739 -2.3826
  102OSM    C3F10324   5.398   2.080  10.205  0.0890  0.4991 -0.0326
  102OSM    H3F10325   5.436   2.010  10.128 -4.3404  0.5602 -2.5740
  102OSM    H3G10326   5.487   2.124  10.255  0.0491 -0.7302  1.1806
  102OSM    C4F10327   5.316   2.197  10.148  0.2395 -0.3887  0.0750
  102OSM    H4F10328   5.384   2.248  10.077 -2.0071 -0.2523 -2.0889
  102OSM    H4G10329   5.296   2.271  10.228 -1.1330  0.8639 -1.3698
  102OSM    C5F10330   5.188   2.148  10.085 -0.1711  0.2971  0.1277
  102OSM    H5F10331   5.122   2.235  10.065  1.5508  1.7864  0.7333
  102OSM    H5G10332   5.138   2.068  10.144 -0.3481 -0.7189 -1.3421
  102OSM    C6F10333   5.213   2.075   9.954  0.6708  0.2703 -0.2961
  102OSM    H6F10334   5.126   2.010   9.930 -0.1022  1.6626 -1.4361
  102OSM    H6G10335   5.300   2.006   9.954  0.6176  0.1975  0.1830
  102OSM    C7F10336   5.230   2.170   9.839 -0.1408 -0.1242 -0.3408
  102OSM    H7F10337   5.285   2.255   9.884  1.8810 -2.1305  1.2232
  102OSM    H7G10338   5.133   2.210   9.804 -0.9978 -0.7666  1.2071
  102OSM    C8F10339   5.313   2.107   9.725 -0.1499 -0.0808 -0.5821
  102OSM    H8F10340   5.399   2.056   9.774 -1.5328 -0.5683  1.4540
  102OSM    H8G10341   5.356   2.187   9.661  1.1733 -0.9652 -0.8356
  102OSM    C9F10342   5.234   2.016   9.638 -0.1610 -0.1509 -0.0758
  102OSM    H9F10343   5.188   1.943   9.707  1.1156 -0.7617  0.1631
  102OSM   C10F10344   5.200   2.021   9.512 -0.5860 -0.0863 -0.0320
  102OSM   H10F10345   5.143   1.939   9.466  0.2463 -1.7193  1.7336
  102OSM   C11F10346   5.246   2.126   9.410  0.1362 -0.0922  0.6419
  102OSM   H11F10347   5.303   2.210   9.455  1.2491 -0.3740 -0.2013
  102OSM   H11G10348   5.157   2.173   9.364  1.0880  2.0095  0.8133
  102OSM   C12F10349   5.342   2.064   9.306  0.0480 -1.3035 -0.7484
  102OSM   H12F10350   5.308   1.963   9.275 -0.8325 -1.1833 -0.2085
  102OSM   H12G10351   5.437   2.042   9.359 -0.2918  1.4363  1.2685
  102OSM   C13F10352   5.359   2.162   9.195  0.6791  0.2045  0.5078
  102OSM   H13F10353   5.389   2.263   9.231 -0.3349 -0.3904  3.2017
  102OSM   H13G10354   5.261   2.171   9.142 -0.1520  0.2378  1.9956
  102OSM   C14F10355   5.462   2.106   9.091 -0.1360 -0.0746 -0.3142
  102OSM   H14F10356   5.429   2.009   9.047  3.2035 -0.6357 -1.9026
  102OSM   H14G10357   5.555   2.073   9.141  0.8576  3.9140  0.8252
  102OSM   C15F10358   5.493   2.205   8.974  0.2318 -0.3848  0.4951
  102OSM   H15F10359   5.573   2.165   8.908 -0.5692  1.7936 -1.9922
  102OSM   H15G10360   5.523   2.302   9.020 -2.8920 -0.3884  2.9095
  102OSM   C16F10361   5.368   2.234   8.892  0.3859  0.1560  0.4540
  102OSM   H16F10362   5.312   2.306   8.956  0.3249 -0.9562  1.7091
  102OSM   H16G10363   5.312   2.138   8.885  1.7500 -0.7399  1.3678
  102OSM   C17F10364   5.394   2.298   8.756 -0.0671 -0.1009 -0.1071
  102OSM   H17F10365   5.298   2.312   8.700  0.9049  1.9257 -1.3698
  102OSM   H17G10366   5.463   2.238   8.693 -0.6699  0.4853 -1.3656
  102OSM   C18F10367   5.446   2.438   8.762 -0.1041  0.4033  0.1736
  102OSM   H18F10368   5.531   2.443   8.833 -0.3026  1.9151  0.3452
  102OSM   H18G10369   5.361   2.495   8.806 -1.0999  0.2505 -1.4638
  102OSM   H18H10370   5.476   2.478   8.663  0.7829 -2.8279 -0.9912
  103OSM      N10371   2.070   6.005  10.924 -0.7990 -0.1068 -0.0682
  103OSM    C1510372   1.982   5.919  11.007  0.3495  0.4985  0.1362
  103OSM   H15A10373   2.023   5.819  11.007 -2.9165 -0.9655  0.1280
  103OSM   H15B10374   1.880   5.912  10.971 -0.4718  1.2445  2.1774
  103OSM   H15C10375   1.971   5.970  11.101  0.0190 -0.7464  0.7973
  103OSM    C1410376   2.032   6.153  10.933  0.1913 -0.2480  0.0050
  103OSM   H14A10377   2.024   6.186  11.036 -1.4978  1.1433 -0.5307
  103OSM   H14B10378   1.937   6.164  10.883  1.7435 -0.7810 -3.3196
  103OSM   H14C10379   2.102   6.221  10.886 -1.2457  0.2615 -1.4821
  103OSM    C1310380   2.212   6.003  10.978 -0.1527  0.2468 -0.0419
  103OSM   H13A10381   2.245   5.901  10.985  0.4993  0.2597 -2.1261
  103OSM   H13B10382   2.213   6.058  11.071  1.2375 -2.1713  1.4881
  103OSM   H13C10383   2.278   6.050  10.906  0.6453  2.2873  1.9165
  103OSM    C1210384   2.059   5.969  10.774  0.6464  0.1967  0.4400
  103OSM   H12A10385   1.955   5.963  10.744  0.3833 -0.6683  1.4628
  103OSM   H12B10386   2.096   5.868  10.780 -1.2008 -0.4585  1.7793
  103OSM    C1110387   2.135   6.048  10.672 -0.4781  0.4435 -0.0158
  103OSM   H11A10388   2.129   6.158  10.686  0.5966  0.3397  1.5204
  103OSM   H11B10389   2.108   6.040  10.565  0.2773 -0.0883 -0.1743
  103OSM      P10390   2.340   5.878  10.650  0.2913  0.2156  0.3245
  103OSM    O1310391   2.463   5.869  10.727  0.3571  0.4817 -0.4447
  103OSM    O1410392   2.240   5.768  10.661 -0.6226  0.2547 -0.4322
  103OSM    O1110393   2.376   5.893  10.497  0.2032  0.4553  0.8246
  103OSM    O1210394   2.270   6.010  10.694 -0.0872 -0.4226 -0.2330
  103OSM    C1S10395   2.373   6.020  10.436  0.1975  0.4675  0.3998
  103OSM    H1S10396   2.456   6.087  10.469 -0.4928  1.3296  0.4375
  103OSM    H1T10397   2.279   6.078  10.451 -1.5964 -1.8141 -1.2954
  103OSM     NF10398   2.377   6.143  10.225  0.3555 -0.4390  0.6788
  103OSM    HNF10399   2.287   6.177  10.198  0.9360  0.3310 -0.3408
  103OSM    C2S10400   2.376   6.006  10.277 -0.5152 -0.5689 -0.5057
  103OSM    H2S10401   2.468   5.956  10.239  1.4208  2.6961 -0.4980
  103OSM    C3S10402   2.250   5.922  10.218 -1.0958  0.3058 -0.9068
  103OSM    H3S10403   2.147   5.959  10.236 -1.9696 -1.7696 -1.3562
  103OSM     O310404   2.247   5.792  10.277  0.4302  1.0148 -0.1815
  103OSM    HO310405   2.299   5.809  10.356  0.5176  2.9242 -0.5988
  103OSM    C4S10406   2.267   5.900  10.078  0.2226  0.6283 -0.0606
  103OSM    H4S10407   2.350   5.830  10.061  0.2488  0.8282 -0.7888
  103OSM    C5S10408   2.201   5.960   9.972 -0.6367 -0.8598 -0.1720
  103OSM    H5S10409   2.118   6.029   9.991 -2.8065 -3.1483 -0.8283
  103OSM    C6S10410   2.231   5.914   9.832  0.8021 -0.4105 -0.3522
  103OSM    H6S10411   2.279   5.814   9.836  2.1501  0.2040 -0.6004
  103OSM    H6T10412   2.308   5.987   9.799  0.5756  0.7817  1.6000
  103OSM    C7S10413   2.118   5.918   9.727 -0.4029 -0.1830  0.6808
  103OSM    H7S10414   2.025   5.870   9.763 -0.7434 -0.6461 -0.7514
  103OSM    H7T10415   2.162   5.864   9.641 -3.2465  0.4273 -1.2870
  103OSM    C8S10416   2.081   6.066   9.682  0.0172 -0.5319 -0.5533
  103OSM    H8S10417   2.164   6.122   9.634  0.5964 -0.2019  0.7915
  103OSM    H8T10418   2.049   6.125   9.771 -4.0149 -1.4452 -1.1981
  103OSM    C9S10419   1.977   6.073   9.570  0.2934 -0.1076  0.0916
  103OSM    H9S10420   1.878   6.057   9.618  1.0897  1.6611  2.4822
  103OSM    H9T10421   1.997   5.990   9.498  2.9787  0.6304 -0.1116
  103OSM   C10S10422   1.982   6.204   9.483 -0.2661 -0.3919 -0.3084
  103OSM   H10S10423   2.065   6.202   9.410 -0.2281  1.0823 -0.3351
  103OSM   H10T10424   2.008   6.279   9.560  0.4200 -1.6390  0.7178
  103OSM   C11S10425   1.855   6.236   9.411  0.6110  0.2259 -0.1841
  103OSM   H11S10426   1.835   6.346   9.417 -1.2558 -0.1411  1.3303
  103OSM   H11T10427   1.771   6.191   9.469  1.7763  0.0959  1.4744
  103OSM   C12S10428   1.855   6.194   9.258  0.0105  0.1732 -0.1778
  103OSM   H12S10429   1.749   6.211   9.227 -0.1908 -0.8918 -0.1032
  103OSM   H12T10430   1.869   6.084   9.252 -0.1482  0.1982 -1.2577
  103OSM   C13S10431   1.958   6.267   9.173  0.0310  0.2650 -0.2636
  103OSM   H13S10432   1.956   6.241   9.065  0.7486  1.3248 -0.5457
  103OSM   H13T10433   2.061   6.233   9.197 -0.7514 -3.7829 -1.8760
  103OSM   C14S10434   1.960   6.419   9.178 -0.3864 -0.0967  0.8562
  103OSM   H14S10435   1.981   6.460   9.279 -1.7617  0.2200  1.0430
  103OSM   H14T10436   1.865   6.468   9.149  1.0200  3.7859  2.2212
  103OSM   C15S10437   2.075   6.466   9.094  0.1116  0.0561  0.4979
  103OSM   H15S10438   2.153   6.388   9.105 -1.5995 -1.7478  0.5058
  103OSM   H15T10439   2.115   6.556   9.145 -1.9974  1.0775  0.4496
  103OSM   C16S10440   2.033   6.505   8.947  0.7986 -0.4191 -0.9703
  103OSM   H16S10441   1.990   6.412   8.903 -1.8226  0.8120 -1.1476
  103OSM   H16T10442   2.124   6.537   8.891  0.4567 -0.0126 -1.3000
  103OSM   C17S10443   1.926   6.615   8.930  0.3261 -0.4574 -0.2510
  103OSM   H17S10444   1.913   6.666   9.028 -1.3201 -0.0687 -0.6427
  103OSM   H17T10445   1.829   6.564   8.917  0.4521 -1.1551  1.3310
  103OSM   C18S10446   1.949   6.719   8.822 -0.2177 -0.0481 -0.3840
  103OSM   H18S10447   1.922   6.824   8.846  4.3088  1.3579 -0.6001
  103OSM   H18T10448   1.919   6.671   8.726  0.0965 -2.2645  0.5445
  103OSM   H18U10449   2.058   6.735   8.815 -0.4526  0.9969 -2.2336
  103OSM    C1F10450   2.482   6.223  10.229 -0.8731 -0.1191 -0.0029
  103OSM     OF10451   2.595   6.174  10.253  0.6019 -0.1572  0.2231
  103OSM    C2F10452   2.467   6.371  10.196 -0.3656  0.9586  0.2005
  103OSM    H2F10453   2.493   6.432  10.285  0.6007  0.4571  0.2715
  103OSM    H2G10454   2.365   6.398  10.163  0.5912  2.1661 -1.9549
  103OSM    C3F10455   2.570   6.427  10.087 -0.1954 -0.0507  0.6126
  103OSM    H3F10456   2.673   6.399  10.116  0.2546  0.0893 -0.7925
  103OSM    H3G10457   2.562   6.537  10.098  0.6160  0.1864 -0.9429
  103OSM    C4F10458   2.552   6.387   9.936 -0.3023  0.1566 -0.2840
  103OSM    H4F10459   2.598   6.287   9.918  0.9026  0.2338  1.9231
  103OSM    H4G10460   2.617   6.452   9.876  1.3919  0.6250  1.9178
  103OSM    C5F10461   2.402   6.381   9.884 -0.4068  0.2187  0.0136
  103OSM    H5F10462   2.344   6.474   9.902 -0.3417  0.1094  0.8091
  103OSM    H5G10463   2.344   6.307   9.943 -0.5474 -0.0112 -0.4069
  103OSM    C6F10464   2.399   6.350   9.729  0.1441  0.5396  0.0778
  103OSM    H6F10465   2.294   6.325   9.701 -0.5306  0.9095  2.1132
  103OSM    H6G10466   2.459   6.260   9.703 -0.5478 -0.2541  1.1691
  103OSM    C7F10467   2.447   6.479   9.657  0.0451 -0.5831 -0.5320
  103OSM    H7F10468   2.543   6.515   9.701 -0.7517 -0.8770  1.5760
  103OSM    H7G10469   2.361   6.547   9.675 -0.7037 -1.8966  1.1716
  103OSM    C8F10470   2.452   6.462   9.510 -0.3312  0.0946  1.2955
  103OSM    H8F10471   2.438   6.563   9.464 -1.3123 -1.1773 -1.4066
  103OSM    H8G10472   2.364   6.407   9.472  1.1007 -1.3149 -0.1059
  103OSM    C9F10473   2.573   6.386   9.454  0.9820 -0.0410 -0.9257
  103OSM    H9F10474   2.638   6.354   9.537  0.1324 -0.0958 -0.2681
  103OSM   C10F10475   2.601   6.361   9.329  0.0515 -0.2623  0.4770
  103OSM   H10F10476   2.699   6.312   9.315  0.8951  1.1918  1.0928
  103OSM   C11F10477   2.524   6.406   9.210 -0.2487  0.0115 -0.1902
  103OSM   H11F10478   2.587   6.485   9.163 -0.2239  0.6949  0.9576
  103OSM   H11G10479   2.423   6.444   9.238  0.0704  0.3114  0.5836
  103OSM   C12F10480   2.509   6.295   9.108  0.2445  0.5442 -0.7745
  103OSM   H12F10481   2.608   6.244   9.106  0.2475  0.4823  0.3046
  103OSM   H12G10482   2.497   6.329   9.003  1.2888 -0.4584 -1.2447
  103OSM   C13F10483   2.403   6.191   9.148 -0.2448 -0.1880  0.4067
  103OSM   H13F10484   2.311   6.250   9.165  0.2725  0.5971  0.5343
  103OSM   H13G10485   2.424   6.147   9.248 -1.0547 -4.1404 -0.9748
  103OSM   C14F10486   2.383   6.077   9.041  0.2317 -0.0980  0.1796
  103OSM   H14F10487   2.482   6.030   9.023 -1.0703 -2.0024 -2.8926
  103OSM   H14G10488   2.357   6.124   8.944 -0.0586 -1.3411 -0.3744
  103OSM   C15F10489   2.280   5.977   9.080 -0.1265  0.2888 -0.1412
  103OSM   H15F10490   2.186   6.031   9.104  0.6038  1.7418 -0.3838
  103OSM   H15G10491   2.315   5.939   9.178 -2.5625 -1.5840  0.0752
  103OSM   C16F10492   2.254   5.860   8.985  0.6647 -0.9900  0.2581
  103OSM   H16F10493   2.191   5.793   9.047 -2.8046  1.2360 -0.5525
  103OSM   H16G10494   2.338   5.794   8.955 -0.0870 -2.0511  0.4536
  103OSM   C17F10495   2.158   5.884   8.864 -0.2031  0.2668 -0.2854
  103OSM   H17F10496   2.134   5.789   8.812 -2.9224  1.2626 -0.9829
  103OSM   H17G10497   2.201   5.959   8.795  0.2540  1.1571  0.9157
  103OSM   C18F10498   2.017   5.942   8.900 -0.7964  0.5336 -0.6444
  103OSM   H18F10499   1.944   5.904   8.826  1.5587 -2.4133 -1.6357
  103OSM   H18G10500   2.031   6.052   8.892  1.6035  0.4559  1.1518
  103OSM   H18H10501   1.981   5.916   9.002  3.2101 -0.2571  0.7540
  104OSM      N10502   4.268   1.261  10.721 -1.0115  0.6525  0.9751
  104OSM    C1510503   4.272   1.190  10.859  0.2431 -0.1741  1.0089
  104OSM   H15A10504   4.211   1.237  10.934 -0.3955 -0.3675  0.6146
  104OSM   H15B10505   4.370   1.174  10.902  0.0266  0.8514  1.9433
  104OSM   H15C10506   4.231   1.091  10.844 -1.0025  0.2241  1.6594
  104OSM    C1410507   4.122   1.261  10.678 -0.3453 -0.4240  0.0539
  104OSM   H14A10508   4.050   1.298  10.749  0.3411 -0.0903  0.5902
  104OSM   H14B10509   4.088   1.174  10.625  0.9199 -0.7181 -0.3306
  104OSM   H14C10510   4.114   1.333  10.597  0.0570  0.7350  1.0172
  104OSM    C1310511   4.312   1.401  10.739 -0.0750 -0.5941  0.4784
  104OSM   H13A10512   4.237   1.454  10.796 -1.0221 -1.1128 -0.2629
  104OSM   H13B10513   4.323   1.458  10.648 -0.0834  0.3744  1.0579
  104OSM   H13C10514   4.400   1.417  10.800 -0.6180  2.0983  0.7189
  104OSM    C1210515   4.353   1.183  10.619 -0.1340 -0.2371  0.0433
  104OSM   H12A10516   4.318   1.214  10.522  1.0366  1.7783  0.1986
  104OSM   H12B10517   4.325   1.080  10.631 -0.3626 -0.1515  0.2600
  104OSM    C1110518   4.503   1.192  10.637  0.4391  0.0746  0.6509
  104OSM   H11A10519   4.529   1.300  10.649  0.1005  0.2376 -0.0119
  104OSM   H11B10520   4.540   1.154  10.539 -0.9301  0.7143 -0.1564
  104OSM      P10521   4.557   0.958  10.742  0.3256 -0.1735 -0.0181
  104OSM    O1310522   4.690   0.913  10.779 -1.0031  0.2718  0.2179
  104OSM    O1410523   4.442   0.905  10.819  0.9393 -0.4065  0.4573
  104OSM    O1110524   4.528   0.922  10.597 -0.8863  0.5418  0.7429
  104OSM    O1210525   4.557   1.117  10.744 -0.2148 -0.2624  0.0215
  104OSM    C1S10526   4.442   0.808  10.565 -0.6217 -0.0272 -0.8230
  104OSM    H1S10527   4.336   0.837  10.584 -0.6151 -0.3346 -0.2929
  104OSM    H1T10528   4.462   0.721  10.631 -0.8557  0.3946 -0.1819
  104OSM     NF10529   4.363   0.646  10.416  0.7527 -0.2989 -0.0626
  104OSM    HNF10530   4.385   0.553  10.443 -2.2047 -0.8905  0.6455
  104OSM    C2S10531   4.459   0.755  10.426 -0.6799 -0.2609  1.1070
  104OSM    H2S10532   4.433   0.828  10.347 -1.7194 -3.0165 -1.3093
  104OSM    C3S10533   4.609   0.711  10.403 -0.6933 -0.0313  0.5119
  104OSM    H3S10534   4.614   0.612  10.453  1.3145  0.5643  1.5694
  104OSM     O310535   4.713   0.789  10.460  0.0931  0.0483 -0.0763
  104OSM    HO310536   4.675   0.872  10.492  0.5242 -0.3703  1.6178
  104OSM    C4S10537   4.629   0.681  10.262  0.0861  0.1606  0.1525
  104OSM    H4S10538   4.639   0.572  10.248  2.6963  0.2640  0.7367
  104OSM    C5S10539   4.660   0.771  10.168  0.0759  0.0075 -0.8406
  104OSM    H5S10540   4.671   0.879  10.188  1.0248 -0.5811  2.4281
  104OSM    C6S10541   4.670   0.731  10.023  0.1725 -0.5267  0.5166
  104OSM    H6S10542   4.709   0.627  10.012  1.5704  0.0808 -0.5787
  104OSM    H6T10543   4.739   0.797   9.966 -0.3446 -1.8027 -1.6768
  104OSM    C7S10544   4.527   0.739   9.975 -0.4810 -0.0102 -0.6316
  104OSM    H7S10545   4.478   0.838   9.985 -3.8435 -1.5542 -0.6722
  104OSM    H7T10546   4.465   0.672  10.037 -0.2398  1.0347  0.7837
  104OSM    C8S10547   4.527   0.696   9.828  0.5779 -0.2415  0.0349
  104OSM    H8S10548   4.490   0.591   9.819 -1.0801  0.2778  0.3856
  104OSM    H8T10549   4.629   0.697   9.784  0.4811 -0.3944 -0.1945
  104OSM    C9S10550   4.442   0.800   9.737  0.3660  0.5389  0.6680
  104OSM    H9S10551   4.482   0.904   9.738 -1.3487  1.2555  2.8880
  104OSM    H9T10552   4.343   0.807   9.785 -0.2325  1.0917 -0.6005
  104OSM   C10S10553   4.413   0.751   9.591  0.0186  0.3387 -0.0048
  104OSM   H10S10554   4.328   0.679   9.597  1.7343 -1.7215  1.0853
  104OSM   H10T10555   4.501   0.696   9.553 -0.5285 -0.6723  0.1638
  104OSM   C11S10556   4.379   0.851   9.482 -0.5619 -0.0852  0.4510
  104OSM   H11S10557   4.434   0.946   9.503  1.4054 -1.7227  3.5680
  104OSM   H11T10558   4.269   0.868   9.483 -1.1317 -3.0721 -1.1291
  104OSM   C12S10559   4.394   0.794   9.341 -0.4779  0.1953 -0.7164
  104OSM   H12S10560   4.329   0.706   9.322  0.3027 -1.4637  3.3308
  104OSM   H12T10561   4.499   0.759   9.337 -0.6955 -0.5405 -0.2503
  104OSM   C13S10562   4.375   0.900   9.230 -0.2141  0.0567 -0.0269
  104OSM   H13S10563   4.445   0.986   9.237  0.0145 -0.1399  0.1537
  104OSM   H13T10564   4.272   0.934   9.250 -0.3361 -0.5366  0.3889
  104OSM   C14S10565   4.398   0.839   9.085  0.8816  0.6474 -0.2966
  104OSM   H14S10566   4.505   0.813   9.073  0.3176 -0.7298 -3.0079
  104OSM   H14T10567   4.366   0.915   9.011 -3.4038  0.0541  0.6593
  104OSM   C15S10568   4.313   0.709   9.063 -0.0517 -0.2353 -0.5150
  104OSM   H15S10569   4.210   0.739   9.092  0.2494 -0.4020  0.7831
  104OSM   H15T10570   4.352   0.632   9.133 -0.1947 -0.6052 -0.8416
  104OSM   C16S10571   4.320   0.650   8.928  0.0361 -0.3537  0.0372
  104OSM   H16S10572   4.417   0.597   8.921  0.2883 -0.0408  1.0810
  104OSM   H16T10573   4.314   0.733   8.854  1.0013  0.6565  1.0548
  104OSM   C17S10574   4.212   0.543   8.898 -0.0328 -0.3471 -0.2120
  104OSM   H17S10575   4.111   0.587   8.905  0.7859  1.4364  1.1072
  104OSM   H17T10576   4.211   0.473   8.984 -2.3387 -2.0037 -1.4736
  104OSM   C18S10577   4.228   0.486   8.759  0.0620 -0.0774  0.2158
  104OSM   H18S10578   4.326   0.434   8.754  0.0813 -0.3719  2.5599
  104OSM   H18T10579   4.227   0.564   8.681  2.1483 -0.8406 -0.6242
  104OSM   H18U10580   4.154   0.407   8.736  2.6170 -2.6545  0.3112
  104OSM    C1F10581   4.231   0.658  10.391  0.9874 -0.5125  0.1696
  104OSM     OF10582   4.171   0.766  10.406 -0.0202 -0.4080 -0.0679
  104OSM    C2F10583   4.164   0.528  10.356 -0.1425 -0.5018  0.4406
  104OSM    H2F10584   4.142   0.483  10.455  1.5422 -1.6414  0.3363
  104OSM    H2G10585   4.238   0.460  10.308  1.5424 -0.4025  2.7912
  104OSM    C3F10586   4.039   0.542  10.265  0.1207  0.5253 -0.0603
  104OSM    H3F10587   3.961   0.582  10.334  0.9331  0.1304  1.1251
  104OSM    H3G10588   4.011   0.445  10.219  1.3745 -0.1966  0.6410
  104OSM    C4F10589   4.071   0.631  10.141  0.7675  0.2004  0.3651
  104OSM    H4F10590   4.178   0.621  10.111  0.8213 -0.9965  0.8811
  104OSM    H4G10591   4.053   0.736  10.170  3.8512  1.4539 -1.7149
  104OSM    C5F10592   3.994   0.593  10.014 -0.0148  0.0218 -0.2757
  104OSM    H5F10593   3.885   0.585  10.037  0.5673  1.1734  3.5242
  104OSM    H5G10594   4.027   0.489   9.993 -1.4117 -0.0282 -2.6370
  104OSM    C6F10595   4.025   0.683   9.894  0.6040  0.2032 -0.6364
  104OSM    H6F10596   4.133   0.687   9.871  1.0639 -0.9344  1.1426
  104OSM    H6G10597   4.004   0.789   9.921  0.1079  0.1446 -0.7716
  104OSM    C7F10598   3.950   0.649   9.760  0.4436  0.0544 -0.3306
  104OSM    H7F10599   3.963   0.740   9.697  1.7741 -0.8982 -1.4830
  104OSM    H7G10600   3.843   0.631   9.785  0.2865  2.0791  0.7205
  104OSM    C8F10601   3.999   0.529   9.685  1.1372  0.2649  1.0693
  104OSM    H8F10602   3.984   0.432   9.738 -1.7356  0.4785  0.8423
  104OSM    H8G10603   4.107   0.551   9.677  0.9117  0.8059 -1.2113
  104OSM    C9F10604   3.923   0.516   9.555  0.1200  0.2204  0.3429
  104OSM    H9F10605   3.841   0.443   9.562 -0.7487  1.2360  1.0719
  104OSM   C10F10606   3.938   0.588   9.443  0.3169  0.6266 -0.1698
  104OSM   H10F10607   3.876   0.562   9.356 -0.4543  2.2104 -0.1277
  104OSM   C11F10608   4.030   0.703   9.424 -0.1450  0.2373  0.5518
  104OSM   H11F10609   4.113   0.683   9.354 -0.0336  0.0913  0.7255
  104OSM   H11G10610   4.091   0.716   9.516  3.4583  1.1369 -1.7868
  104OSM   C12F10611   3.964   0.839   9.378 -0.0530 -0.5772  0.3371
  104OSM   H12F10612   4.049   0.908   9.364  0.4743 -0.9398  1.5794
  104OSM   H12G10613   3.882   0.869   9.448  2.5100  0.7576  2.9951
  104OSM   C13F10614   3.894   0.826   9.242 -0.4263  0.2748 -0.3098
  104OSM   H13F10615   3.797   0.773   9.258  1.1622 -3.2542 -1.4721
  104OSM   H13G10616   3.947   0.748   9.184 -1.4556 -0.8077  0.1583
  104OSM   C14F10617   3.877   0.957   9.168  0.0510  0.4438 -0.0216
  104OSM   H14F10618   3.979   0.991   9.141  0.3957  0.7993  1.6239
  104OSM   H14G10619   3.828   1.025   9.241 -1.0014 -1.8338  1.5427
  104OSM   C15F10620   3.785   0.952   9.039 -0.1844  0.6470  0.3880
  104OSM   H15F10621   3.698   0.892   9.072  0.6472 -0.8570 -0.0983
  104OSM   H15G10622   3.842   0.894   8.964  1.5429  0.0648  2.0547
  104OSM   C16F10623   3.757   1.096   8.987  0.3204  0.2672 -0.0371
  104OSM   H16F10624   3.857   1.139   8.965  0.3310 -0.2953 -1.2116
  104OSM   H16G10625   3.710   1.164   9.061 -0.0020  2.1513 -1.8853
  104OSM   C17F10626   3.680   1.086   8.860 -0.5194  0.1203  0.0417
  104OSM   H17F10627   3.598   1.012   8.875  1.1192 -1.8660 -0.3187
  104OSM   H17G10628   3.750   1.044   8.785  0.7530 -1.1529  1.8606
  104OSM   C18F10629   3.613   1.219   8.819  0.2758 -1.1240  0.5630
  104OSM   H18F10630   3.679   1.308   8.814 -0.4302 -0.4905  1.8884
  104OSM   H18G10631   3.538   1.240   8.899 -0.4130  0.0634 -0.3638
  104OSM   H18H10632   3.558   1.204   8.724 -1.5219 -0.1691  1.4033
  105OSM      N10633   1.490   5.378  10.841 -0.6793  0.4130  0.0480
  105OSM    C1510634   1.503   5.270  10.737 -0.4439  0.0782  0.2344
  105OSM   H15A10635   1.533   5.175  10.779  2.0496  1.1058  0.9643
  105OSM   H15B10636   1.586   5.286  10.670 -2.2186  0.4456 -1.9888
  105OSM   H15C10637   1.416   5.245  10.679  0.5770  2.0952 -2.4154
  105OSM    C1410638   1.377   5.344  10.938 -0.4418  0.1179  0.4630
  105OSM   H14A10639   1.388   5.402  11.028 -0.3170  1.0618 -0.1419
  105OSM   H14B10640   1.385   5.245  10.980 -0.2323  0.5015  1.3600
  105OSM   H14C10641   1.282   5.361  10.890  0.6844  0.6616 -1.7225
  105OSM    C1310642   1.613   5.394  10.920  0.1431  0.6318  0.6986
  105OSM   H13A10643   1.634   5.295  10.960 -0.8088  0.3257  0.4770
  105OSM   H13B10644   1.602   5.467  10.999  1.8874  0.6164  1.0038
  105OSM   H13C10645   1.696   5.434  10.864  0.4283 -0.1925  0.5132
  105OSM    C1210646   1.460   5.512  10.772  0.2065  0.0916  0.2585
  105OSM   H12A10647   1.363   5.498  10.728 -0.0040  2.4179 -0.1340
  105OSM   H12B10648   1.530   5.549  10.698  1.6799  0.9001  1.9930
  105OSM    C1110649   1.426   5.635  10.863 -0.4057 -0.4217 -0.1942
  105OSM   H11A10650   1.340   5.603  10.926 -0.6627  2.0950  0.8930
  105OSM   H11B10651   1.396   5.720  10.798 -0.2884  0.6202  1.0475
  105OSM      P10652   1.657   5.731  10.870 -0.0725 -0.6394  0.5676
  105OSM    O1310653   1.673   5.881  10.876 -0.0253  0.1341 -0.6351
  105OSM    O1410654   1.765   5.656  10.924  0.2264 -0.0818 -0.1327
  105OSM    O1110655   1.650   5.694  10.717  0.3840 -0.1287 -0.4406
  105OSM    O1210656   1.530   5.682  10.937 -0.2685  0.1337 -0.6468
  105OSM    C1S10657   1.762   5.620  10.662 -0.4263 -0.0153 -0.4004
  105OSM    H1S10658   1.756   5.512  10.689  0.8290 -0.3584 -1.4446
  105OSM    H1T10659   1.862   5.653  10.697 -1.5101  2.5955  0.4472
  105OSM     NF10660   1.850   5.527  10.458 -0.0114  0.5100 -0.0531
  105OSM    HNF10661   1.942   5.559  10.439  0.3031  1.5787  2.7881
  105OSM    C2S10662   1.760   5.630  10.506 -0.0139 -0.7684  0.0962
  105OSM    H2S10663   1.656   5.603  10.477 -0.2704  0.1163  0.1501
  105OSM    C3S10664   1.793   5.772  10.455  0.1576 -0.0540  0.0862
  105OSM    H3S10665   1.894   5.799  10.492  1.0123 -0.7999 -1.5928
  105OSM     O310666   1.698   5.862  10.502  0.3717 -0.2202 -0.0799
  105OSM    HO310667   1.660   5.820  10.580  1.8509 -1.3014  0.1109
  105OSM    C4S10668   1.778   5.781  10.308  0.0371 -0.0115  0.7853
  105OSM    H4S10669   1.681   5.751  10.265  0.1959  0.3178  0.1812
  105OSM    C5S10670   1.875   5.813  10.220  0.6367  0.1609  0.5051
  105OSM    H5S10671   1.974   5.847  10.253  0.1247  0.6397  1.5715
  105OSM    C6S10672   1.864   5.817  10.071 -0.2268 -0.8318  0.2265
  105OSM    H6S10673   1.959   5.786  10.021 -0.0651  0.4952 -0.3205
  105OSM    H6T10674   1.859   5.927  10.054 -0.1905 -0.6713  1.1619
  105OSM    C7S10675   1.733   5.766  10.004 -0.1313 -0.7756 -0.3421
  105OSM    H7S10676   1.653   5.835  10.037 -1.1841 -0.8967 -2.5045
  105OSM    H7T10677   1.712   5.662  10.037 -0.2102 -1.2241 -1.7634
  105OSM    C8S10678   1.746   5.774   9.848  0.1113 -0.5377 -0.5030
  105OSM    H8S10679   1.832   5.713   9.812  0.9667 -0.2303  0.9473
  105OSM    H8T10680   1.779   5.878   9.827  0.1706 -0.0978  1.5238
  105OSM    C9S10681   1.625   5.736   9.768 -0.3143 -0.1274  0.6880
  105OSM    H9S10682   1.533   5.793   9.796 -1.2500 -0.9809 -0.5226
  105OSM    H9T10683   1.596   5.629   9.775 -0.8467 -0.0681 -0.4269
  105OSM   C10S10684   1.648   5.761   9.618  0.0707 -0.5957  0.2365
  105OSM   H10S10685   1.685   5.865   9.602 -1.9143 -0.2122 -2.5439
  105OSM   H10T10686   1.548   5.767   9.571  1.2854 -0.6914 -2.5358
  105OSM   C11S10687   1.742   5.659   9.557  0.1651 -0.1131  0.2572
  105OSM   H11S10688   1.707   5.554   9.564  2.1706 -0.9254 -0.9842
  105OSM   H11T10689   1.841   5.681   9.604  1.1655 -0.3360 -1.6456
  105OSM   C12S10690   1.774   5.677   9.407 -0.2336 -0.3775  0.0415
  105OSM   H12S10691   1.785   5.785   9.386 -1.2385 -0.5324 -1.4555
  105OSM   H12T10692   1.685   5.644   9.348 -0.7982  1.2486 -0.0745
  105OSM   C13S10693   1.896   5.604   9.365 -0.1143  0.5510 -0.5474
  105OSM   H13S10694   1.870   5.497   9.382 -1.2057  0.6921 -1.2109
  105OSM   H13T10695   1.978   5.635   9.433  0.8919 -0.9555 -1.0298
  105OSM   C14S10696   1.950   5.616   9.224 -0.8290 -0.0517 -0.5078
  105OSM   H14S10697   2.032   5.541   9.214 -1.6881 -1.0951  0.0682
  105OSM   H14T10698   1.997   5.716   9.210 -0.0589 -0.1744  0.9719
  105OSM   C15S10699   1.850   5.595   9.118 -0.3246 -0.1922  0.1590
  105OSM   H15S10700   1.802   5.695   9.108  0.9659  0.4424  0.0202
  105OSM   H15T10701   1.774   5.516   9.137 -1.0553  0.7541  1.3073
  105OSM   C16S10702   1.907   5.569   8.975  0.2368  0.4010 -0.2893
  105OSM   H16S10703   1.972   5.655   8.945 -0.2044  0.5108 -0.9357
  105OSM   H16T10704   1.820   5.561   8.907 -1.1151 -0.1488  1.4313
  105OSM   C17S10705   1.985   5.440   8.954 -0.7448 -0.0071  0.2812
  105OSM   H17S10706   1.922   5.358   8.995 -0.4648  0.9949  2.9180
  105OSM   H17T10707   2.074   5.435   9.020 -0.2021  1.0327 -0.3494
  105OSM   C18S10708   2.016   5.417   8.803 -0.9931  0.0210  0.3086
  105OSM   H18S10709   1.922   5.401   8.746  1.2410 -1.9286 -3.2230
  105OSM   H18T10710   2.081   5.328   8.794  3.3087  2.6917  1.6645
  105OSM   H18U10711   2.077   5.497   8.755 -2.3553  0.1635 -1.2833
  105OSM    C1F10712   1.830   5.396  10.465 -0.3085  1.0867 -0.1091
  105OSM     OF10713   1.719   5.353  10.505  0.2635 -0.5928 -0.4225
  105OSM    C2F10714   1.950   5.301  10.448  0.3620 -0.0773  0.1383
  105OSM    H2F10715   2.013   5.322  10.537  1.5918 -0.0085 -0.7260
  105OSM    H2G10716   1.994   5.335  10.352  1.0926  2.8574  1.4102
  105OSM    C3F10717   1.911   5.146  10.447 -0.0351 -0.2121  0.6337
  105OSM    H3F10718   1.827   5.132  10.375  0.1829 -2.5122  0.7361
  105OSM    H3G10719   1.879   5.115  10.548 -0.7388  0.4092  0.6073
  105OSM    C4F10720   2.036   5.062  10.421  0.4828  0.5898 -0.6766
  105OSM    H4F10721   2.109   5.092  10.499  0.6146  1.1230 -1.0050
  105OSM    H4G10722   2.078   5.095  10.324 -0.6582 -1.8337 -2.0993
  105OSM    C5F10723   2.006   4.913  10.418  0.2492  0.1185 -1.0466
  105OSM    H5F10724   1.996   4.881  10.524 -1.6886  3.7188  0.0175
  105OSM    H5G10725   2.096   4.868  10.372  1.3677  1.7691 -0.5320
  105OSM    C6F10726   1.884   4.870  10.343  0.1258 -0.2933  0.8053
  105OSM    H6F10727   1.796   4.907  10.400  0.0533 -0.6077  0.9029
  105OSM    H6G10728   1.870   4.760  10.334  1.3021 -0.2996 -1.5342
  105OSM    C7F10729   1.861   4.915  10.195  0.6148  0.1692  0.1855
  105OSM    H7F10730   1.882   5.024  10.186  0.2753  0.2798  0.6944
  105OSM    H7G10731   1.756   4.894  10.165  0.5100  1.1074 -0.1639
  105OSM    C8F10732   1.950   4.848  10.085 -0.0821  0.3540 -0.6206
  105OSM    H8F10733   2.055   4.852  10.120  0.7768  0.3548 -3.0382
  105OSM    H8G10734   1.957   4.904   9.989  1.6902 -1.3578 -1.5526
  105OSM    C9F10735   1.911   4.704  10.062  0.3372  0.0093 -0.9716
  105OSM    H9F10736   1.897   4.645  10.154 -2.3471  1.8389 -0.0776
  105OSM   C10F10737   1.893   4.647   9.939  0.7354  1.2356 -0.7880
  105OSM   H10F10738   1.867   4.540   9.942  0.3442  1.1719 -3.8635
  105OSM   C11F10739   1.907   4.704   9.804  0.6035  0.1671 -0.0030
  105OSM   H11F10740   1.961   4.801   9.802 -2.7340  2.2029  0.5524
  105OSM   H11G10741   1.801   4.729   9.781  1.0899  1.5911 -0.8116
  105OSM   C12F10742   1.953   4.614   9.692  0.8045  0.1550 -0.0190
  105OSM   H12F10743   1.906   4.514   9.697  0.3082  0.4292  1.1782
  105OSM   H12G10744   2.058   4.584   9.711  0.6097 -0.7944 -0.4035
  105OSM   C13F10745   1.947   4.673   9.546 -0.0034 -0.4168  0.0104
  105OSM   H13F10746   1.984   4.776   9.527  2.3170 -1.5811 -2.3756
  105OSM   H13G10747   1.842   4.678   9.510  1.2654  1.0257 -4.0346
  105OSM   C14F10748   2.006   4.572   9.442  0.2067 -0.1357 -0.3984
  105OSM   H14F10749   1.962   4.472   9.462  2.5340 -1.0625  0.4872
  105OSM   H14G10750   2.110   4.561   9.482 -0.4489 -0.9056  1.1943
  105OSM   C15F10751   1.981   4.603   9.293 -0.0264 -0.0957 -0.3570
  105OSM   H15F10752   2.036   4.697   9.271  0.1279  0.1506  0.9795
  105OSM   H15G10753   1.873   4.620   9.277 -0.5526 -2.3330  0.4649
  105OSM   C16F10754   2.041   4.479   9.230  0.3824 -0.3904  0.3064
  105OSM   H16F10755   1.989   4.389   9.270  1.2989 -0.5188  1.2403
  105OSM   H16G10756   2.147   4.462   9.259  0.2217  0.6683  1.6283
  105OSM   C17F10757   2.021   4.483   9.080  0.3587 -0.1105 -0.7079
  105OSM   H17F10758   2.109   4.523   9.026  1.5537 -0.7946  0.6797
  105OSM   H17G10759   1.928   4.541   9.062  0.0237 -0.4471 -0.0864
  105OSM   C18F10760   2.000   4.339   9.024  0.6184 -0.2539 -0.0629
  105OSM   H18F10761   2.095   4.287   9.047  1.1697  1.0134  0.6649
  105OSM   H18G10762   1.985   4.346   8.914  0.2814  1.1722  0.0461
  105OSM   H18H10763   1.906   4.314   9.077 -0.2161  2.6316  0.0229
  106OSM      N10764   6.310   1.094  10.465 -0.4540  0.0372 -0.2720
  106OSM    C1510765   6.287   1.170  10.341 -0.0060 -0.3336  0.1346
  106OSM   H15A10766   6.374   1.212  10.293 -1.1617  2.2421  0.1437
  106OSM   H15B10767   6.215   1.246  10.367  1.1825  0.8313  0.1236
  106OSM   H15C10768   6.236   1.105  10.272 -0.3373 -0.1137  0.1700
  106OSM    C1410769   6.180   1.023  10.509  0.1024 -0.0020 -0.6562
  106OSM   H14A10770   6.113   1.088  10.563  0.0481 -1.8382  1.6694
  106OSM   H14B10771   6.192   0.948  10.585 -2.7986  1.7010  1.7080
  106OSM   H14C10772   6.140   0.979  10.419  2.1771 -1.5169 -0.9083
  106OSM    C1310773   6.420   0.997  10.421 -0.1342  0.1756 -0.7107
  106OSM   H13A10774   6.511   1.048  10.394  1.8179 -1.8391  1.6379
  106OSM   H13B10775   6.386   0.935  10.339  1.5363 -0.6460 -0.8189
  106OSM   H13C10776   6.447   0.933  10.504 -1.3923  0.6082  0.0684
  106OSM    C1210777   6.361   1.174  10.585  0.3025 -0.3903  0.6497
  106OSM   H12A10778   6.396   1.110  10.664 -0.5407 -0.3616  1.0531
  106OSM   H12B10779   6.278   1.227  10.628  0.2108  0.3650 -0.4120
  106OSM    C1110780   6.471   1.268  10.562  0.1518  0.4434 -0.1615
  106OSM   H11A10781   6.426   1.355  10.509 -0.3656  1.1105  1.3011
  106OSM   H11B10782   6.555   1.226  10.503  0.4105  1.5196 -0.5911
  106OSM      P10783   6.660   1.295  10.753  0.1062  0.0664  0.0432
  106OSM    O1310784   6.697   1.413  10.836 -0.2375  0.8932 -0.2857
  106OSM    O1410785   6.658   1.168  10.823  0.9265  0.3244 -0.1983
  106OSM    O1110786   6.759   1.291  10.626  0.4950  0.2280  0.0513
  106OSM    O1210787   6.510   1.313  10.690 -0.3926 -0.8031 -0.5995
  106OSM    C1S10788   6.815   1.186  10.559  0.5582  0.2698 -0.2161
  106OSM    H1S10789   6.741   1.118  10.514  0.9102  1.1329 -2.2396
  106OSM    H1T10790   6.873   1.123  10.629 -0.0604 -0.7390 -0.5926
  106OSM     NF10791   6.964   1.137  10.374 -0.1871 -0.5043 -0.0411
  106OSM    HNF10792   7.062   1.118  10.375  0.7451  3.2167 -1.3778
  106OSM    C2S10793   6.912   1.248  10.459  0.0662  0.3581  0.0936
  106OSM    H2S10794   6.860   1.323  10.396  0.1552 -0.4272 -0.9395
  106OSM    C3S10795   7.032   1.323  10.525  0.5621  0.2726  0.1042
  106OSM    H3S10796   7.092   1.251  10.584 -1.6623 -1.1447  0.7562
  106OSM     O310797   6.978   1.414  10.624 -0.7215  0.7788 -0.0890
  106OSM    HO310798   6.887   1.388  10.636 -0.0803 -1.8936 -0.3217
  106OSM    C4S10799   7.120   1.390  10.423 -0.2505  0.2941 -1.4334
  106OSM    H4S10800   7.204   1.321  10.407 -0.3626  0.1586 -1.4430
  106OSM    C5S10801   7.099   1.505  10.357  0.0085  0.2057 -0.7273
  106OSM    H5S10802   7.002   1.554  10.369 -0.1953 -0.6329  1.4220
  106OSM    C6S10803   7.187   1.556  10.250 -0.4636  0.0756 -0.5784
  106OSM    H6S10804   7.264   1.623  10.293 -0.0493 -0.1195 -1.0027
  106OSM    H6T10805   7.124   1.616  10.181 -0.4452  0.3607 -0.3492
  106OSM    C7S10806   7.274   1.450  10.175  0.2443 -0.4375  0.2983
  106OSM    H7S10807   7.198   1.386  10.126 -2.1160 -0.0927  3.1952
  106OSM    H7T10808   7.331   1.398  10.255 -1.1857  0.9018  2.2889
  106OSM    C8S10809   7.358   1.523  10.070 -0.1421 -0.5970  0.6365
  106OSM    H8S10810   7.439   1.451  10.046 -0.1614 -0.1317 -0.9532
  106OSM    H8T10811   7.402   1.620  10.103  1.4336 -1.3269  0.7887
  106OSM    C9S10812   7.281   1.532   9.935 -0.1941  0.3941  0.7590
  106OSM    H9S10813   7.191   1.596   9.945 -1.4244 -1.3740  1.5871
  106OSM    H9T10814   7.258   1.424   9.919 -0.4854  0.5780 -0.0881
  106OSM   C10S10815   7.375   1.594   9.832 -0.6712 -0.0009  0.1128
  106OSM   H10S10816   7.450   1.518   9.802  1.1379  1.8266 -0.2434
  106OSM   H10T10817   7.413   1.688   9.879 -0.8703  1.5801 -2.6642
  106OSM   C11S10818   7.312   1.643   9.707 -0.0170 -0.0975 -0.2822
  106OSM   H11S10819   7.260   1.742   9.712  1.1034  0.4924  0.0033
  106OSM   H11T10820   7.222   1.583   9.683 -1.7304  0.5374  3.6675
  106OSM   C12S10821   7.416   1.650   9.597 -0.6293  0.3589 -0.3214
  106OSM   H12S10822   7.443   1.551   9.553  3.0205  0.9860  0.1651
  106OSM   H12T10823   7.511   1.673   9.650  0.0977 -1.5996 -0.6828
  106OSM   C13S10824   7.386   1.757   9.498  0.6328 -0.1001 -0.5601
  106OSM   H13S10825   7.409   1.864   9.519  0.6738 -0.0193 -1.0094
  106OSM   H13T10826   7.276   1.752   9.485  0.2407  1.2198  1.6887
  106OSM   C14S10827   7.444   1.742   9.357 -0.2898  0.1996 -0.1018
  106OSM   H14S10828   7.427   1.640   9.318  1.2268  0.7392 -2.3501
  106OSM   H14T10829   7.553   1.764   9.357 -0.3945  0.8917  1.6746
  106OSM   C15S10830   7.388   1.841   9.250  0.2416  0.3815 -0.1899
  106OSM   H15S10831   7.400   1.947   9.280 -0.6380 -0.0440  1.8403
  106OSM   H15T10832   7.280   1.817   9.241  0.0009  1.6866 -1.1802
  106OSM   C16S10833   7.457   1.836   9.110 -0.1218  0.1932 -0.3601
  106OSM   H16S10834   7.557   1.794   9.136 -0.1559 -0.2242 -0.8874
  106OSM   H16T10835   7.482   1.940   9.082 -0.6681  0.4726  0.1634
  106OSM   C17S10836   7.376   1.760   9.008 -0.3349  0.6106 -0.3327
  106OSM   H17S10837   7.283   1.818   8.989  0.2939  1.1851 -1.7469
  106OSM   H17T10838   7.344   1.674   9.070 -2.1443  0.2401 -1.6852
  106OSM   C18S10839   7.439   1.720   8.873  0.4195 -0.7211  0.0292
  106OSM   H18S10840   7.359   1.703   8.798  0.2988 -0.8868  0.1971
  106OSM   H18T10841   7.512   1.636   8.875  0.5116 -0.6711 -0.8253
  106OSM   H18U10842   7.502   1.800   8.827  1.8919 -1.5255  0.5644
  106OSM    C1F10843   6.887   1.085  10.282 -0.0655 -0.2236 -0.3234
  106OSM     OF10844   6.764   1.095  10.270  0.0134 -0.6469 -0.1881
  106OSM    C2F10845   6.950   0.993  10.190 -0.3046 -0.5730  0.0032
  106OSM    H2F10846   6.869   0.923  10.163 -1.0400  0.5013 -0.6376
  106OSM    H2G10847   7.038   0.942  10.235  0.5252  1.1523  0.4600
  106OSM    C3F10848   6.977   1.074  10.068  0.9555 -0.2579 -0.2374
  106OSM    H3F10849   7.043   1.163  10.081 -0.5776  0.9709 -0.6063
  106OSM    H3G10850   6.879   1.111  10.030 -0.1780 -0.9760  1.8668
  106OSM    C4F10851   7.053   0.992   9.959 -0.5539  0.3047 -0.0419
  106OSM    H4F10852   6.997   0.925   9.890  0.0952 -1.2292  0.8658
  106OSM    H4G10853   7.134   0.939  10.013 -0.3247  0.5512 -0.1401
  106OSM    C5F10854   7.138   1.082   9.866  0.4086  1.0261 -0.8131
  106OSM    H5F10855   7.189   1.009   9.799  0.6143 -1.0550  1.4700
  106OSM    H5G10856   7.213   1.143   9.921 -0.3842  0.0144  1.4983
  106OSM    C6F10857   7.048   1.179   9.791  0.1171  0.1504  0.0994
  106OSM    H6F10858   6.992   1.250   9.855  1.1450 -0.0201  1.2194
  106OSM    H6G10859   6.977   1.111   9.740 -1.1486 -0.0391  2.0066
  106OSM    C7F10860   7.119   1.259   9.673 -0.2070  0.0044  0.0138
  106OSM    H7F10861   7.201   1.199   9.628 -1.3611 -1.6878  0.0922
  106OSM    H7G10862   7.163   1.348   9.724 -0.3413  0.9131 -1.3956
  106OSM    C8F10863   7.019   1.306   9.563 -0.4358  0.1110 -0.3334
  106OSM    H8F10864   6.948   1.369   9.620 -0.8437  0.3656 -1.1074
  106OSM    H8G10865   6.965   1.217   9.526  0.0279  0.3536 -1.6457
  106OSM    C9F10866   7.089   1.386   9.455 -0.1522  0.7514  0.3770
  106OSM    H9F10867   7.159   1.466   9.484 -0.7538  2.1299 -1.7374
  106OSM   C10F10868   7.091   1.352   9.322  0.1292 -0.5012 -0.3114
  106OSM   H10F10869   7.151   1.415   9.255 -0.4603 -0.9393 -1.2681
  106OSM   C11F10870   7.019   1.236   9.252 -0.2396 -0.3215 -0.6007
  106OSM   H11F10871   6.980   1.160   9.323  0.6831  1.3432  1.8580
  106OSM   H11G10872   7.094   1.185   9.188 -0.4351 -0.4378 -0.7356
  106OSM   C12F10873   6.911   1.276   9.150  0.5488  0.2625  0.5008
  106OSM   H12F10874   6.861   1.185   9.111  1.2794  0.1081 -0.1014
  106OSM   H12G10875   6.949   1.335   9.064  0.6819  1.2184  1.2037
  106OSM   C13F10876   6.793   1.365   9.196  0.5387 -0.4305 -0.1855
  106OSM   H13F10877   6.842   1.459   9.230  1.5827 -0.9869 -0.1156
  106OSM   H13G10878   6.741   1.318   9.283  1.0703 -2.9802 -1.1452
  106OSM   C14F10879   6.677   1.389   9.090  0.0453  0.8906 -0.4147
  106OSM   H14F10880   6.636   1.491   9.111 -2.5983 -0.3889  1.3253
  106OSM   H14G10881   6.590   1.330   9.128  0.8996  1.5174  2.8306
  106OSM   C15F10882   6.710   1.365   8.945  0.4898  0.0229  0.2965
  106OSM   H15F10883   6.720   1.258   8.919  0.0865  0.1826 -0.5441
  106OSM   H15G10884   6.806   1.412   8.916  1.8105 -1.4785  1.9829
  106OSM   C16F10885   6.601   1.410   8.848 -0.2813  0.1053 -0.2475
  106OSM   H16F10886   6.651   1.408   8.748 -1.1105 -0.9727 -0.6628
  106OSM   H16G10887   6.575   1.517   8.860 -0.6232 -0.2237  2.4771
  106OSM   C17F10888   6.471   1.320   8.846  0.1960  0.3482  0.0566
  106OSM   H17F10889   6.413   1.320   8.941  1.1046 -0.1253  0.6230
  106OSM   H17G10890   6.506   1.215   8.838  0.3444  0.2527  1.5261
  106OSM   C18F10891   6.388   1.355   8.726  0.1713  1.2045  0.3440
  106OSM   H18F10892   6.342   1.456   8.732 -3.6428 -0.4230  1.6509
  106OSM   H18G10893   6.306   1.284   8.704  0.2332  1.5057 -0.9257
  106OSM   H18H10894   6.456   1.350   8.638 -0.8223  0.1088 -0.3836
  107OSM      N10895   2.945   5.765  10.861 -0.0360 -0.4032  0.6808
  107OSM    C1510896   3.093   5.765  10.880 -0.3398  0.2177 -0.7697
  107OSM   H15A10897   3.144   5.829  10.809 -1.2488  2.5450  0.5555
  107OSM   H15B10898   3.133   5.665  10.879  0.0284  0.3577 -2.1849
  107OSM   H15C10899   3.122   5.809  10.974  1.4583 -0.6631 -0.8726
  107OSM    C1410900   2.911   5.688  10.736  0.1623 -0.5923  0.1602
  107OSM   H14A10901   2.913   5.583  10.759 -2.0271 -0.5604  0.7106
  107OSM   H14B10902   2.980   5.718  10.658 -1.9999  0.9949 -1.2654
  107OSM   H14C10903   2.809   5.710  10.708  0.8452  1.1630 -1.1912
  107OSM    C1310904   2.896   5.670  10.974 -0.0591 -1.3045 -0.0541
  107OSM   H13A10905   2.878   5.726  11.065  1.1092 -0.9529 -0.0220
  107OSM   H13B10906   2.966   5.590  10.996  0.1764 -1.2552 -0.6187
  107OSM   H13C10907   2.800   5.627  10.950 -0.0455 -0.2951 -2.0497
  107OSM    C1210908   2.863   5.894  10.878 -0.3563  0.0803  0.2630
  107OSM   H12A10909   2.760   5.871  10.900 -0.5759  0.2507 -0.5448
  107OSM   H12B10910   2.850   5.946  10.784 -3.8879 -1.6103 -0.3568
  107OSM    C1110911   2.928   5.996  10.990  0.0291 -0.7657  0.4882
  107OSM   H11A10912   2.909   5.938  11.083 -0.8015  1.9976  2.1530
  107OSM   H11B10913   2.862   6.085  10.993  2.7401  1.5007 -1.9350
  107OSM      P10914   3.103   6.146  10.863 -0.2744  0.3675 -0.2455
  107OSM    O1310915   3.029   6.268  10.887 -0.0564 -0.2024  0.6964
  107OSM    O1410916   3.248   6.147  10.836 -0.2551 -0.4476 -0.3948
  107OSM    O1110917   3.042   6.091  10.729 -0.2391  0.6934  0.8138
  107OSM    O1210918   3.069   6.035  10.978  0.1236 -0.6952 -0.6689
  107OSM    C1S10919   2.990   6.171  10.619  0.0561 -0.1538 -0.0810
  107OSM    H1S10920   3.003   6.280  10.634  0.3598 -0.0930 -0.7694
  107OSM    H1T10921   2.882   6.150  10.599 -0.4857  2.2109  0.0845
  107OSM     NF10922   3.028   6.240  10.387 -0.3334  0.6974  0.3672
  107OSM    HNF10923   2.972   6.202  10.313 -1.8055  0.9743  1.3015
  107OSM    C2S10924   3.065   6.140  10.487 -0.5161  0.0798  0.1265
  107OSM    H2S10925   3.174   6.157  10.490 -0.1695 -1.4305 -2.0192
  107OSM    C3S10926   3.043   5.989  10.443 -0.6248 -0.5212 -1.3457
  107OSM    H3S10927   2.936   5.972  10.416 -0.7841  1.1184 -1.8076
  107OSM     O310928   3.073   5.899  10.549  1.1734  0.1224 -0.2052
  107OSM    HO310929   3.066   5.960  10.623 -0.8798 -0.8630  0.4956
  107OSM    C4S10930   3.135   5.954  10.326  0.0214 -0.3034  1.2139
  107OSM    H4S10931   3.097   5.984  10.227  1.6582 -0.3198  0.5442
  107OSM    C5S10932   3.262   5.908  10.330  0.0592  0.0195 -0.3494
  107OSM    H5S10933   3.317   5.892  10.425 -1.1257  0.9606  0.5263
  107OSM    C6S10934   3.342   5.881  10.206 -0.0791  0.8078 -0.4534
  107OSM    H6S10935   3.443   5.925  10.222 -0.5636  1.3763  1.2270
  107OSM    H6T10936   3.300   5.935  10.119  3.0296  1.8560 -1.4455
  107OSM    C7S10937   3.365   5.732  10.183 -0.0079 -0.1968  0.4808
  107OSM    H7S10938   3.417   5.714  10.087 -1.5238 -1.8030 -0.0914
  107OSM    H7T10939   3.272   5.672  10.174 -0.9877  1.3331  0.0108
  107OSM    C8S10940   3.436   5.657  10.302 -0.4047  0.2266  0.0730
  107OSM    H8S10941   3.368   5.655  10.391 -0.7496 -0.9084 -0.2077
  107OSM    H8T10942   3.514   5.728  10.335 -0.3429  0.7252 -1.0869
  107OSM    C9S10943   3.481   5.514  10.264  0.4379  0.4220 -0.4741
  107OSM    H9S10944   3.557   5.479  10.337  1.1926 -0.8165 -1.8066
  107OSM    H9T10945   3.538   5.514  10.169 -0.2810  0.4852 -0.9121
  107OSM   C10S10946   3.365   5.407  10.249  0.2220 -0.1228 -0.4751
  107OSM   H10S10947   3.272   5.466  10.264  0.1659  0.1895 -1.9357
  107OSM   H10T10948   3.370   5.326  10.325 -0.8203  0.7422  0.5502
  107OSM   C11S10949   3.346   5.345  10.112  0.7641 -0.0717  0.7817
  107OSM   H11S10950   3.275   5.260  10.127  0.0241  0.7082  1.7715
  107OSM   H11T10951   3.440   5.308  10.064  0.5447  0.2006  0.1269
  107OSM   C12S10952   3.290   5.433   9.999 -0.0112  1.2261  0.1137
  107OSM   H12S10953   3.355   5.523  10.001 -0.1327  1.3106  0.3436
  107OSM   H12T10954   3.191   5.470  10.033  0.1163  0.9087  0.8503
  107OSM   C13S10955   3.274   5.362   9.864  0.0427  0.2860  0.0516
  107OSM   H13S10956   3.196   5.285   9.881  0.1204  0.5537  1.8370
  107OSM   H13T10957   3.365   5.311   9.826 -0.3332  0.2080 -0.7620
  107OSM   C14S10958   3.217   5.459   9.764 -0.0238  0.0537  0.0802
  107OSM   H14S10959   3.140   5.530   9.801  2.1112  3.0976 -0.8908
  107OSM   H14T10960   3.178   5.404   9.675 -2.0102 -1.1017  1.5745
  107OSM   C15S10961   3.333   5.541   9.699 -0.4255 -0.1321  0.2612
  107OSM   H15S10962   3.418   5.475   9.670 -0.6857 -1.8464  3.0209
  107OSM   H15T10963   3.373   5.605   9.779  0.3273  0.4491 -0.5629
  107OSM   C16S10964   3.271   5.624   9.596 -0.1941 -0.8125 -0.1964
  107OSM   H16S10965   3.188   5.681   9.644 -0.5769  0.2471 -2.0177
  107OSM   H16T10966   3.230   5.552   9.521  0.4129 -1.7064  0.3170
  107OSM   C17S10967   3.355   5.721   9.505  0.2720 -0.9287  0.4289
  107OSM   H17S10968   3.284   5.766   9.432  2.0179  1.3216 -0.0284
  107OSM   H17T10969   3.427   5.668   9.438 -0.1393 -0.4010 -0.4437
  107OSM   C18S10970   3.420   5.832   9.581 -0.0390 -0.2684  0.4195
  107OSM   H18S10971   3.465   5.795   9.676 -0.7670 -1.4017  0.3396
  107OSM   H18T10972   3.343   5.910   9.604 -0.8706 -0.7087 -0.7854
  107OSM   H18U10973   3.497   5.879   9.516 -0.5225  1.0507  0.7611
  107OSM    C1F10974   3.043   6.372  10.393 -0.0819  0.0310 -0.3592
  107OSM     OF10975   3.118   6.421  10.478 -0.3390 -0.3783 -0.1386
  107OSM    C2F10976   2.966   6.463  10.301  0.1640  0.1826 -0.4504
  107OSM    H2F10977   2.935   6.551  10.360 -0.4263 -0.6521  0.5171
  107OSM    H2G10978   2.873   6.408  10.273  1.1626 -2.4089  0.9731
  107OSM    C3F10979   3.057   6.503  10.186  0.1732 -0.4368 -0.1255
  107OSM    H3F10980   3.078   6.417  10.119  0.6578  1.6225 -2.7901
  107OSM    H3G10981   3.156   6.542  10.218  0.4252 -1.3356  0.2135
  107OSM    C4F10982   2.997   6.615  10.096  0.2526 -0.2790 -0.1047
  107OSM    H4F10983   3.012   6.715  10.143  2.3360 -0.3420 -0.5402
  107OSM    H4G10984   2.888   6.595  10.090  0.1851  0.0870 -0.1668
  107OSM    C5F10985   3.044   6.619   9.949  0.3726  0.4145  0.3833
  107OSM    H5F10986   3.152   6.597   9.955 -0.0650 -1.6783  1.4516
  107OSM    H5G10987   3.033   6.719   9.903 -2.8198 -0.5335 -1.2358
  107OSM    C6F10988   2.971   6.513   9.862  0.2655  0.0857 -0.1443
  107OSM    H6F10989   2.864   6.535   9.883  0.3679  0.8689 -0.4194
  107OSM    H6G10990   2.998   6.407   9.880 -1.2512 -0.1673  0.7845
  107OSM    C7F10991   3.001   6.534   9.716 -0.4289 -0.2069 -0.1296
  107OSM    H7F10992   3.110   6.515   9.704 -0.4610  0.3672 -1.5598
  107OSM    H7G10993   2.989   6.640   9.684 -0.1773 -0.0313  0.3578
  107OSM    C8F10994   2.916   6.446   9.626  0.1848  0.3294 -1.4419
  107OSM    H8F10995   2.817   6.498   9.625  0.8508  1.9012  1.7446
  107OSM    H8G10996   2.899   6.346   9.670  0.0629  0.9697  0.0552
  107OSM    C9F10997   2.963   6.437   9.485  0.5236 -0.1683  0.5362
  107OSM    H9F10998   2.995   6.337   9.454  1.2979  0.8706 -2.3168
  107OSM   C10F10999   2.972   6.535   9.393 -0.2676  0.0547  0.2694
  107OSM   H10F11000   3.005   6.513   9.291  1.0496 -0.9171  0.8803
  107OSM   C11F11001   2.932   6.679   9.410  0.5906 -0.6636  0.8106
  107OSM   H11F11002   3.011   6.756   9.424  0.0483  0.3027 -1.1109
  107OSM   H11G11003   2.868   6.692   9.500 -0.6577 -0.6404 -0.0508
  107OSM   C12F11004   2.836   6.730   9.299 -0.2258  0.1438 -0.0761
  107OSM   H12F11005   2.800   6.831   9.330 -0.5841  1.2265 -3.5860
  107OSM   H12G11006   2.740   6.675   9.293  0.1382 -0.3525 -2.1410
  107OSM   C13F11007   2.903   6.743   9.158  0.3180  0.5658 -0.7546
  107OSM   H13F11008   2.904   6.639   9.120  0.1185 -0.3377  1.5516
  107OSM   H13G11009   3.002   6.791   9.176  0.3358  0.3068 -0.1284
  107OSM   C14F11010   2.825   6.825   9.051  0.1864 -0.1757  0.2816
  107OSM   H14F11011   2.882   6.832   8.956 -2.3777  1.8242 -1.2400
  107OSM   H14G11012   2.807   6.924   9.099  2.6299  0.3774  0.2076
  107OSM   C15F11013   2.694   6.748   9.022  0.4678  0.4507  0.0046
  107OSM   H15F11014   2.638   6.739   9.117  1.0526 -1.2271  0.2207
  107OSM   H15G11015   2.725   6.650   8.980 -0.3108 -0.3042  1.1373
  107OSM   C16F11016   2.594   6.822   8.925  0.3139 -0.5537  0.3832
  107OSM   H16F11017   2.658   6.857   8.841 -2.0974 -1.6758 -2.0816
  107OSM   H16G11018   2.550   6.912   8.974 -0.5997 -1.4426  1.2454
  107OSM   C17F11019   2.483   6.730   8.875  0.6985  0.4393 -0.0126
  107OSM   H17F11020   2.411   6.726   8.960  1.1976  0.4461  0.4096
  107OSM   H17G11021   2.537   6.634   8.860 -1.9080 -1.6055  2.4194
  107OSM   C18F11022   2.403   6.791   8.758  0.2301 -0.0846 -0.0031
  107OSM   H18F11023   2.315   6.737   8.718 -1.5898  3.3123 -0.9431
  107OSM   H18G11024   2.460   6.809   8.664 -2.0877  3.3553 -0.9446
  107OSM   H18H11025   2.379   6.894   8.790  1.1804  0.2460 -0.3269
  108OSM      N11026   0.051   5.866  10.695 -0.4401 -0.1598 -0.0085
  108OSM    C1511027   0.050   5.714  10.696 -0.1782  0.3479  0.3687
  108OSM   H15A11028   0.123   5.673  10.764  0.8863  4.0230  1.6761
  108OSM   H15B11029   0.068   5.666  10.601 -0.9146 -1.4380  1.0902
  108OSM   H15C11030  -0.045   5.678  10.732 -0.5109  0.4564 -0.3865
  108OSM    C1411031   0.201   5.895  10.671  0.2241 -0.1054  0.1840
  108OSM   H14A11032   0.227   5.866  10.571 -2.8774  0.3795 -0.8838
  108OSM   H14B11033   0.266   5.841  10.738 -0.9605 -2.5891 -0.5383
  108OSM   H14C11034   0.216   6.002  10.682  2.0649 -0.2243 -0.7174
  108OSM    C1311035  -0.032   5.928  10.587  0.1792  0.1675 -0.3571
  108OSM   H13A11036  -0.014   5.882  10.491 -0.1650 -0.3477 -0.1817
  108OSM   H13B11037  -0.009   6.033  10.579  3.3869 -0.1664  2.4298
  108OSM   H13C11038  -0.135   5.920  10.618 -0.0640  0.0848 -1.1640
  108OSM    C1211039   0.023   5.919  10.831 -0.7360  0.1859  0.3834
  108OSM   H12A11040   0.102   5.880  10.893  0.3797 -0.0897 -1.1474
  108OSM   H12B11041  -0.073   5.882  10.864 -0.7393  0.3454  0.5535
  108OSM    C1111042   0.034   6.072  10.850  0.2462 -0.1966 -1.2138
  108OSM   H11A11043   0.131   6.108  10.810 -0.2500  1.8681 -0.6820
  108OSM   H11B11044   0.035   6.090  10.960 -0.9801 -0.9729 -1.0680
  108OSM      P11045  -0.210   6.141  10.798  0.0060  0.3838 -0.3209
  108OSM    O1311046  -0.254   6.031  10.883  0.0451  0.7144 -0.1389
  108OSM    O1411047  -0.260   6.273  10.829 -0.8762 -0.5489  0.4066
  108OSM    O1111048  -0.262   6.105  10.653  0.0445 -0.0513 -0.2953
  108OSM    O1211049  -0.055   6.149  10.771  0.2994 -1.0695  0.2354
  108OSM    C1S11050  -0.251   6.206  10.542  0.4453  0.8077 -0.0924
  108OSM    H1S11051  -0.146   6.232  10.516  0.5501 -0.5800 -1.1534
  108OSM    H1T11052  -0.317   6.294  10.559  1.2470  1.8242 -2.0123
  108OSM     NF11053  -0.270   6.213  10.295 -0.4866  0.2459 -0.6243
  108OSM    HNF11054  -0.335   6.287  10.279  0.9654  2.1737  1.7870
  108OSM    C2S11055  -0.302   6.127  10.411  0.2610 -0.8334 -0.0465
  108OSM    H2S11056  -0.248   6.032  10.393 -0.4472 -1.1150 -0.7449
  108OSM    C3S11057  -0.455   6.084  10.429  0.4625 -0.6625 -0.5633
  108OSM    H3S11058  -0.517   6.174  10.452  0.7160 -0.6908  0.2734
  108OSM     O311059  -0.487   5.995  10.539 -0.7772  0.1929 -0.6070
  108OSM    HO311060  -0.416   6.007  10.603  0.1443 -0.9432 -1.3567
  108OSM    C4S11061  -0.499   6.005  10.305  0.4333 -0.1613  0.0066
  108OSM    H4S11062  -0.451   5.907  10.291 -0.3114 -0.5752  0.3301
  108OSM    C5S11063  -0.596   6.032  10.217 -0.3375 -0.1307 -0.4219
  108OSM    H5S11064  -0.657   6.121  10.233  0.4900  0.9373 -2.7682
  108OSM    C6S11065  -0.655   5.952  10.100 -0.1437 -0.1891 -0.1087
  108OSM    H6S11066  -0.625   5.845  10.090 -1.1729 -0.6057  1.0958
  108OSM    H6T11067  -0.610   6.004  10.012  0.4055 -0.8882 -0.2559
  108OSM    C7S11068  -0.806   5.958  10.108 -0.2014  0.1715 -0.6329
  108OSM    H7S11069  -0.836   6.065  10.114  3.6394  1.3107  0.4503
  108OSM    H7T11070  -0.847   5.910  10.200  0.2877  1.0270  0.0442
  108OSM    C8S11071  -0.875   5.888   9.985 -0.1026 -0.0854 -0.8257
  108OSM    H8S11072  -0.905   5.787  10.019 -0.6959  0.1068 -0.7607
  108OSM    H8T11073  -0.798   5.885   9.905 -0.5146  2.1994 -1.3979
  108OSM    C9S11074  -1.004   5.952   9.936  1.0227 -0.4777 -0.2800
  108OSM    H9S11075  -0.972   6.054   9.906 -0.3212 -0.1779 -0.7768
  108OSM    H9T11076  -1.077   5.965  10.019  0.6493 -0.7782 -0.5595
  108OSM   C10S11077  -1.068   5.886   9.806  0.2550 -0.2301 -0.8914
  108OSM   H10S11078  -1.134   5.803   9.841  1.2832 -0.7436 -0.1215
  108OSM   H10T11079  -0.989   5.854   9.735  1.8066 -2.0289  1.5130
  108OSM   C11S11080  -1.156   5.992   9.738  1.3385 -0.6124 -0.9700
  108OSM   H11S11081  -1.105   6.090   9.726 -0.3781  0.5135  0.4176
  108OSM   H11T11082  -1.231   6.007   9.818  2.4958 -0.7333  0.1698
  108OSM   C12S11083  -1.214   5.954   9.600 -0.4270 -0.0661 -0.0290
  108OSM   H12S11084  -1.248   6.043   9.542  0.0598  0.9596  1.2180
  108OSM   H12T11085  -1.299   5.885   9.622 -0.1796 -0.3925 -0.0907
  108OSM   C13S11086  -1.110   5.884   9.507 -0.0091 -0.0554 -0.0293
  108OSM   H13S11087  -1.095   5.788   9.560  2.7666  0.4382  0.2427
  108OSM   H13T11088  -1.010   5.933   9.504  0.8328 -1.6761  0.4834
  108OSM   C14S11089  -1.163   5.869   9.367  0.3455 -0.9962  0.0022
  108OSM   H14S11090  -1.150   5.966   9.314 -0.2385  1.1366  3.4807
  108OSM   H14T11091  -1.268   5.839   9.386  0.0966  0.6997  1.5380
  108OSM   C15S11092  -1.092   5.772   9.280 -0.1177 -0.1038 -0.0010
  108OSM   H15S11093  -1.060   5.692   9.350 -0.8363  0.2774  0.7924
  108OSM   H15T11094  -0.997   5.816   9.246  1.2999 -2.3201  0.8769
  108OSM   C16S11095  -1.173   5.705   9.170  0.3549  1.0120  0.4664
  108OSM   H16S11096  -1.241   5.633   9.220  0.0906  0.7114 -0.3044
  108OSM   H16T11097  -1.107   5.646   9.104 -0.8263 -1.3358  1.2671
  108OSM   C17S11098  -1.254   5.809   9.091 -0.0371  0.8036 -0.2881
  108OSM   H17S11099  -1.188   5.895   9.066 -0.2060  1.6786  2.0652
  108OSM   H17T11100  -1.331   5.854   9.157 -1.1890  1.4595 -1.9970
  108OSM   C18S11101  -1.314   5.750   8.963  0.3288  0.2304 -0.0786
  108OSM   H18S11102  -1.381   5.665   8.988  0.9383 -0.2083  0.0916
  108OSM   H18T11103  -1.234   5.707   8.900  0.1157 -1.5242  0.7952
  108OSM   H18U11104  -1.372   5.823   8.903 -1.2474  2.0126  3.3161
  108OSM    C1F11105  -0.146   6.241  10.249 -0.4183  0.2786  0.3129
  108OSM     OF11106  -0.047   6.175  10.295  0.0992 -0.2573  0.3588
  108OSM    C2F11107  -0.137   6.350  10.153  0.8653  0.2924  0.2689
  108OSM    H2F11108  -0.056   6.423  10.174 -0.3748  1.9403 -0.4374
  108OSM    H2G11109  -0.234   6.404  10.149  0.2199 -0.7181  1.4669
  108OSM    C3F11110  -0.107   6.301  10.004 -1.1107 -0.0229 -0.9052
  108OSM    H3F11111  -0.191   6.237   9.970 -2.4566  1.0618  0.2115
  108OSM    H3G11112  -0.015   6.238  10.008  0.0047  1.5516 -0.9536
  108OSM    C4F11113  -0.091   6.414   9.896 -0.6823  0.8632 -0.2247
  108OSM    H4F11114  -0.017   6.489   9.932  0.7971 -1.2003  1.2586
  108OSM    H4G11115  -0.196   6.450   9.892 -1.5082 -1.3296  0.4121
  108OSM    C5F11116  -0.064   6.375   9.745  0.2013  0.0321  0.2140
  108OSM    H5F11117  -0.139   6.310   9.695  0.1447  0.6856 -0.5614
  108OSM    H5G11118   0.035   6.324   9.748  1.0491  1.6549  1.5458
  108OSM    C6F11119  -0.038   6.506   9.652  0.2790 -0.3141  1.0933
  108OSM    H6F11120   0.065   6.547   9.660  0.0921  1.4833 -3.0493
  108OSM    H6G11121  -0.110   6.576   9.700 -0.0998 -1.2198  1.8675
  108OSM    C7F11122  -0.064   6.480   9.502  0.1572  0.0497  0.3653
  108OSM    H7F11123  -0.173   6.459   9.493  0.3312 -1.9083  2.2001
  108OSM    H7G11124  -0.017   6.383   9.474  3.8978  1.7704  0.1046
  108OSM    C8F11125  -0.021   6.595   9.409  0.4577  0.6122  0.7425
  108OSM    H8F11126  -0.063   6.694   9.437 -0.2842  0.1357  1.3664
  108OSM    H8G11127  -0.071   6.555   9.318  3.4881 -0.3608 -0.6108
  108OSM    C9F11128   0.126   6.596   9.392  0.5566  0.1610  0.1955
  108OSM    H9F11129   0.180   6.657   9.466  1.6023  0.0142 -0.4239
  108OSM   C10F11130   0.197   6.533   9.298  0.7405  0.1602  0.2708
  108OSM   H10F11131   0.305   6.555   9.293  1.0898 -1.3420  0.8085
  108OSM   C11F11132   0.142   6.435   9.197  0.7239 -0.1969  0.7945
  108OSM   H11F11133   0.032   6.422   9.194  0.4045  1.0691 -4.5261
  108OSM   H11G11134   0.191   6.337   9.214 -0.2831 -0.5355  1.8833
  108OSM   C12F11135   0.168   6.503   9.061 -0.4919 -0.3485 -0.6074
  108OSM   H12F11136   0.269   6.529   9.022 -0.5228 -1.7288 -1.7096
  108OSM   H12G11137   0.116   6.601   9.052  1.9290  1.4491  2.5996
  108OSM   C13F11138   0.106   6.413   8.951  0.2960  0.0241 -0.6576
  108OSM   H13F11139   0.025   6.356   9.002  1.6982 -0.8455  0.6991
  108OSM   H13G11140   0.175   6.336   8.907  1.3886 -0.7747  2.2139
  108OSM   C14F11141   0.055   6.489   8.835  0.2129 -0.8680 -0.4916
  108OSM   H14F11142   0.144   6.546   8.799 -0.2041 -0.6182 -1.1310
  108OSM   H14G11143  -0.020   6.564   8.867  0.6285 -0.4553 -0.4565
  108OSM   C15F11144   0.001   6.410   8.720  0.3670  0.2385  0.4379
  108OSM   H15F11145  -0.060   6.321   8.745  0.2222  0.2483  0.1202
  108OSM   H15G11146   0.099   6.376   8.678  0.3056 -0.1634  0.6215
  108OSM   C16F11147  -0.075   6.491   8.621 -0.4125 -0.0516  0.3831
  108OSM   H16F11148  -0.068   6.438   8.523 -0.3700 -0.5873  0.6725
  108OSM   H16G11149  -0.018   6.585   8.602  0.5547 -0.6482  0.2450
  108OSM   C17F11150  -0.212   6.536   8.667  0.3093 -0.7337 -0.0793
  108OSM   H17F11151  -0.202   6.613   8.747 -0.0997  0.9346 -1.5752
  108OSM   H17G11152  -0.283   6.458   8.701  0.6560 -0.6292  0.9497
  108OSM   C18F11153  -0.275   6.607   8.545  0.8940  0.6196  0.5677
  108OSM   H18F11154  -0.205   6.687   8.511 -0.3195  0.7363 -1.8882
  108OSM   H18G11155  -0.373   6.653   8.567 -0.0999 -1.7842  1.4826
  108OSM   H18H11156  -0.299   6.535   8.464 -4.8654  1.7205  0.8850
  109OSM      N11157   4.806   4.748  11.246  0.1956  0.5729 -0.7318
  109OSM    C1511158   4.741   4.716  11.373 -0.0737 -0.2026 -0.5372
  109OSM   H15A11159   4.808   4.698  11.456 -1.1048 -3.6798 -0.2968
  109OSM   H15B11160   4.688   4.622  11.376  0.5165 -0.5779 -1.6014
  109OSM   H15C11161   4.672   4.793  11.405 -2.4990 -1.4668 -2.4085
  109OSM    C1411162   4.882   4.872  11.271  0.1394 -0.1012  0.0743
  109OSM   H14A11163   4.944   4.886  11.184  0.0116  0.7703  0.1218
  109OSM   H14B11164   4.937   4.864  11.364 -0.0378 -1.6750  0.0829
  109OSM   H14C11165   4.815   4.957  11.274  0.9292  0.5297  0.0248
  109OSM    C1311166   4.899   4.638  11.212  0.2965  0.0608 -0.2788
  109OSM   H13A11167   4.965   4.613  11.293 -0.6644  4.1262  2.0218
  109OSM   H13B11168   4.955   4.680  11.129  1.2852  2.0769  1.3242
  109OSM   H13C11169   4.861   4.542  11.180 -0.2423 -0.5946  2.1351
  109OSM    C1211170   4.702   4.752  11.140  0.3246 -0.1195 -0.0690
  109OSM   H12A11171   4.625   4.822  11.169  1.4235  0.2185  2.3025
  109OSM   H12B11172   4.659   4.653  11.139  1.7839 -0.8080  1.4155
  109OSM    C1111173   4.750   4.776  10.997 -0.4854  0.0684  0.2144
  109OSM   H11A11174   4.662   4.753  10.933 -1.6774 -0.2531  1.8731
  109OSM   H11B11175   4.829   4.703  10.971 -2.6441 -2.2922 -0.1908
  109OSM      P11176   4.937   4.948  10.917 -0.5461  0.2625 -0.3597
  109OSM    O1311177   4.958   5.092  10.933 -0.2439 -0.1819  0.5528
  109OSM    O1411178   5.042   4.864  10.986  0.5246 -0.2042  0.2780
  109OSM    O1111179   4.924   4.897  10.769  0.3049  0.2774 -0.2516
  109OSM    O1211180   4.791   4.912  10.975 -0.3966  0.4383  0.3490
  109OSM    C1S11181   4.830   4.964  10.684 -0.4045 -0.2148 -0.7599
  109OSM    H1S11182   4.856   5.070  10.665  0.7047  0.3707  3.0253
  109OSM    H1T11183   4.726   4.967  10.724 -0.3400  1.0393 -0.6373
  109OSM     NF11184   4.770   4.987  10.449  0.2104  0.0671  0.2480
  109OSM    HNF11185   4.672   4.996  10.437 -0.0237 -1.5467  0.7253
  109OSM    C2S11186   4.819   4.887  10.545 -0.1621 -0.0175  0.3303
  109OSM    H2S11187   4.921   4.854  10.517  0.1079  0.9045  0.1857
  109OSM    C3S11188   4.737   4.761  10.567 -0.0935 -0.4918  1.1239
  109OSM    H3S11189   4.637   4.776  10.614  0.6097 -1.8626  3.1500
  109OSM     O311190   4.792   4.678  10.671  0.0037  0.9398 -0.6704
  109OSM    HO311191   4.855   4.741  10.708 -0.3228  1.4644 -1.0010
  109OSM    C4S11192   4.730   4.690  10.428 -0.4325  0.2819 -0.1302
  109OSM    H4S11193   4.827   4.653  10.393  0.0713  1.5612 -0.1336
  109OSM    C5S11194   4.622   4.680  10.355  0.2274  0.3087  0.0896
  109OSM    H5S11195   4.531   4.731  10.390 -0.8229 -1.5650  0.2444
  109OSM    C6S11196   4.611   4.623  10.214 -0.5651  0.4217  0.4927
  109OSM    H6S11197   4.523   4.555  10.215 -0.0007 -0.3125  0.7274
  109OSM    H6T11198   4.703   4.575  10.176 -0.7007  1.6016 -1.5049
  109OSM    C7S11199   4.582   4.743  10.118  0.0853  0.0896  0.0345
  109OSM    H7S11200   4.675   4.803  10.114 -0.9044  1.6723 -0.2476
  109OSM    H7T11201   4.503   4.813  10.154 -0.0383 -0.6861  1.3450
  109OSM    C8S11202   4.529   4.687   9.987  0.8413  0.1314  0.3177
  109OSM    H8S11203   4.433   4.638  10.010  0.3277  0.8115 -0.3196
  109OSM    H8T11204   4.596   4.611   9.942  0.1016 -1.8392  2.3687
  109OSM    C9S11205   4.502   4.792   9.876 -0.4780  0.2471 -0.2736
  109OSM    H9S11206   4.599   4.836   9.845 -0.4980  0.4500 -0.0501
  109OSM    H9T11207   4.424   4.860   9.918 -0.1336 -1.4290  3.5518
  109OSM   C10S11208   4.447   4.727   9.752  0.2429  0.0660  0.6341
  109OSM   H10S11209   4.369   4.651   9.774 -1.0611  0.4064 -2.3771
  109OSM   H10T11210   4.524   4.666   9.700  0.3734  1.3421 -0.7225
  109OSM   C11S11211   4.398   4.833   9.654  0.3593 -0.1357  0.5960
  109OSM   H11S11212   4.477   4.911   9.654  0.3030 -0.0536 -0.8914
  109OSM   H11T11213   4.315   4.896   9.692  0.0335 -0.5455  0.5681
  109OSM   C12S11214   4.378   4.791   9.512  0.4897  0.2079 -0.5730
  109OSM   H12S11215   4.282   4.736   9.496  0.5868  0.5145 -2.3858
  109OSM   H12T11216   4.459   4.725   9.474  0.0713 -1.4585  1.2465
  109OSM   C13S11217   4.377   4.912   9.413  0.0863 -0.3016 -0.0898
  109OSM   H13S11218   4.477   4.956   9.395 -0.9512  1.8903 -0.8716
  109OSM   H13T11219   4.314   4.992   9.456 -1.2200  0.8676 -3.7721
  109OSM   C14S11220   4.323   4.880   9.274 -0.0082  0.4938  0.2530
  109OSM   H14S11221   4.218   4.848   9.291  0.8791 -1.5405  2.5001
  109OSM   H14T11222   4.389   4.797   9.242 -0.2205  0.5642 -0.3862
  109OSM   C15S11223   4.303   4.998   9.177  0.5507  0.2984  0.7744
  109OSM   H15S11224   4.396   5.029   9.124 -0.5612  0.8243 -0.9494
  109OSM   H15T11225   4.262   5.082   9.236 -1.3358  1.3966 -1.8848
  109OSM   C16S11226   4.200   4.970   9.063 -0.8577  0.3176  0.0815
  109OSM   H16S11227   4.112   4.916   9.104  0.8795 -3.6473 -0.8637
  109OSM   H16T11228   4.239   4.879   9.011  0.6757  1.1936 -0.3580
  109OSM   C17S11229   4.177   5.087   8.966 -0.0723  1.2041 -0.5433
  109OSM   H17S11230   4.129   5.040   8.878 -0.7497  0.6138  0.1274
  109OSM   H17T11231   4.267   5.138   8.925 -0.5467  2.7816  0.3018
  109OSM   C18S11232   4.083   5.204   9.012 -0.4666  0.7795 -0.1991
  109OSM   H18S11233   4.124   5.239   9.109 -1.9652  0.3274  0.6358
  109OSM   H18T11234   3.978   5.172   9.031 -0.5901 -0.2198 -2.3390
  109OSM   H18U11235   4.081   5.293   8.945 -0.7649 -0.0270 -1.2850
  109OSM    C1F11236   4.847   5.078  10.394 -0.4550  0.0565  0.0934
  109OSM     OF11237   4.963   5.081  10.432  0.0430 -0.5646  0.1684
  109OSM    C2F11238   4.783   5.182  10.298 -0.4969 -0.5900  0.8057
  109OSM    H2F11239   4.820   5.280  10.335  1.4729 -0.2736 -1.7119
  109OSM    H2G11240   4.674   5.181  10.320 -1.4446 -0.2992 -3.1660
  109OSM    C3F11241   4.824   5.152  10.148  0.1437 -0.9136 -0.1855
  109OSM    H3F11242   4.789   5.052  10.113 -1.4185 -1.1273  1.8063
  109OSM    H3G11243   4.935   5.160  10.146  0.0261  2.2693 -2.5816
  109OSM    C4F11244   4.758   5.260  10.060 -0.4050 -0.7167  0.1080
  109OSM    H4F11245   4.774   5.353  10.117 -2.1167 -0.2039 -0.1949
  109OSM    H4G11246   4.648   5.242  10.050 -0.5049  0.3647 -1.0321
  109OSM    C5F11247   4.804   5.277   9.913  0.3581  0.3722 -0.0594
  109OSM    H5F11248   4.909   5.314   9.918  0.0477  1.1903  3.8807
  109OSM    H5G11249   4.727   5.352   9.884 -1.3564 -1.2632  0.1150
  109OSM    C6F11250   4.777   5.149   9.825 -0.8633  0.0493  0.0999
  109OSM    H6F11251   4.674   5.149   9.783 -0.7293  2.3096 -0.3812
  109OSM    H6G11252   4.792   5.056   9.884 -0.2054  1.3432  2.0634
  109OSM    C7F11253   4.872   5.160   9.705  0.0411  0.4996 -0.5216
  109OSM    H7F11254   4.854   5.073   9.639 -0.6558  1.3032 -1.4226
  109OSM    H7G11255   4.974   5.148   9.748 -0.3880 -3.1881 -0.2170
  109OSM    C8F11256   4.862   5.283   9.614  1.0710  0.6611  0.3556
  109OSM    H8F11257   4.889   5.377   9.667  0.9165  0.0749  1.4899
  109OSM    H8G11258   4.758   5.283   9.577  0.8844 -0.1227  0.8743
  109OSM    C9F11259   4.937   5.267   9.487 -0.2588  0.4784 -0.3883
  109OSM    H9F11260   5.047   5.278   9.494 -0.1044  0.8338 -2.6154
  109OSM   C10F11261   4.890   5.232   9.365  0.0942 -1.1154 -0.9287
  109OSM   H10F11262   4.952   5.233   9.274 -0.0837 -0.8902 -1.0500
  109OSM   C11F11263   4.752   5.189   9.332 -0.4594 -0.5317  0.2543
  109OSM   H11F11264   4.675   5.269   9.327  1.9846  1.9112 -3.3481
  109OSM   H11G11265   4.717   5.109   9.401 -0.7316 -0.1463  0.5623
  109OSM   C12F11266   4.735   5.131   9.185 -0.1908 -0.1603 -0.2316
  109OSM   H12F11267   4.629   5.105   9.164 -0.0542 -0.4158 -0.6091
  109OSM   H12G11268   4.785   5.032   9.189 -2.7520 -1.4813  2.1695
  109OSM   C13F11269   4.781   5.216   9.062  0.6256  0.1462 -0.2732
  109OSM   H13F11270   4.768   5.162   8.965 -1.5634  0.6743 -0.3419
  109OSM   H13G11271   4.890   5.237   9.065  0.8365 -1.0432  1.1610
  109OSM   C14F11272   4.709   5.350   9.053  0.1709  0.6212 -0.6312
  109OSM   H14F11273   4.755   5.428   9.116  1.5453  0.0528 -0.9034
  109OSM   H14G11274   4.607   5.325   9.090  0.8620 -1.9186 -0.2307
  109OSM   C15F11275   4.701   5.407   8.911 -0.1541 -0.3108 -0.3476
  109OSM   H15F11276   4.674   5.323   8.844 -0.9345  1.2004 -2.0044
  109OSM   H15G11277   4.803   5.437   8.878 -0.4616 -0.6113 -1.6159
  109OSM   C16F11278   4.609   5.526   8.884 -0.4726  0.1773 -0.3544
  109OSM   H16F11279   4.644   5.624   8.923 -1.0377  0.6061 -0.9099
  109OSM   H16G11280   4.514   5.492   8.929  0.1950 -0.9385  0.2642
  109OSM   C17F11281   4.599   5.550   8.735  0.5498  0.7461 -0.6007
  109OSM   H17F11282   4.521   5.629   8.723  0.9073  1.5420  1.9278
  109OSM   H17G11283   4.582   5.465   8.665 -1.0308  1.3796 -1.0417
  109OSM   C18F11284   4.729   5.614   8.678 -0.1606 -0.3045  0.1153
  109OSM   H18F11285   4.810   5.538   8.673 -0.1761 -0.3112 -0.0686
  109OSM   H18G11286   4.752   5.702   8.742  0.1870  0.6629 -1.2868
  109OSM   H18H11287   4.727   5.662   8.578 -1.3941  0.0903  0.3030
  110OSM      N11288   1.891   1.620  11.383  0.1840  0.0670  0.2460
  110OSM    C1511289   1.795   1.701  11.458 -0.5500 -0.9943  0.0425
  110OSM   H15A11290   1.692   1.674  11.441 -0.4980 -0.9666 -0.3333
  110OSM   H15B11291   1.800   1.807  11.437 -2.4427 -0.4645  1.9644
  110OSM   H15C11292   1.814   1.691  11.564 -0.2882 -0.3752  0.0568
  110OSM    C1411293   2.031   1.641  11.424  0.1609  0.4561 -0.5845
  110OSM   H14A11294   2.103   1.583  11.368 -1.5687  0.1668 -2.5854
  110OSM   H14B11295   2.051   1.619  11.528  0.7786 -0.6629 -0.9180
  110OSM   H14C11296   2.058   1.745  11.411  0.3091  0.6786  1.1500
  110OSM    C1311297   1.853   1.472  11.399  0.4934  0.3950  0.0590
  110OSM   H13A11298   1.748   1.449  11.393  0.7746 -1.0717  0.2742
  110OSM   H13B11299   1.882   1.445  11.499  2.9472  1.7354 -0.2196
  110OSM   H13C11300   1.897   1.415  11.318 -0.7433  1.5442 -1.4976
  110OSM    C1211301   1.876   1.646  11.237 -0.5055 -0.4349  0.0162
  110OSM   H12A11302   1.777   1.628  11.198 -0.7582  0.9145 -0.0079
  110OSM   H12B11303   1.951   1.588  11.186  1.9578  1.8467  0.8175
  110OSM    C1111304   1.902   1.797  11.200  0.0300 -0.3514 -0.3614
  110OSM   H11A11305   1.922   1.807  11.092  1.0800  0.1778 -0.1237
  110OSM   H11B11306   1.989   1.833  11.260 -0.1317  0.4386 -0.5936
  110OSM      P11307   1.651   1.861  11.159  0.1058  0.0648  0.1925
  110OSM    O1311308   1.619   1.722  11.118  0.4316 -0.2453  0.4015
  110OSM    O1411309   1.552   1.937  11.238 -0.5531  0.1445 -0.1695
  110OSM    O1111310   1.685   1.943  11.029 -0.6762 -0.9096 -0.9264
  110OSM    O1211311   1.789   1.871  11.236 -0.7515 -0.3022 -0.6457
  110OSM    C1S11312   1.706   2.088  11.020  0.1158 -0.4135  0.0458
  110OSM    H1S11313   1.800   2.116  11.073 -0.5553  0.1218  0.9861
  110OSM    H1T11314   1.624   2.141  11.073  0.1201  1.5066 -1.7095
  110OSM     NF11315   1.750   2.286  10.887 -0.1711  0.1165 -0.0511
  110OSM    HNF11316   1.687   2.359  10.860 -2.8894 -2.3599 -0.8445
  110OSM    C2S11317   1.708   2.144  10.877  0.3269 -0.1317  0.0201
  110OSM    H2S11318   1.780   2.086  10.817 -0.1811 -0.8899  0.1321
  110OSM    C3S11319   1.586   2.121  10.807 -0.0258  0.3579  0.1796
  110OSM    H3S11320   1.496   2.157  10.862  0.9860  0.7811  1.6239
  110OSM     O311321   1.563   1.983  10.769 -0.4900 -0.2610 -0.5423
  110OSM    HO311322   1.596   1.934  10.844 -0.4202  1.7924  0.8411
  110OSM    C4S11323   1.577   2.193  10.679 -0.0127 -0.3321 -0.1958
  110OSM    H4S11324   1.653   2.165  10.605  1.2059 -0.1848  0.9642
  110OSM    C5S11325   1.473   2.266  10.642  0.5904  0.2020 -0.2589
  110OSM    H5S11326   1.391   2.282  10.714  3.6362  3.4099  2.8995
  110OSM    C6S11327   1.472   2.325  10.502 -0.0235  0.2355 -0.3459
  110OSM    H6S11328   1.428   2.427  10.497  2.3653  1.3410 -0.5048
  110OSM    H6T11329   1.419   2.254  10.436  2.2128 -2.1249  0.2292
  110OSM    C7S11330   1.602   2.344  10.436  1.0535  0.3371 -0.3682
  110OSM    H7S11331   1.646   2.245  10.412 -1.3068 -0.7708 -0.4233
  110OSM    H7T11332   1.674   2.396  10.502  1.6696 -0.4160 -0.4334
  110OSM    C8S11333   1.595   2.416  10.298  0.0669  0.2261 -0.1859
  110OSM    H8S11334   1.696   2.450  10.268 -0.6264  1.2520 -1.4901
  110OSM    H8T11335   1.544   2.515  10.301 -2.6297 -1.0102 -1.7496
  110OSM    C9S11336   1.548   2.333  10.173 -0.3882  0.7263 -0.3567
  110OSM    H9S11337   1.438   2.341  10.158 -1.0396 -0.2929  3.0405
  110OSM    H9T11338   1.566   2.225  10.193 -3.6158  0.1242 -0.1728
  110OSM   C10S11339   1.624   2.377  10.044 -0.6858  0.2724 -0.3204
  110OSM   H10S11340   1.733   2.367  10.063 -0.9434 -0.7059  0.8003
  110OSM   H10T11341   1.598   2.480  10.011 -0.3141  0.8690  1.1348
  110OSM   C11S11342   1.583   2.278   9.934 -0.1575 -0.3510  0.0940
  110OSM   H11S11343   1.478   2.298   9.904 -0.4847 -2.6472 -0.4461
  110OSM   H11T11344   1.596   2.169   9.948  0.3157 -0.5327 -1.5230
  110OSM   C12S11345   1.687   2.306   9.819  0.7765 -0.7361 -0.3546
  110OSM   H12S11346   1.788   2.269   9.844  1.2045  0.5347 -0.1116
  110OSM   H12T11347   1.704   2.416   9.822 -0.7974 -0.3491 -2.7741
  110OSM   C13S11348   1.635   2.249   9.686  0.2468 -0.0892  0.9379
  110OSM   H13S11349   1.525   2.263   9.678  0.5571  2.3951  0.1700
  110OSM   H13T11350   1.643   2.139   9.699 -3.4320 -0.7465 -1.0154
  110OSM   C14S11351   1.692   2.291   9.549 -0.1420 -0.5781 -0.4961
  110OSM   H14S11352   1.803   2.290   9.556 -0.1717 -0.2355  0.1064
  110OSM   H14T11353   1.650   2.389   9.519  0.3016  0.2465  1.4078
  110OSM   C15S11354   1.658   2.187   9.437  0.1374 -0.3929 -0.0080
  110OSM   H15S11355   1.549   2.212   9.431 -0.2216 -1.1430  2.4465
  110OSM   H15T11356   1.672   2.082   9.470  0.3739 -0.6457 -0.8840
  110OSM   C16S11357   1.741   2.201   9.315  0.0975 -0.4201  0.0062
  110OSM   H16S11358   1.833   2.140   9.330  1.1166  0.5783 -1.7693
  110OSM   H16T11359   1.767   2.306   9.291  0.1749 -0.1656  1.1630
  110OSM   C17S11360   1.667   2.132   9.187  0.0900 -0.4938 -0.3318
  110OSM   H17S11361   1.617   2.208   9.122  3.8634  1.2660 -1.5051
  110OSM   H17T11362   1.591   2.065   9.232 -1.0593  1.4366  0.7228
  110OSM   C18S11363   1.752   2.045   9.095 -0.1528  0.0418 -0.0999
  110OSM   H18S11364   1.799   1.963   9.154  1.2503  0.4664 -0.6047
  110OSM   H18T11365   1.843   2.092   9.051  0.8688  0.2089  2.0551
  110OSM   H18U11366   1.692   1.986   9.023  1.2677 -2.2500  0.4981
  110OSM    C1F11367   1.878   2.330  10.897 -0.4405 -0.1129  0.2672
  110OSM     OF11368   1.970   2.254  10.872  0.9515 -0.3553  0.6408
  110OSM    C2F11369   1.906   2.479  10.933  0.1885 -0.0832  0.1191
  110OSM    H2F11370   1.981   2.480  11.015 -2.1606  3.4546  2.5461
  110OSM    H2G11371   1.808   2.512  10.975 -0.9568 -2.8250 -0.1839
  110OSM    C3F11372   1.962   2.550  10.807  0.4152 -0.3654  0.9027
  110OSM    H3F11373   2.052   2.494  10.775  0.7403  0.5262  0.2141
  110OSM    H3G11374   1.992   2.651  10.841 -1.8066  1.0427 -0.9862
  110OSM    C4F11375   1.860   2.567  10.688 -0.1297  0.2098 -0.5398
  110OSM    H4F11376   1.822   2.465  10.668 -0.8162  0.5193 -0.8591
  110OSM    H4G11377   1.927   2.601  10.606  1.6086  1.7973  1.4300
  110OSM    C5F11378   1.749   2.662  10.727  0.3490  0.6186 -0.2142
  110OSM    H5F11379   1.801   2.759  10.747  0.0156  0.9137 -0.7372
  110OSM    H5G11380   1.704   2.628  10.823  1.3564 -0.2698 -0.0390
  110OSM    C6F11381   1.654   2.677  10.610  0.4948 -0.4221  0.0721
  110OSM    H6F11382   1.599   2.582  10.599 -0.8644  0.2574  0.7496
  110OSM    H6G11383   1.722   2.695  10.525 -0.5183 -0.9780 -0.8790
  110OSM    C7F11384   1.559   2.801  10.614 -0.4001  0.3366 -0.3884
  110OSM    H7F11385   1.618   2.890  10.644  1.0888  0.1679 -2.5974
  110OSM    H7G11386   1.490   2.796  10.701 -0.1261 -0.5620 -0.2107
  110OSM    C8F11387   1.480   2.832  10.486  0.1009  0.1678  0.8366
  110OSM    H8F11388   1.562   2.841  10.410 -0.4876  1.8044  0.3529
  110OSM    H8G11389   1.436   2.934  10.491  2.2550  1.0831  2.8479
  110OSM    C9F11390   1.373   2.733  10.458 -0.1407 -0.0589  0.1740
  110OSM    H9F11391   1.319   2.687  10.542 -1.2915 -1.9326 -1.5095
  110OSM   C10F11392   1.333   2.708  10.328 -0.0805  0.0413  0.1937
  110OSM   H10F11393   1.248   2.639  10.316 -2.1575  2.5506 -0.4501
  110OSM   C11F11394   1.400   2.768  10.204  0.1360  0.4849 -0.4483
  110OSM   H11F11395   1.505   2.734  10.194 -0.4254 -1.6927  0.6117
  110OSM   H11G11396   1.408   2.879  10.211  0.7506  0.5192 -1.4447
  110OSM   C12F11397   1.330   2.750  10.067  0.5218 -0.2012  0.9168
  110OSM   H12F11398   1.353   2.649  10.027  3.0891  0.0929  1.5034
  110OSM   H12G11399   1.382   2.819   9.996 -3.0963  1.7752 -0.1043
  110OSM   C13F11400   1.180   2.787  10.051  0.4935 -0.8978  0.1587
  110OSM   H13F11401   1.174   2.898  10.052  2.6949 -0.7127  1.9165
  110OSM   H13G11402   1.112   2.749  10.129 -0.0182  2.6068  1.6352
  110OSM   C14F11403   1.131   2.748   9.915 -0.0913  0.0795 -0.1239
  110OSM   H14F11404   1.020   2.749   9.908 -0.1812  1.7148  0.8466
  110OSM   H14G11405   1.165   2.644   9.896 -2.4343 -0.7279 -0.2626
  110OSM   C15F11406   1.178   2.840   9.806  0.7647 -0.3775  0.3786
  110OSM   H15F11407   1.288   2.844   9.799  0.8133  3.3487  1.1430
  110OSM   H15G11408   1.148   2.943   9.836  1.6141  1.0758 -3.1506
  110OSM   C16F11409   1.115   2.827   9.666  0.0972  0.6840  1.0412
  110OSM   H16F11410   1.148   2.907   9.596 -0.1537  0.6934  0.9326
  110OSM   H16G11411   1.004   2.825   9.668  0.0116  2.3140 -0.1751
  110OSM   C17F11412   1.148   2.689   9.606 -0.7883  0.0213 -0.0314
  110OSM   H17F11413   1.122   2.612   9.681 -2.4396 -0.7272 -1.3280
  110OSM   H17G11414   1.258   2.673   9.605 -0.5667  1.4083  0.3024
  110OSM   C18F11415   1.086   2.651   9.474  0.3372 -0.1250  0.9277
  110OSM   H18F11416   1.112   2.717   9.388 -0.5253  1.8959  2.1409
  110OSM   H18G11417   0.975   2.650   9.474  0.2319  0.5377 -2.0895
  110OSM   H18H11418   1.109   2.546   9.446 -2.5449 -0.3368 -1.1488
  111OSM      N11419   1.798   1.535  10.763  0.3147  0.6427 -0.5322
  111OSM    C1511420   1.864   1.667  10.799  0.1313  0.4517  0.1305
  111OSM   H15A11421   1.886   1.718  10.706 -1.6223  1.3499  0.1760
  111OSM   H15B11422   1.951   1.651  10.860 -0.6499 -0.5587  1.0078
  111OSM   H15C11423   1.799   1.736  10.851 -1.0368 -0.8343  0.4470
  111OSM    C1411424   1.785   1.463  10.890  0.0967 -0.3894  0.1561
  111OSM   H14A11425   1.725   1.522  10.957 -0.6072 -1.5673  0.5900
  111OSM   H14B11426   1.881   1.456  10.938  1.2355  3.3869 -1.2291
  111OSM   H14C11427   1.743   1.367  10.861 -1.1980  0.3041 -0.3155
  111OSM    C1311428   1.661   1.551  10.698 -1.0748  0.0303  0.1541
  111OSM   H13A11429   1.598   1.614  10.758 -0.6238  0.6437 -0.0043
  111OSM   H13B11430   1.621   1.454  10.673  1.8191 -2.3717  3.7645
  111OSM   H13C11431   1.680   1.606  10.607 -2.7494 -1.0373 -0.8887
  111OSM    C1211432   1.891   1.451  10.681  0.2469 -0.2527 -0.0764
  111OSM   H12A11433   1.972   1.419  10.745  0.8112  0.2615 -0.5183
  111OSM   H12B11434   1.942   1.514  10.609  0.1445  1.0460  0.9445
  111OSM    C1111435   1.839   1.329  10.604 -0.5895 -0.0141 -0.9989
  111OSM   H11A11436   1.929   1.279  10.564  1.1042  0.0536  2.4403
  111OSM   H11B11437   1.777   1.364  10.517  0.4079  2.7917 -0.6910
  111OSM      P11438   1.638   1.173  10.633 -0.3145  0.0092 -0.3493
  111OSM    O1311439   1.598   1.060  10.719  0.3822 -0.4702 -0.6530
  111OSM    O1411440   1.543   1.284  10.610  0.2354 -0.0479 -0.4359
  111OSM    O1111441   1.686   1.112  10.494  0.2588  0.0526  0.1815
  111OSM    O1211442   1.775   1.235  10.692 -0.2794  0.3963  0.1913
  111OSM    C1S11443   1.608   1.033  10.405  0.3929 -0.4112  0.5427
  111OSM    H1S11444   1.508   1.024  10.453 -0.2292  1.9578 -0.2052
  111OSM    H1T11445   1.648   0.930  10.390  3.3144  0.2532  2.7981
  111OSM     NF11446   1.526   1.019  10.179  0.0733 -0.3707  0.1676
  111OSM    HNF11447   1.563   0.963  10.106 -0.4011  0.4231 -0.7076
  111OSM    C2S11448   1.617   1.091  10.261  0.1648 -0.0854  0.2560
  111OSM    H2S11449   1.581   1.197  10.256  0.6856  0.1230  0.8434
  111OSM    C3S11450   1.762   1.100  10.211  0.2584 -0.4501 -0.0002
  111OSM    H3S11451   1.812   1.001  10.208  0.8953 -0.1303  0.0002
  111OSM     O311452   1.843   1.182  10.286  0.1076 -0.5296 -0.8613
  111OSM    HO311453   1.794   1.193  10.368 -0.4936 -0.3309 -1.2451
  111OSM    C4S11454   1.776   1.151  10.068  0.2052  0.2938 -0.0472
  111OSM    H4S11455   1.817   1.078   9.997 -1.7425  1.2946 -2.3368
  111OSM    C5S11456   1.746   1.275  10.027  0.1212  0.0195  0.4382
  111OSM    H5S11457   1.700   1.347  10.096 -1.0484 -0.9982  0.7610
  111OSM    C6S11458   1.739   1.329   9.881  0.0014 -0.0791 -0.6972
  111OSM    H6S11459   1.826   1.276   9.838  0.0044 -0.4700 -0.2223
  111OSM    H6T11460   1.752   1.440   9.879 -1.1392  0.0748 -0.4522
  111OSM    C7S11461   1.611   1.298   9.808 -0.0892 -1.1200  0.1380
  111OSM    H7S11462   1.532   1.361   9.856 -0.0883  0.2625 -1.5784
  111OSM    H7T11463   1.575   1.193   9.816  0.6399 -1.4762 -1.0032
  111OSM    C8S11464   1.625   1.342   9.666  0.2393 -0.1795  0.4382
  111OSM    H8S11465   1.711   1.291   9.618 -0.1164  0.0432 -0.4732
  111OSM    H8T11466   1.637   1.453   9.663  0.0690 -0.1706 -0.2983
  111OSM    C9S11467   1.508   1.318   9.569  0.5833  0.3221  0.2177
  111OSM    H9S11468   1.416   1.359   9.615  0.8325  1.7615 -0.5172
  111OSM    H9T11469   1.495   1.209   9.556 -0.8528  0.5618 -0.4746
  111OSM   C10S11470   1.525   1.388   9.436 -0.5501 -0.1664 -0.6760
  111OSM   H10S11471   1.627   1.371   9.395  0.4595 -1.2120  2.0327
  111OSM   H10T11472   1.525   1.498   9.455 -0.8983 -0.2855  0.0243
  111OSM   C11S11473   1.427   1.378   9.315 -0.3207  0.0837 -0.0234
  111OSM   H11S11474   1.326   1.381   9.362 -1.2462  0.1402 -1.9393
  111OSM   H11T11475   1.445   1.283   9.260 -1.9830  0.5779 -1.5006
  111OSM   C12S11476   1.437   1.493   9.219 -0.5612 -0.1844  0.1389
  111OSM   H12S11477   1.432   1.593   9.269  1.5696  0.2235 -0.3825
  111OSM   H12T11478   1.349   1.485   9.151  0.3750 -0.7978 -1.0183
  111OSM   C13S11479   1.547   1.477   9.112 -0.2499 -0.1775  0.1865
  111OSM   H13S11480   1.539   1.381   9.057  1.4011 -1.5847  2.2417
  111OSM   H13T11481   1.645   1.477   9.163 -0.3029  2.0563  0.3952
  111OSM   C14S11482   1.547   1.592   9.004 -0.1850 -0.1084 -0.1261
  111OSM   H14S11483   1.573   1.683   9.063 -0.6858  1.7847 -2.6283
  111OSM   H14T11484   1.445   1.604   8.961  0.0492  0.8673 -0.4459
  111OSM   C15S11485   1.647   1.581   8.880 -0.1783  0.3627 -0.3431
  111OSM   H15S11486   1.616   1.502   8.808  0.9040  1.2416 -1.8434
  111OSM   H15T11487   1.745   1.559   8.926  0.6286  2.7780 -0.7217
  111OSM   C16S11488   1.668   1.707   8.799 -0.4263  0.5657  0.9333
  111OSM   H16S11489   1.743   1.769   8.853  1.6665  0.9389 -2.1024
  111OSM   H16T11490   1.572   1.760   8.778 -0.2400  0.5560 -0.0009
  111OSM   C17S11491   1.742   1.678   8.664 -0.1953 -0.0258 -0.5073
  111OSM   H17S11492   1.741   1.773   8.607  0.2912 -0.4527 -1.2343
  111OSM   H17T11493   1.679   1.603   8.611 -0.6126  0.1949 -0.3243
  111OSM   C18S11494   1.893   1.628   8.671 -0.1194 -0.8574 -0.0115
  111OSM   H18S11495   1.951   1.723   8.670  0.1569 -0.9947 -2.3196
  111OSM   H18T11496   1.919   1.565   8.584  0.5424 -1.3617  0.5373
  111OSM   H18U11497   1.906   1.580   8.770  1.8897 -1.8163 -0.6947
  111OSM    C1F11498   1.400   1.006  10.211  0.2292 -1.2964  0.5739
  111OSM     OF11499   1.348   1.093  10.279  0.0754  0.0555  0.0640
  111OSM    C2F11500   1.328   0.878  10.175 -0.4226 -0.0248 -0.0564
  111OSM    H2F11501   1.331   0.814  10.266  0.0307 -0.6602 -0.5073
  111OSM    H2G11502   1.383   0.815  10.102 -1.1006 -0.6491 -0.0457
  111OSM    C3F11503   1.181   0.893  10.131  0.1804  0.7114 -0.2822
  111OSM    H3F11504   1.121   0.928  10.217  0.0212 -1.1447  0.3912
  111OSM    H3G11505   1.151   0.789  10.109  2.8272 -0.4296  1.0511
  111OSM    C4F11506   1.164   0.981  10.010 -0.2086  0.3907 -0.4064
  111OSM    H4F11507   1.172   1.090  10.032  2.7992 -0.0549  1.2920
  111OSM    H4G11508   1.061   0.964   9.975 -0.5883  2.1951 -0.2990
  111OSM    C5F11509   1.260   0.949   9.887 -0.4256  0.1151 -0.3374
  111OSM    H5F11510   1.273   0.840   9.874 -1.6475  0.1869 -2.6831
  111OSM    H5G11511   1.364   0.983   9.906 -0.4622  0.6377 -1.0399
  111OSM    C6F11512   1.198   1.003   9.755  0.2833  0.0558 -0.5883
  111OSM    H6F11513   1.181   1.112   9.765 -1.6782 -0.2760  0.0788
  111OSM    H6G11514   1.094   0.965   9.739  1.2449 -2.1153 -2.3232
  111OSM    C7F11515   1.278   0.962   9.637 -0.0910 -0.1486 -0.3555
  111OSM    H7F11516   1.292   0.852   9.639 -0.6945 -0.2250 -0.0283
  111OSM    H7G11517   1.378   1.010   9.640 -0.6288  1.0036 -0.2287
  111OSM    C8F11518   1.213   1.006   9.503 -0.0422  0.4788 -0.7421
  111OSM    H8F11519   1.277   0.978   9.416 -0.5757 -1.4214 -0.5760
  111OSM    H8G11520   1.214   1.117   9.507  0.0438  0.4853  3.3504
  111OSM    C9F11521   1.074   0.965   9.484 -0.0683  0.6156  0.5820
  111OSM    H9F11522   1.000   1.014   9.549 -1.0206  2.6646 -1.8971
  111OSM   C10F11523   1.025   0.873   9.398 -0.0737  0.3193 -0.3870
  111OSM   H10F11524   0.916   0.859   9.392 -0.0544 -0.5741  1.0679
  111OSM   C11F11525   1.095   0.777   9.306 -0.2837 -0.2190 -0.1339
  111OSM   H11F11526   1.202   0.806   9.297  0.0671 -1.6941 -0.9993
  111OSM   H11G11527   1.045   0.780   9.206 -2.3906 -1.2451  0.8268
  111OSM   C12F11528   1.093   0.632   9.357  0.3815  0.2447  0.5780
  111OSM   H12F11529   1.139   0.563   9.283  0.2526  2.1978 -1.4360
  111OSM   H12G11530   0.989   0.597   9.373 -0.6489  2.0994 -1.4771
  111OSM   C13F11531   1.174   0.616   9.485  0.3889  0.9538  0.0929
  111OSM   H13F11532   1.126   0.669   9.570 -0.9374 -0.2092  0.1014
  111OSM   H13G11533   1.280   0.650   9.476  1.6246 -2.6078 -0.2862
  111OSM   C14F11534   1.171   0.467   9.525 -0.0222  0.0957 -0.7172
  111OSM   H14F11535   1.272   0.420   9.524  0.0416  0.2395 -1.0291
  111OSM   H14G11536   1.100   0.419   9.455 -1.9854  1.4218  0.2809
  111OSM   C15F11537   1.139   0.432   9.677  0.2538 -0.0446  0.6270
  111OSM   H15F11538   1.151   0.323   9.693 -0.4167 -0.0138  1.4417
  111OSM   H15G11539   1.034   0.448   9.711 -0.0549  0.2538 -0.4254
  111OSM   C16F11540   1.231   0.516   9.766 -0.0508 -0.1507  0.2980
  111OSM   H16F11541   1.194   0.619   9.783 -1.1221 -0.4888  0.0725
  111OSM   H16G11542   1.330   0.510   9.716 -1.0379 -0.7336 -1.6922
  111OSM   C17F11543   1.244   0.458   9.909 -0.3485  0.3993 -0.7453
  111OSM   H17F11544   1.282   0.354   9.905 -0.0061  0.4863 -0.0172
  111OSM   H17G11545   1.144   0.472   9.954  0.2666  2.1076  0.1798
  111OSM   C18F11546   1.354   0.518   9.999 -0.2627 -0.0260  0.2238
  111OSM   H18F11547   1.460   0.509   9.967  0.0134 -1.6358  1.4689
  111OSM   H18G11548   1.348   0.461  10.094 -0.6502  0.8763  0.7503
  111OSM   H18H11549   1.327   0.624  10.019  0.1458 -0.3004  2.5837
  112OSM      N11550   5.620   5.554  11.008 -0.0737  0.0610  0.3998
  112OSM    C1511551   5.533   5.673  11.052 -0.0995  0.2063  0.2942
  112OSM   H15A11552   5.548   5.699  11.156  3.3496  0.5812 -0.1966
  112OSM   H15B11553   5.431   5.655  11.022  0.9821 -2.6223 -2.0753
  112OSM   H15C11554   5.561   5.762  10.997  0.2020  0.6549  1.1423
  112OSM    C1411555   5.757   5.602  11.029 -0.7674 -0.6286  0.5749
  112OSM   H14A11556   5.784   5.682  10.962  3.1434  0.0004  2.6271
  112OSM   H14B11557   5.831   5.525  11.011 -0.2011  0.1063 -0.3379
  112OSM   H14C11558   5.757   5.635  11.132 -0.3165 -1.0475  0.7138
  112OSM    C1311559   5.598   5.437  11.110 -0.1760 -0.0966 -0.3500
  112OSM   H13A11560   5.507   5.385  11.085  0.1421 -1.0109  0.3331
  112OSM   H13B11561   5.599   5.486  11.206 -0.3675  0.0462 -0.4202
  112OSM   H13C11562   5.672   5.359  11.114  0.1537  0.2240 -0.0776
  112OSM    C1211563   5.597   5.511  10.874  0.1974  0.0910 -0.0381
  112OSM   H12A11564   5.498   5.470  10.887 -0.1943  1.0446  0.0944
  112OSM   H12B11565   5.659   5.429  10.841  3.1334  2.1495 -0.0907
  112OSM    C1111566   5.586   5.629  10.763 -0.4956  0.3262  0.0737
  112OSM   H11A11567   5.492   5.686  10.774 -1.2213 -0.5566 -1.2668
  112OSM   H11B11568   5.575   5.591  10.659 -0.7967 -0.4204  0.3671
  112OSM      P11569   5.707   5.854  10.763 -0.1244 -0.5407 -0.0638
  112OSM    O1311570   5.576   5.897  10.818  0.0010 -0.3036  0.1145
  112OSM    O1411571   5.829   5.892  10.834 -0.0778  0.1869  0.4935
  112OSM    O1111572   5.720   5.896  10.612  0.4592 -0.1875  0.3046
  112OSM    O1211573   5.710   5.700  10.753  0.0993 -0.3862 -0.3113
  112OSM    C1S11574   5.608   5.900  10.519 -0.0521  0.3609  0.3012
  112OSM    H1S11575   5.577   6.006  10.505  1.3998  0.7665 -0.0008
  112OSM    H1T11576   5.527   5.831  10.552 -0.1911  0.2324 -0.3042
  112OSM     NF11577   5.544   5.882  10.276 -0.2188 -0.0056  0.1260
  112OSM    HNF11578   5.487   5.803  10.256 -1.8808  1.5518 -1.6536
  112OSM    C2S11579   5.647   5.851  10.372 -0.2625 -0.0500 -0.3900
  112OSM    H2S11580   5.735   5.915  10.350 -0.2811  0.3889  0.7328
  112OSM    C3S11581   5.688   5.697  10.372  0.2027 -0.2032 -0.2177
  112OSM    H3S11582   5.599   5.638  10.402 -1.1082  2.0536  0.6684
  112OSM     O311583   5.780   5.669  10.473  0.3221  0.0392  0.0187
  112OSM    HO311584   5.790   5.751  10.521  0.2075  0.9926 -1.4937
  112OSM    C4S11585   5.742   5.662  10.242  0.5396  0.1604 -0.1721
  112OSM    H4S11586   5.786   5.744  10.183  1.4728 -0.1037  0.1410
  112OSM    C5S11587   5.740   5.534  10.195 -0.1312  0.5822  0.6480
  112OSM    H5S11588   5.694   5.458  10.259 -1.2457  1.7869  1.3346
  112OSM    C6S11589   5.804   5.487  10.063 -0.2109 -0.2929  0.4541
  112OSM    H6S11590   5.852   5.387  10.077 -0.2554 -0.0943  2.2719
  112OSM    H6T11591   5.878   5.568  10.049  0.8952 -1.3962 -0.3122
  112OSM    C7S11592   5.706   5.476   9.947 -0.4859 -0.1494 -0.4995
  112OSM    H7S11593   5.637   5.562   9.955  1.5213  2.0019 -3.7241
  112OSM    H7T11594   5.642   5.385   9.956 -1.7252  0.7051 -0.4748
  112OSM    C8S11595   5.760   5.475   9.809  0.0663 -0.5002  0.1184
  112OSM    H8S11596   5.840   5.398   9.806  1.2364  0.7078 -1.9897
  112OSM    H8T11597   5.798   5.576   9.785 -1.5681  0.2700  0.6087
  112OSM    C9S11598   5.653   5.429   9.712  0.4716  0.2073  0.6571
  112OSM    H9S11599   5.568   5.499   9.706  0.3003 -0.1000 -2.6805
  112OSM    H9T11600   5.622   5.327   9.743  1.6135  0.3621  2.4724
  112OSM   C10S11601   5.692   5.426   9.559  0.0461 -0.1004 -0.1536
  112OSM   H10S11602   5.778   5.359   9.542 -1.0043 -1.7447  0.6921
  112OSM   H10T11603   5.703   5.529   9.519  0.5994 -1.7027 -4.7306
  112OSM   C11S11604   5.588   5.355   9.465  0.1865 -0.0028 -0.5452
  112OSM   H11S11605   5.487   5.400   9.479 -0.2673 -1.6302  2.2535
  112OSM   H11T11606   5.581   5.250   9.500  0.2176  0.0401 -0.4121
  112OSM   C12S11607   5.618   5.367   9.311  0.2026  0.1021 -0.8723
  112OSM   H12S11608   5.697   5.292   9.291  3.1100  2.7439 -0.1679
  112OSM   H12T11609   5.664   5.465   9.285 -0.5887  0.5735 -0.5625
  112OSM   C13S11610   5.497   5.358   9.219  0.1718  0.7389  0.0604
  112OSM   H13S11611   5.426   5.442   9.233 -1.1508 -0.4094  0.3650
  112OSM   H13T11612   5.431   5.272   9.242 -0.3310  0.7125 -1.3873
  112OSM   C14S11613   5.544   5.339   9.076 -0.4875  0.0555  0.1163
  112OSM   H14S11614   5.617   5.259   9.051 -0.0329  0.9504 -1.5874
  112OSM   H14T11615   5.596   5.435   9.058  1.8054 -0.8254  1.6218
  112OSM   C15S11616   5.418   5.322   8.984 -0.0092  0.4482 -0.2629
  112OSM   H15S11617   5.345   5.400   9.013  1.7290  1.9478  0.2621
  112OSM   H15T11618   5.377   5.221   9.006 -1.5037  0.9756 -0.5346
  112OSM   C16S11619   5.468   5.327   8.836 -0.2213  0.1624 -0.6666
  112OSM   H16S11620   5.573   5.293   8.836 -0.2770 -0.1751  1.7146
  112OSM   H16T11621   5.459   5.436   8.812  0.5131  0.6101  0.9393
  112OSM   C17S11622   5.380   5.239   8.746  0.6508  0.0309  0.2436
  112OSM   H17S11623   5.275   5.273   8.748 -0.0030 -1.9174  1.0047
  112OSM   H17T11624   5.363   5.138   8.789  0.3291 -0.0753 -0.1313
  112OSM   C18S11625   5.424   5.240   8.606  0.5460  0.4499 -0.0570
  112OSM   H18S11626   5.533   5.230   8.589  0.4480  0.4090 -0.7158
  112OSM   H18T11627   5.386   5.331   8.555 -0.1308 -0.6178 -1.5324
  112OSM   H18U11628   5.371   5.159   8.552 -0.0306  1.1412 -0.5509
  112OSM    C1F11629   5.511   6.002  10.235 -0.5570  0.5182 -0.4149
  112OSM     OF11630   5.583   6.097  10.261  0.1892  0.1630  0.3912
  112OSM    C2F11631   5.389   6.007  10.144  0.5833 -0.9593 -0.6000
  112OSM    H2F11632   5.300   5.965  10.196 -0.5384  2.6310  0.6508
  112OSM    H2G11633   5.404   5.945  10.053 -0.4922  1.4143 -2.5107
  112OSM    C3F11634   5.367   6.161  10.100  0.6701  0.0876 -0.4818
  112OSM    H3F11635   5.462   6.189  10.050  1.6097  0.9076  1.6717
  112OSM    H3G11636   5.380   6.213  10.197  0.9539 -0.3865 -0.2632
  112OSM    C4F11637   5.233   6.192  10.031 -1.0891  0.0779 -0.8621
  112OSM    H4F11638   5.232   6.302  10.019  0.1014  0.5284  2.3247
  112OSM    H4G11639   5.148   6.173  10.100  0.1628 -1.1463  0.4067
  112OSM    C5F11640   5.204   6.117   9.899  0.0794 -0.3502  0.4504
  112OSM    H5F11641   5.106   6.150   9.858 -1.3804 -1.7371  2.6251
  112OSM    H5G11642   5.194   6.010   9.928  2.0596 -0.2277  1.7770
  112OSM    C6F11643   5.316   6.138   9.799  0.2749  0.6180  0.3922
  112OSM    H6F11644   5.284   6.069   9.718 -2.3023 -0.2200  1.9916
  112OSM    H6G11645   5.415   6.109   9.841 -0.1686 -3.1540 -0.8382
  112OSM    C7F11646   5.330   6.277   9.734 -0.1576  0.0204 -0.2967
  112OSM    H7F11647   5.337   6.327   9.833 -3.3147 -2.2155  1.2442
  112OSM    H7G11648   5.244   6.330   9.687 -0.1018 -0.2580 -0.7126
  112OSM    C8F11649   5.459   6.298   9.652 -0.1442 -0.6055 -0.0646
  112OSM    H8F11650   5.448   6.235   9.560  1.2276  2.8567 -2.8149
  112OSM    H8G11651   5.545   6.259   9.710  0.9098 -0.9510 -1.7654
  112OSM    C9F11652   5.476   6.442   9.624  0.7333  0.3829  0.8700
  112OSM    H9F11653   5.460   6.501   9.715  1.3621  0.1804  1.1215
  112OSM   C10F11654   5.534   6.502   9.522 -0.2861 -0.1968  0.0601
  112OSM   H10F11655   5.552   6.610   9.531 -1.0664 -0.1199  0.8679
  112OSM   C11F11656   5.601   6.440   9.404 -0.3402  0.5893  0.7763
  112OSM   H11F11657   5.644   6.341   9.432 -0.5352  0.8083  1.8775
  112OSM   H11G11658   5.682   6.506   9.367  0.8295 -0.5026  1.3165
  112OSM   C12F11659   5.515   6.411   9.278 -0.1954  0.1653 -0.0318
  112OSM   H12F11660   5.479   6.500   9.223 -0.4446  0.1659  0.1283
  112OSM   H12G11661   5.426   6.354   9.313  1.0919 -1.1525  1.3182
  112OSM   C13F11662   5.587   6.314   9.180  0.0166 -0.5483 -0.2622
  112OSM   H13F11663   5.558   6.216   9.224 -3.6023  0.5209  0.0089
  112OSM   H13G11664   5.694   6.339   9.197 -0.1458 -0.0233  0.0428
  112OSM   C14F11665   5.542   6.342   9.037  0.1808 -0.6621 -0.0714
  112OSM   H14F11666   5.569   6.446   9.011  2.9673 -1.1301  0.5372
  112OSM   H14G11667   5.433   6.327   9.031 -0.1530  0.8581  1.4176
  112OSM   C15F11668   5.596   6.248   8.929 -0.4981 -0.2597 -0.5494
  112OSM   H15F11669   5.539   6.270   8.837 -0.0703 -0.0838 -0.7747
  112OSM   H15G11670   5.590   6.140   8.955  1.1182 -0.4811 -1.0001
  112OSM   C16F11671   5.742   6.286   8.892  0.7962  1.0172  0.8345
  112OSM   H16F11672   5.793   6.286   8.991  0.7286  0.4543  0.8762
  112OSM   H16G11673   5.737   6.392   8.859  1.1421  0.0833 -2.5117
  112OSM   C17F11674   5.807   6.200   8.783  0.3597  0.0669  0.0466
  112OSM   H17F11675   5.761   6.192   8.683  1.3779 -1.5360 -0.3278
  112OSM   H17G11676   5.818   6.099   8.828  1.8224  0.3605  0.4284
  112OSM   C18F11677   5.953   6.256   8.768 -0.3483  0.2615  0.1279
  112OSM   H18F11678   6.002   6.283   8.864  0.7682  0.6557 -0.5369
  112OSM   H18G11679   5.950   6.349   8.708 -1.0430 -0.3784 -0.8517
  112OSM   H18H11680   6.012   6.181   8.711  0.4270  0.4467  0.6701
  113OSM      N11681   6.125   4.068  11.153 -0.3879  0.7803  0.1066
  113OSM    C1511682   6.100   4.149  11.282 -0.4465  0.0510  0.2972
  113OSM   H15A11683   6.184   4.135  11.349 -0.6158 -0.6067  0.3802
  113OSM   H15B11684   6.015   4.104  11.332 -1.0208 -0.1444 -0.8377
  113OSM   H15C11685   6.101   4.254  11.260  1.7488  0.1131  0.4560
  113OSM    C1411686   6.143   3.922  11.197 -0.3847  0.2889  0.1910
  113OSM   H14A11687   6.200   3.909  11.287  1.5963 -1.9058 -1.2830
  113OSM   H14B11688   6.201   3.865  11.126  0.9948  0.6502  0.9953
  113OSM   H14C11689   6.052   3.866  11.212 -0.1885 -1.4608 -3.8023
  113OSM    C1311690   5.997   4.078  11.067  0.4219  0.1004 -0.7860
  113OSM   H13A11691   5.999   4.016  10.979  0.9850  1.0991 -1.4916
  113OSM   H13B11692   5.973   4.179  11.038 -0.4776 -0.2230 -1.2230
  113OSM   H13C11693   5.907   4.045  11.118  0.4162 -0.1640 -0.9658
  113OSM    C1211694   6.249   4.121  11.081 -0.1068 -0.2507  0.0125
  113OSM   H12A11695   6.334   4.118  11.149  1.0050 -2.5439 -1.3719
  113OSM   H12B11696   6.237   4.226  11.057  3.2700  0.2038 -0.1668
  113OSM    C1111697   6.291   4.040  10.959  0.0602 -0.1740  0.5341
  113OSM   H11A11698   6.340   4.105  10.883  0.6521 -1.6793 -0.4154
  113OSM   H11B11699   6.209   3.986  10.906 -0.5083  0.1221  1.1123
  113OSM      P11700   6.541   3.948  11.014  0.2402 -0.3544 -0.2190
  113OSM    O1311701   6.578   4.088  11.051  0.1152 -0.2480  0.1274
  113OSM    O1411702   6.584   3.836  11.103  0.3562  0.0793 -0.0187
  113OSM    O1111703   6.587   3.925  10.865  0.3733 -0.5355 -0.6735
  113OSM    O1211704   6.383   3.942  11.006  0.0337 -0.0521 -0.1659
  113OSM    C1S11705   6.528   3.817  10.785  0.5164 -0.7164 -0.0375
  113OSM    H1S11706   6.429   3.855  10.753  0.1896  0.0292  1.7352
  113OSM    H1T11707   6.516   3.726  10.848  2.5709 -1.3484 -0.4735
  113OSM     NF11708   6.525   3.709  10.567  0.1546 -0.0874  0.6523
  113OSM    HNF11709   6.536   3.610  10.565 -1.9262 -0.3720  0.2444
  113OSM    C2S11710   6.603   3.793  10.656 -0.2194 -0.1498  0.2071
  113OSM    H2S11711   6.614   3.891  10.603 -3.2929  0.6902  0.9327
  113OSM    C3S11712   6.748   3.743  10.690  0.5714  0.8710 -0.0398
  113OSM    H3S11713   6.743   3.659  10.763 -2.4563  1.2153  0.2807
  113OSM     O311714   6.817   3.843  10.754  0.5452  0.3855  0.5949
  113OSM    HO311715   6.756   3.907  10.791  1.2757  2.6884 -1.8865
  113OSM    C4S11716   6.830   3.698  10.574  0.1215 -0.1909 -0.0888
  113OSM    H4S11717   6.881   3.777  10.516  1.4433 -1.3000 -0.4893
  113OSM    C5S11718   6.869   3.573  10.548 -0.1514 -0.2917  0.0288
  113OSM    H5S11719   6.842   3.493  10.618  0.4886 -1.6753 -1.2614
  113OSM    C6S11720   6.954   3.539  10.426 -0.0150  0.7295 -0.0055
  113OSM    H6S11721   7.045   3.491  10.468  0.3511  1.5273  0.1336
  113OSM    H6T11722   6.976   3.635  10.375  0.9055  0.1051 -0.8194
  113OSM    C7S11723   6.886   3.443  10.319  0.6209 -0.0069 -0.0845
  113OSM    H7S11724   6.795   3.494  10.280  1.3459  1.5059  0.1349
  113OSM    H7T11725   6.842   3.351  10.363 -0.5287  1.0270  1.0535
  113OSM    C8S11726   6.973   3.408  10.199 -0.4049  0.6458  0.3887
  113OSM    H8S11727   7.024   3.309  10.199  1.1107  1.3923  0.6594
  113OSM    H8T11728   7.060   3.476  10.209 -1.2048  2.0169 -1.4075
  113OSM    C9S11729   6.906   3.426  10.067  0.1083  0.0181  0.6343
  113OSM    H9S11730   6.846   3.518  10.081  1.7021  1.2898 -0.5196
  113OSM    H9T11731   6.833   3.344  10.052 -3.0570  2.8572 -0.7573
  113OSM   C10S11732   6.994   3.432   9.943 -0.5907 -0.2018 -0.1877
  113OSM   H10S11733   7.046   3.334   9.946 -1.0369 -0.5622 -2.3090
  113OSM   H10T11734   7.075   3.507   9.956 -1.3453  0.6987 -0.5157
  113OSM   C11S11735   6.938   3.459   9.799  0.4418 -0.5933  0.3848
  113OSM   H11S11736   6.889   3.558   9.795  0.1545 -0.6415 -5.3672
  113OSM   H11T11737   6.865   3.385   9.760 -1.4746  1.2389  0.3318
  113OSM   C12S11738   7.061   3.479   9.704 -0.4028 -0.4442 -0.0349
  113OSM   H12S11739   7.115   3.394   9.656  0.3533 -1.0814  1.8531
  113OSM   H12T11740   7.139   3.538   9.757 -1.2190 -0.6118  1.3827
  113OSM   C13S11741   7.027   3.567   9.586 -0.6360  0.4594  0.1890
  113OSM   H13S11742   7.115   3.563   9.518 -0.3846  0.0292  0.5345
  113OSM   H13T11743   7.010   3.672   9.618  3.0178  1.4057 -0.5082
  113OSM   C14S11744   6.909   3.515   9.500 -0.5571  0.1599 -0.4924
  113OSM   H14S11745   6.823   3.506   9.570  1.2415 -0.3745  1.7745
  113OSM   H14T11746   6.941   3.418   9.456 -1.9081 -0.4852 -0.1137
  113OSM   C15S11747   6.851   3.599   9.386 -0.1682 -0.1737  0.2325
  113OSM   H15S11748   6.935   3.645   9.331  0.6879 -0.3396  1.3599
  113OSM   H15T11749   6.794   3.684   9.430 -0.9154 -0.0706 -0.9044
  113OSM   C16S11750   6.763   3.528   9.283  0.0889 -0.0853  0.5347
  113OSM   H16S11751   6.675   3.488   9.337 -1.9911  0.9227 -1.8730
  113OSM   H16T11752   6.825   3.447   9.238  0.4553  1.2193 -1.4443
  113OSM   C17S11753   6.715   3.612   9.168 -0.3845 -0.1414 -0.4968
  113OSM   H17S11754   6.656   3.559   9.090 -0.3322  0.4809 -0.9645
  113OSM   H17T11755   6.801   3.655   9.112 -1.3414  1.8890 -0.5099
  113OSM   C18S11756   6.634   3.741   9.208 -0.1390 -0.1166  0.3579
  113OSM   H18S11757   6.548   3.726   9.277 -0.4038  1.6798  0.4707
  113OSM   H18T11758   6.595   3.790   9.116  0.8031  1.6608  0.8698
  113OSM   H18U11759   6.703   3.816   9.253  0.0768 -0.0485 -0.0775
  113OSM    C1F11760   6.425   3.751  10.488  0.0764  0.1349  0.5788
  113OSM     OF11761   6.397   3.866  10.490  0.7463 -0.0074 -0.3721
  113OSM    C2F11762   6.352   3.661  10.394  0.6529 -0.2328  0.1709
  113OSM    H2F11763   6.244   3.684  10.399  0.9431  1.1719  0.3587
  113OSM    H2G11764   6.373   3.556  10.426  0.7937  0.5190  2.8462
  113OSM    C3F11765   6.397   3.681  10.246  0.0724  1.0959  0.4516
  113OSM    H3F11766   6.400   3.788  10.215  0.8288  1.3283  1.2680
  113OSM    H3G11767   6.318   3.625  10.191 -0.0364 -0.2933  1.9449
  113OSM    C4F11768   6.536   3.627  10.219  0.0686  0.3897  0.5742
  113OSM    H4F11769   6.532   3.520  10.250 -1.7427 -0.0503 -0.9387
  113OSM    H4G11770   6.610   3.685  10.277  0.8183 -0.3568  0.3842
  113OSM    C5F11771   6.579   3.635  10.070  0.4775 -0.0876 -0.6765
  113OSM    H5F11772   6.689   3.646  10.074  0.5093 -0.6075  1.7859
  113OSM    H5G11773   6.529   3.727  10.034 -0.0089  0.3305  0.9630
  113OSM    C6F11774   6.525   3.507  10.006  0.3766  0.6766 -0.3850
  113OSM    H6F11775   6.417   3.493  10.025  0.6900 -0.6803  0.5669
  113OSM    H6G11776   6.579   3.426  10.060 -1.1319  0.2809  0.5858
  113OSM    C7F11777   6.560   3.488   9.855  0.8935  0.2042 -0.5247
  113OSM    H7F11778   6.520   3.392   9.816 -1.6396  1.0323 -0.1413
  113OSM    H7G11779   6.670   3.479   9.847  1.1560 -1.4179  2.9594
  113OSM    C8F11780   6.497   3.608   9.769 -0.1025  0.4163  0.3558
  113OSM    H8F11781   6.527   3.587   9.664  1.5614  2.0835  0.4457
  113OSM    H8G11782   6.543   3.703   9.804 -0.2511 -0.3576  2.7981
  113OSM    C9F11783   6.345   3.621   9.792 -0.1913 -0.3624 -0.0854
  113OSM    H9F11784   6.317   3.686   9.875  3.3016  3.3397 -1.4447
  113OSM   C10F11785   6.253   3.591   9.694 -0.1846  0.6314 -0.4175
  113OSM   H10F11786   6.147   3.606   9.718 -0.1188  0.3905  0.0255
  113OSM   C11F11787   6.270   3.513   9.564  0.3275 -0.2439  0.0847
  113OSM   H11F11788   6.183   3.444   9.556 -0.1986  0.5199 -1.1450
  113OSM   H11G11789   6.363   3.453   9.568  0.2421 -0.5047 -1.1601
  113OSM   C12F11790   6.260   3.597   9.435 -0.0605 -0.7783  0.1130
  113OSM   H12F11791   6.351   3.661   9.438  1.0109 -1.9377 -3.0441
  113OSM   H12G11792   6.173   3.665   9.447 -0.8022 -1.6962  0.0477
  113OSM   C13F11793   6.256   3.498   9.324  0.1613 -0.0704  0.5925
  113OSM   H13F11794   6.168   3.431   9.322  0.6203 -0.7000 -1.7125
  113OSM   H13G11795   6.353   3.445   9.315 -0.6523 -1.3879 -0.8619
  113OSM   C14F11796   6.247   3.582   9.197  0.4161 -0.9030  0.3089
  113OSM   H14F11797   6.264   3.509   9.114  5.0325 -0.9382  1.0004
  113OSM   H14G11798   6.331   3.654   9.186 -0.2176 -0.3954 -1.7195
  113OSM   C15F11799   6.113   3.655   9.180  0.6114 -0.3396  0.7488
  113OSM   H15F11800   6.106   3.739   9.252  0.6770  0.2268  0.1100
  113OSM   H15G11801   6.028   3.587   9.197  1.6927 -2.0994 -0.4972
  113OSM   C16F11802   6.096   3.700   9.034 -0.2654  0.1851  0.0136
  113OSM   H16F11803   5.994   3.733   9.005 -0.8105 -0.2311  1.3538
  113OSM   H16G11804   6.128   3.609   8.978  1.4187 -0.1928  1.5017
  113OSM   C17F11805   6.199   3.804   8.984  0.2244 -0.7562 -0.1495
  113OSM   H17F11806   6.297   3.765   9.018  0.4679 -0.9433 -1.0433
  113OSM   H17G11807   6.203   3.902   9.036  3.2445 -0.1782 -1.2404
  113OSM   C18F11808   6.190   3.822   8.832  0.1735 -0.0640 -0.1130
  113OSM   H18F11809   6.245   3.754   8.764  2.8781  0.8669  1.0308
  113OSM   H18G11810   6.225   3.922   8.800  1.4470 -0.1390  0.9553
  113OSM   H18H11811   6.083   3.825   8.801  0.0166  0.5272  0.4636
  114OSM      N11812   2.636   3.846  11.401 -0.0856 -0.1619 -0.4756
  114OSM    C1511813   2.586   3.796  11.540 -0.3336 -0.7757  0.2961
  114OSM   H15A11814   2.575   3.881  11.605  0.2434 -1.3107  1.1092
  114OSM   H15B11815   2.668   3.744  11.587  1.8400 -0.2035 -2.5751
  114OSM   H15C11816   2.496   3.738  11.528 -0.9724  0.0443  1.0237
  114OSM    C1411817   2.620   3.739  11.293  0.1590  0.6688 -0.0406
  114OSM   H14A11818   2.667   3.762  11.199  0.0680 -0.8789 -0.4921
  114OSM   H14B11819   2.518   3.716  11.268  0.8755 -1.7858 -1.0852
  114OSM   H14C11820   2.658   3.642  11.324 -0.6327  0.3525 -0.0520
  114OSM    C1311821   2.547   3.956  11.366  0.1171 -0.4645  0.1421
  114OSM   H13A11822   2.573   4.047  11.420 -0.4160 -0.4842  0.4367
  114OSM   H13B11823   2.447   3.926  11.394 -0.9839  0.8171 -2.1140
  114OSM   H13C11824   2.542   3.976  11.260  1.4343 -0.7324  0.0095
  114OSM    C1211825   2.775   3.889  11.410 -0.2842  0.3320 -0.2628
  114OSM   H12A11826   2.783   3.984  11.460 -0.1558  0.4397 -0.4849
  114OSM   H12B11827   2.811   3.914  11.311  0.8664 -0.4591 -0.0591
  114OSM    C1111828   2.876   3.792  11.471 -0.0304 -0.8940 -0.1555
  114OSM   H11A11829   2.851   3.770  11.577 -1.2153  1.8397  0.2076
  114OSM   H11B11830   2.973   3.847  11.475 -2.0621  3.0264 -0.1517
  114OSM      P11831   2.980   3.649  11.278 -0.1122 -0.1219 -0.2941
  114OSM    O1311832   3.120   3.688  11.304 -0.4409 -0.1734 -0.2776
  114OSM    O1411833   2.974   3.506  11.238 -0.8719  0.3179  0.3978
  114OSM    O1111834   2.929   3.732  11.158  0.2173 -0.4678 -0.2652
  114OSM    O1211835   2.871   3.680  11.390  0.6057  0.2370 -0.1788
  114OSM    C1S11836   3.010   3.812  11.076 -0.1032  0.0009  0.7096
  114OSM    H1S11837   3.117   3.785  11.088 -0.2298 -0.6582  0.4420
  114OSM    H1T11838   3.002   3.921  11.096 -2.4372 -0.1264  0.8181
  114OSM     NF11839   3.081   3.859  10.841 -0.3522  0.3236  0.1726
  114OSM    HNF11840   3.059   3.945  10.795  2.0887  0.3987 -1.0698
  114OSM    C2S11841   2.981   3.796  10.924  0.3949  0.2739  0.3303
  114OSM    H2S11842   2.979   3.687  10.903 -0.4022  0.4226 -0.4394
  114OSM    C3S11843   2.838   3.844  10.889 -0.2598  0.0120 -1.2533
  114OSM    H3S11844   2.846   3.955  10.880  2.6492  0.3260  2.5324
  114OSM     O311845   2.739   3.815  10.993 -0.5747  0.1667  0.0172
  114OSM    HO311846   2.794   3.800  11.070  0.3248 -1.0317 -0.8137
  114OSM    C4S11847   2.791   3.786  10.759  0.6067 -0.3594 -0.6438
  114OSM    H4S11848   2.741   3.689  10.774 -0.5500  0.3972  0.7274
  114OSM    C5S11849   2.796   3.847  10.638 -0.1123  0.0583  0.0471
  114OSM    H5S11850   2.844   3.946  10.635 -2.6036  1.5201  2.5851
  114OSM    C6S11851   2.740   3.785  10.514  0.2132 -0.1588  0.3240
  114OSM    H6S11852   2.662   3.847  10.464  0.1698  1.4971  2.3056
  114OSM    H6T11853   2.692   3.687  10.537  1.4086 -0.6477  0.8232
  114OSM    C7S11854   2.855   3.745  10.416 -0.4763  0.0989 -0.3619
  114OSM    H7S11855   2.921   3.672  10.467 -1.4207  0.7259  1.8953
  114OSM    H7T11856   2.927   3.827  10.396 -0.0433 -0.3304 -0.5986
  114OSM    C8S11857   2.801   3.692  10.280 -0.5679 -1.0354  0.2025
  114OSM    H8S11858   2.701   3.648  10.296 -0.9062 -0.0506  0.8866
  114OSM    H8T11859   2.869   3.611  10.248 -0.1320  0.1581 -2.1580
  114OSM    C9S11860   2.797   3.792  10.160 -0.0458 -0.3431 -0.1179
  114OSM    H9S11861   2.893   3.847  10.154  0.6765 -1.6205 -0.6730
  114OSM    H9T11862   2.709   3.858  10.174 -1.1430 -1.8816  0.4611
  114OSM   C10S11863   2.768   3.719  10.028 -0.0173 -0.3833  0.1194
  114OSM   H10S11864   2.666   3.676  10.029 -0.9917  1.7400  2.6488
  114OSM   H10T11865   2.845   3.639  10.014 -2.0749 -1.9380 -3.6086
  114OSM   C11S11866   2.764   3.821   9.908  0.1753  0.3160  0.7573
  114OSM   H11S11867   2.867   3.861   9.895  0.1085 -0.0176 -1.0802
  114OSM   H11T11868   2.690   3.896   9.942 -1.1609 -1.2954  1.5513
  114OSM   C12S11869   2.710   3.752   9.784 -0.6145  0.2249 -0.6366
  114OSM   H12S11870   2.624   3.683   9.793 -0.8077  0.4743 -0.5749
  114OSM   H12T11871   2.787   3.682   9.744 -2.3190 -1.7882 -0.5963
  114OSM   C13S11872   2.686   3.855   9.682  0.5336  0.0510 -0.1976
  114OSM   H13S11873   2.735   3.953   9.698  1.0548  0.0311 -1.5379
  114OSM   H13T11874   2.582   3.890   9.703  1.0435  1.4498  0.1034
  114OSM   C14S11875   2.694   3.808   9.537 -0.1333 -0.2634  0.9353
  114OSM   H14S11876   2.603   3.747   9.519  1.7303 -2.4380 -1.9474
  114OSM   H14T11877   2.769   3.727   9.526 -1.1465 -0.8388 -4.1720
  114OSM   C15S11878   2.705   3.920   9.438  0.1202  0.0502  0.6182
  114OSM   H15S11879   2.794   3.983   9.460 -0.0002  0.2901  0.4280
  114OSM   H15T11880   2.615   3.984   9.430 -0.4856 -0.7142  1.2417
  114OSM   C16S11881   2.739   3.875   9.290 -0.3201  0.1194 -0.7207
  114OSM   H16S11882   2.682   3.784   9.261 -0.7572 -0.5050  1.8542
  114OSM   H16T11883   2.847   3.853   9.279 -0.1173  1.6338 -2.1857
  114OSM   C17S11884   2.706   3.993   9.196 -0.0170  0.1383  0.3766
  114OSM   H17S11885   2.717   4.090   9.250  4.3763  0.9308 -1.5335
  114OSM   H17T11886   2.597   3.993   9.174  0.2175 -2.2524 -1.1218
  114OSM   C18S11887   2.797   4.010   9.070  0.3208  0.0976  0.3035
  114OSM   H18S11888   2.754   3.941   8.993  0.9415  0.0189  0.0240
  114OSM   H18T11889   2.905   3.990   9.086  0.5551 -0.4091 -1.5821
  114OSM   H18U11890   2.781   4.108   9.020  0.9359 -0.6626 -1.4859
  114OSM    C1F11891   3.206   3.809  10.847 -0.4038  0.5030 -0.1101
  114OSM     OF11892   3.228   3.694  10.885  0.6936 -0.1847  0.1471
  114OSM    C2F11893   3.307   3.901  10.799 -0.0134  0.3006  0.4348
  114OSM    H2F11894   3.390   3.905  10.873  1.2681 -2.3475 -0.7052
  114OSM    H2G11895   3.275   4.007  10.792  2.9188  1.2136 -0.7666
  114OSM    C3F11896   3.378   3.857  10.669 -0.5078  0.6630  0.5623
  114OSM    H3F11897   3.405   3.749  10.677  2.7054  1.1673 -1.4492
  114OSM    H3G11898   3.472   3.912  10.646  0.0127 -1.3396 -2.8602
  114OSM    C4F11899   3.283   3.863  10.545  0.8728 -0.3894  0.5449
  114OSM    H4F11900   3.283   3.968  10.509  1.4325  0.0251  1.7102
  114OSM    H4G11901   3.183   3.825  10.575  0.4936 -0.1628 -0.3898
  114OSM    C5F11902   3.334   3.777  10.432 -0.1514  0.2348 -0.1897
  114OSM    H5F11903   3.316   3.673  10.467  4.7286 -1.0826 -0.8640
  114OSM    H5G11904   3.445   3.783  10.425 -0.0114  0.5376  1.8645
  114OSM    C6F11905   3.270   3.803  10.296 -0.4038 -0.1097 -0.1731
  114OSM    H6F11906   3.310   3.905  10.278 -0.7482 -0.0363 -0.5277
  114OSM    H6G11907   3.160   3.807  10.305 -0.7646  0.1606 -3.4660
  114OSM    C7F11908   3.311   3.709  10.179  0.7661  0.3751 -0.6157
  114OSM    H7F11909   3.288   3.602  10.200  3.1654 -0.1569 -0.4224
  114OSM    H7G11910   3.422   3.716  10.172  1.0059 -0.8413  1.2616
  114OSM    C8F11911   3.257   3.746  10.044  0.6154  0.0430 -0.0334
  114OSM    H8F11912   3.146   3.757  10.039  0.8302  1.9800 -2.2198
  114OSM    H8G11913   3.273   3.663   9.972 -0.3284 -0.9479  0.8637
  114OSM    C9F11914   3.315   3.872   9.988  0.4237  0.5889 -0.5241
  114OSM    H9F11915   3.299   3.961  10.051 -4.2424  0.6796 -1.4348
  114OSM   C10F11916   3.381   3.886   9.870 -0.2071  1.1528  0.5774
  114OSM   H10F11917   3.434   3.979   9.843  3.1077 -0.6178  0.5473
  114OSM   C11F11918   3.400   3.783   9.760 -0.1375 -0.0693 -0.2763
  114OSM   H11F11919   3.331   3.697   9.776 -0.5790  0.3009 -0.1892
  114OSM   H11G11920   3.506   3.750   9.751  0.5024  0.2427  3.9439
  114OSM   C12F11921   3.367   3.845   9.628  0.2083 -0.4749 -0.5028
  114OSM   H12F11922   3.272   3.903   9.627  0.4044 -0.1491 -1.3924
  114OSM   H12G11923   3.362   3.766   9.549  2.1632  0.8599 -2.0726
  114OSM   C13F11924   3.478   3.938   9.575 -0.0429  0.4548 -0.5002
  114OSM   H13F11925   3.570   3.882   9.600 -1.0292 -1.6149 -1.2894
  114OSM   H13G11926   3.480   4.032   9.634  0.9597  1.1268 -1.5575
  114OSM   C14F11927   3.464   3.976   9.423  0.0562 -0.1445 -0.2016
  114OSM   H14F11928   3.371   4.030   9.398 -0.1791 -0.0451  0.8275
  114OSM   H14G11929   3.461   3.889   9.353 -0.4564 -1.4769  1.4050
  114OSM   C15F11930   3.584   4.053   9.367 -0.5758  0.2727  0.4897
  114OSM   H15F11931   3.676   3.991   9.372 -0.7914 -0.0131  0.9390
  114OSM   H15G11932   3.606   4.146   9.424  1.7194  1.3536 -1.9556
  114OSM   C16F11933   3.564   4.084   9.216 -0.2711 -0.5135 -0.1584
  114OSM   H16F11934   3.489   4.165   9.216  0.1753 -0.0894  0.3050
  114OSM   H16G11935   3.522   3.995   9.165 -1.5956 -0.2840  0.4771
  114OSM   C17F11936   3.687   4.148   9.151  0.3195 -0.2205 -0.4408
  114OSM   H17F11937   3.748   4.211   9.220  1.0868  1.1345 -2.2811
  114OSM   H17G11938   3.643   4.217   9.076 -2.3091 -1.6863 -0.3752
  114OSM   C18F11939   3.771   4.050   9.073 -0.4752  0.8237  0.2640
  114OSM   H18F11940   3.821   3.965   9.123 -0.5887  0.0550 -0.8859
  114OSM   H18G11941   3.858   4.104   9.029  0.3577 -0.1859  0.6216
  114OSM   H18H11942   3.701   4.012   8.996 -0.4508  0.3775  0.4624
  115OSM      N11943   2.925   4.372   5.843  0.2611 -0.0118 -0.3193
  115OSM    C1511944   3.073   4.360   5.879  0.3656 -0.4642  0.3852
  115OSM   H15A11945   3.080   4.271   5.941  1.6830 -0.2045  0.6397
  115OSM   H15B11946   3.116   4.442   5.934  1.2100  0.1172 -1.0810
  115OSM   H15C11947   3.129   4.339   5.789  1.1986 -1.8811  1.1788
  115OSM    C1411948   2.909   4.507   5.797  0.1419  0.3433  0.3779
  115OSM   H14A11949   2.943   4.586   5.863  0.2168  0.4603  0.2020
  115OSM   H14B11950   2.803   4.525   5.786 -0.0768  0.5573  2.4465
  115OSM   H14C11951   2.958   4.527   5.703 -0.1061 -0.3236  0.1010
  115OSM    C1311952   2.896   4.285   5.720 -0.2112 -0.6208  0.5223
  115OSM   H13A11953   2.900   4.180   5.745 -0.5828 -0.5584  0.8566
  115OSM   H13B11954   2.958   4.299   5.633 -1.5227  0.5800 -0.2564
  115OSM   H13C11955   2.792   4.298   5.692 -1.5317 -3.7295  3.1782
  115OSM    C1211956   2.845   4.336   5.962 -0.4735  0.7242  0.1896
  115OSM   H12A11957   2.894   4.252   6.008 -0.8037  1.1130  1.2813
  115OSM   H12B11958   2.745   4.316   5.927  0.8020  1.0171 -4.2585
  115OSM    C1111959   2.837   4.430   6.086 -0.4734  0.0221  0.8291
  115OSM   H11A11960   2.773   4.379   6.161 -1.8577  0.9485  0.3184
  115OSM   H11B11961   2.784   4.525   6.063  1.0904  0.7161 -0.0623
  115OSM      P11962   3.032   4.382   6.258  0.2246 -0.2430  0.0987
  115OSM    O1311963   3.018   4.236   6.240  0.1920  0.6622  0.5501
  115OSM    O1411964   3.168   4.432   6.256 -0.6850 -0.0111  0.4351
  115OSM    O1111965   2.955   4.425   6.389  0.4748 -0.7053 -0.3989
  115OSM    O1211966   2.961   4.457   6.142  0.2017 -0.3983 -0.2730
  115OSM    C1S11967   3.019   4.519   6.470 -1.4109  0.5908  1.0649
  115OSM    H1S11968   3.010   4.623   6.431  0.9628  0.4018 -0.1726
  115OSM    H1T11969   3.126   4.491   6.483 -1.2563 -0.2035 -1.4618
  115OSM     NF11970   3.026   4.601   6.705  0.7317  0.2889  0.3767
  115OSM    HNF11971   3.103   4.574   6.762 -1.5287 -2.1858  2.5431
  115OSM    C2S11972   2.967   4.502   6.619 -0.2675  0.1936 -0.6362
  115OSM    H2S11973   2.858   4.525   6.612 -0.5218 -0.5760  0.4493
  115OSM    C3S11974   2.996   4.352   6.665 -0.6703  0.4567 -0.2529
  115OSM    H3S11975   3.107   4.349   6.670 -0.6727  1.6279  0.7771
  115OSM     O311976   2.953   4.250   6.575  0.2368 -0.0020  0.6164
  115OSM    HO311977   2.905   4.294   6.504 -0.4476 -0.9463  0.4670
  115OSM    C4S11978   2.943   4.321   6.805  0.1086  0.2841 -0.1580
  115OSM    H4S11979   2.834   4.328   6.818  0.0626 -1.5304  0.7506
  115OSM    C5S11980   3.021   4.269   6.907  0.2071 -0.4438  0.0712
  115OSM    H5S11981   3.127   4.252   6.882 -0.4746 -1.3083 -2.5860
  115OSM    C6S11982   2.967   4.242   7.044 -0.1258 -1.1401 -0.0314
  115OSM    H6S11983   2.969   4.131   7.057 -2.7331 -1.6548 -2.7742
  115OSM    H6T11984   2.858   4.263   7.041  0.1093  0.5611  1.6944
  115OSM    C7S11985   3.039   4.319   7.155 -0.4682 -0.4234  0.4545
  115OSM    H7S11986   3.024   4.428   7.149 -0.0554 -0.4035 -0.2854
  115OSM    H7T11987   3.148   4.299   7.144 -0.6150 -0.3555 -1.4750
  115OSM    C8S11988   2.994   4.279   7.296  0.3057  0.0140 -0.1603
  115OSM    H8S11989   3.026   4.174   7.313  2.4532  0.7315  0.5128
  115OSM    H8T11990   2.884   4.289   7.308  0.4587  1.7202  0.1493
  115OSM    C9S11991   3.056   4.358   7.416  0.8002  0.1400 -0.7925
  115OSM    H9S11992   3.028   4.466   7.414 -0.7695 -0.0104  3.3967
  115OSM    H9T11993   3.166   4.341   7.417  1.5287  3.8508  1.7868
  115OSM   C10S11994   2.985   4.308   7.545  0.0688  0.0636 -0.8986
  115OSM   H10S11995   2.999   4.199   7.557 -0.5270  0.1348  0.6564
  115OSM   H10T11996   2.875   4.319   7.539 -0.1238 -0.5684  1.0596
  115OSM   C11S11997   3.048   4.377   7.667  0.0422  0.4810  0.7484
  115OSM   H11S11998   2.989   4.469   7.685 -3.7761 -1.1018 -2.2996
  115OSM   H11T11999   3.157   4.396   7.658 -0.1231  0.8948 -0.5457
  115OSM   C12S12000   3.053   4.285   7.795 -0.4822  0.2917  0.1455
  115OSM   H12S12001   3.121   4.199   7.775 -1.3545 -0.4470  0.2731
  115OSM   H12T12002   2.950   4.243   7.805  0.5542 -2.7718 -0.6908
  115OSM   C13S12003   3.080   4.345   7.928 -0.1848 -0.1637  0.2142
  115OSM   H13S12004   2.997   4.414   7.956 -0.8244 -0.2048 -1.4762
  115OSM   H13T12005   3.163   4.418   7.922 -0.8902  0.6316  0.0474
  115OSM   C14S12006   3.105   4.235   8.037 -0.0176  0.3870 -0.9751
  115OSM   H14S12007   3.194   4.174   8.013 -2.0056 -2.1002 -2.6652
  115OSM   H14T12008   3.024   4.159   8.027  1.2836 -1.4871  1.5579
  115OSM   C15S12009   3.120   4.300   8.176  0.4521  0.3983  0.3610
  115OSM   H15S12010   3.021   4.343   8.202  0.4694  1.4586 -1.1874
  115OSM   H15T12011   3.192   4.380   8.151  3.0182 -2.5719 -2.8754
  115OSM   C16S12012   3.153   4.210   8.289  0.8012 -0.1723 -0.2195
  115OSM   H16S12013   3.250   4.160   8.266  1.0506  0.1349  0.1623
  115OSM   H16T12014   3.093   4.117   8.293  2.7823 -1.6061 -1.8783
  115OSM   C17S12015   3.158   4.282   8.425  0.0274  0.3816  0.8365
  115OSM   H17S12016   3.180   4.209   8.506 -2.2775 -1.2268  0.1317
  115OSM   H17T12017   3.060   4.321   8.460  0.2128  0.6539  1.0588
  115OSM   C18S12018   3.271   4.380   8.435 -0.1454 -0.1425 -1.2735
  115OSM   H18S12019   3.248   4.482   8.398 -0.7652  0.5649  0.9233
  115OSM   H18T12020   3.367   4.349   8.388  0.8192 -0.7866  0.9984
  115OSM   H18U12021   3.290   4.408   8.541 -2.9303  0.0184 -0.7373
  115OSM    C1F12022   3.007   4.732   6.674 -0.4813 -0.6640  0.1676
  115OSM     OF12023   2.925   4.768   6.591  0.3812  0.0549  0.4783
  115OSM    C2F12024   3.101   4.834   6.737  0.7761  0.6850  0.4986
  115OSM    H2F12025   3.055   4.930   6.708 -0.5763 -0.2943 -0.7505
  115OSM    H2G12026   3.202   4.834   6.690  1.0094  1.2970  0.9826
  115OSM    C3F12027   3.107   4.814   6.887  0.3788  0.5187 -0.4521
  115OSM    H3F12028   3.155   4.718   6.915  1.5452  0.5961 -2.0511
  115OSM    H3G12029   3.009   4.833   6.937  1.7235  2.3307  1.6955
  115OSM    C4F12030   3.198   4.920   6.961  0.1674 -0.2086  1.0835
  115OSM    H4F12031   3.176   5.019   6.915  2.0566 -0.0574  0.4331
  115OSM    H4G12032   3.301   4.883   6.942  0.2909  1.5856 -2.6959
  115OSM    C5F12033   3.169   4.933   7.111 -0.5400  0.0434  0.3820
  115OSM    H5F12034   3.076   4.995   7.107 -0.0259  0.8258  0.2519
  115OSM    H5G12035   3.242   4.985   7.176 -3.5322  0.7831  3.4620
  115OSM    C6F12036   3.137   4.811   7.195  0.2140  0.4328  0.0363
  115OSM    H6F12037   3.228   4.747   7.199  0.6780  1.0823  0.1401
  115OSM    H6G12038   3.052   4.753   7.154  0.6649 -0.7085  0.6771
  115OSM    C7F12039   3.114   4.867   7.335  0.2065  0.0182 -0.6646
  115OSM    H7F12040   3.039   4.948   7.329  0.4685  0.1982 -1.7630
  115OSM    H7G12041   3.210   4.912   7.369  0.7575 -0.8385 -1.0627
  115OSM    C8F12042   3.080   4.761   7.444 -0.2757  0.4129 -0.5206
  115OSM    H8F12043   2.995   4.694   7.417 -0.5330  0.3915  0.3009
  115OSM    H8G12044   3.037   4.813   7.532  0.8092  0.0118  0.2666
  115OSM    C9F12045   3.201   4.677   7.477  0.7851 -0.3746 -0.1324
  115OSM    H9F12046   3.231   4.602   7.402  2.1497 -0.8507  0.8521
  115OSM   C10F12047   3.280   4.703   7.577 -0.5762  1.0307  0.6807
  115OSM   H10F12048   3.364   4.632   7.583 -0.3657  1.0964 -1.0234
  115OSM   C11F12049   3.274   4.797   7.692  0.0126 -0.0927 -0.2449
  115OSM   H11F12050   3.178   4.853   7.698  0.3753  0.4689  0.4848
  115OSM   H11G12051   3.346   4.879   7.672  0.9838 -1.5680 -3.5662
  115OSM   C12F12052   3.294   4.716   7.822 -0.2251  0.0244  0.3555
  115OSM   H12F12053   3.384   4.652   7.825 -0.6612 -0.5661  1.2943
  115OSM   H12G12054   3.214   4.639   7.820 -0.1331 -0.0548 -0.5662
  115OSM   C13F12055   3.288   4.802   7.944 -0.0957 -0.1442 -0.9751
  115OSM   H13F12056   3.240   4.900   7.923  1.2608  0.5107 -1.1439
  115OSM   H13G12057   3.380   4.821   8.004  0.4321  0.5841 -1.9892
  115OSM   C14F12058   3.193   4.737   8.054 -0.6466  0.3645  0.5468
  115OSM   H14F12059   3.232   4.633   8.055 -0.1764  0.5391  0.7900
  115OSM   H14G12060   3.091   4.739   8.010 -0.0570 -1.0135 -1.0215
  115OSM   C15F12061   3.198   4.808   8.195 -0.2855 -0.2843  0.1730
  115OSM   H15F12062   3.176   4.916   8.179 -1.6405 -0.4089  1.0514
  115OSM   H15G12063   3.297   4.800   8.244 -1.3485 -0.1467  2.4806
  115OSM   C16F12064   3.097   4.758   8.294  0.0756 -0.3618  0.8352
  115OSM   H16F12065   3.118   4.651   8.313 -0.1803 -0.6242 -0.2825
  115OSM   H16G12066   2.991   4.763   8.259  0.4487 -1.9858 -0.6864
  115OSM   C17F12067   3.117   4.831   8.433 -0.3726  0.2833 -0.0591
  115OSM   H17F12068   3.075   4.933   8.419  0.7130  0.5469 -1.6326
  115OSM   H17G12069   3.223   4.841   8.463 -0.5496  0.6130  0.4688
  115OSM   C18F12070   3.034   4.768   8.547  0.1222  0.0914 -0.3780
  115OSM   H18F12071   3.024   4.843   8.628  0.3789  0.0749 -0.3307
  115OSM   H18G12072   3.079   4.674   8.587  0.0377  0.9922  2.0068
  115OSM   H18H12073   2.939   4.738   8.499  0.5815 -1.4689 -0.3863
  116OSM      N12074   2.885   0.389   6.008 -0.3226 -0.1969 -0.3351
  116OSM    C1512075   3.017   0.414   5.934  0.0448  0.2794 -0.3880
  116OSM   H15A12076   3.111   0.391   5.982  0.7993  1.3359 -1.3091
  116OSM   H15B12077   3.018   0.520   5.913 -0.8045  0.4286  0.2306
  116OSM   H15C12078   3.031   0.358   5.843  0.1380 -2.5876  1.2531
  116OSM    C1412079   2.775   0.411   5.912 -0.6020 -0.0651  1.1357
  116OSM   H14A12080   2.679   0.387   5.956 -0.9195 -0.2992  0.3315
  116OSM   H14B12081   2.788   0.357   5.820  1.4610 -0.7801  1.7944
  116OSM   H14C12082   2.778   0.517   5.893 -4.1511 -0.3866 -2.4837
  116OSM    C1312083   2.885   0.243   6.050  0.3183  0.3358 -0.1605
  116OSM   H13A12084   2.965   0.217   6.117 -0.3731 -0.3783  0.4142
  116OSM   H13B12085   2.891   0.180   5.962 -2.7243 -2.5660  1.5034
  116OSM   H13C12086   2.792   0.211   6.095  0.7054  0.8828  1.0454
  116OSM    C1212087   2.872   0.477   6.130 -0.0342  0.2265 -0.0938
  116OSM   H12A12088   2.956   0.457   6.195  0.5188 -1.5126 -1.2697
  116OSM   H12B12089   2.784   0.439   6.180 -0.4784  0.9609 -0.2937
  116OSM    C1112090   2.846   0.631   6.103  0.0805  0.1083 -0.0098
  116OSM   H11A12091   2.936   0.667   6.049  0.0602  1.0843  0.5884
  116OSM   H11B12092   2.847   0.696   6.194  1.3999 -0.8682  0.7085
  116OSM      P12093   2.590   0.690   6.091 -0.1381 -0.1693 -0.0082
  116OSM    O1312094   2.528   0.815   6.036 -0.0070  0.1170  0.1584
  116OSM    O1412095   2.511   0.564   6.090 -0.2029  0.7714  0.0857
  116OSM    O1112096   2.634   0.727   6.239  0.1902  0.3534  0.1854
  116OSM    O1212097   2.728   0.658   6.022 -1.2693 -0.6038 -0.4969
  116OSM    C1S12098   2.538   0.765   6.337  0.5642  0.7857 -0.0170
  116OSM    H1S12099   2.465   0.682   6.345 -1.8628  2.8246  0.1704
  116OSM    H1T12100   2.481   0.853   6.299 -0.4999 -0.2068 -0.7752
  116OSM     NF12101   2.480   0.811   6.581  0.0167 -0.5517  0.4796
  116OSM    HNF12102   2.486   0.895   6.636  1.3631 -0.6819  0.5709
  116OSM    C2S12103   2.595   0.790   6.483  0.0306  0.5051 -0.4395
  116OSM    H2S12104   2.645   0.693   6.503 -1.5934 -0.0987  0.8808
  116OSM    C3S12105   2.700   0.904   6.496  0.3249 -0.0354 -0.7781
  116OSM    H3S12106   2.660   1.004   6.468 -0.3039 -0.0589  0.0114
  116OSM     O312107   2.812   0.889   6.404  0.2580 -0.3602  0.1548
  116OSM    HO312108   2.785   0.820   6.343  0.8416 -1.7359  1.3937
  116OSM    C4S12109   2.754   0.917   6.640 -0.0789 -0.4607 -0.4091
  116OSM    H4S12110   2.729   1.019   6.675  1.4389  0.1805 -1.0997
  116OSM    C5S12111   2.828   0.828   6.718  0.0918 -0.2402  0.7341
  116OSM    H5S12112   2.834   0.725   6.679 -1.5141  0.2466 -0.9245
  116OSM    C6S12113   2.881   0.851   6.857 -0.4007 -0.1778  0.2472
  116OSM    H6S12114   2.992   0.853   6.869 -0.3869  0.9357  0.0262
  116OSM    H6T12115   2.842   0.762   6.910 -1.7966 -0.9309 -1.9282
  116OSM    C7S12116   2.825   0.977   6.926  0.6081  0.4691  0.0474
  116OSM    H7S12117   2.714   0.977   6.920  0.5095 -1.0142  1.2472
  116OSM    H7T12118   2.869   1.066   6.876 -1.2159  1.0041 -0.6735
  116OSM    C8S12119   2.869   0.974   7.070  0.2733  0.9095  0.1454
  116OSM    H8S12120   2.978   0.961   7.085  0.1166 -0.3608  0.3211
  116OSM    H8T12121   2.837   0.876   7.111  0.8996  0.3065 -0.7673
  116OSM    C9S12122   2.821   1.083   7.160 -0.0807  0.0347  0.2693
  116OSM    H9S12123   2.711   1.081   7.147 -0.4984  1.4978  2.9183
  116OSM    H9T12124   2.871   1.174   7.120 -0.3718  0.2103  0.3037
  116OSM   C10S12125   2.861   1.061   7.303 -0.2082 -0.3370 -0.8943
  116OSM   H10S12126   2.971   1.051   7.315 -0.4509  0.3347  3.2768
  116OSM   H10T12127   2.826   0.964   7.345 -0.7602  0.7144  1.1726
  116OSM   C11S12128   2.819   1.176   7.397  0.5928 -0.7139  0.3299
  116OSM   H11S12129   2.710   1.170   7.416  0.4380  2.3732  0.8688
  116OSM   H11T12130   2.838   1.256   7.323  1.4908  1.6869  2.9535
  116OSM   C12S12131   2.892   1.181   7.527 -0.3132 -0.2647  0.6598
  116OSM   H12S12132   2.997   1.208   7.505 -0.6470  0.2884 -0.3058
  116OSM   H12T12133   2.884   1.087   7.586 -0.4335 -0.1918  0.7593
  116OSM   C13S12134   2.840   1.297   7.614  0.2939 -0.1263 -0.6786
  116OSM   H13S12135   2.732   1.317   7.602  0.6488  0.6180 -3.3903
  116OSM   H13T12136   2.892   1.389   7.579  0.5194 -0.1957 -0.5263
  116OSM   C14S12137   2.885   1.287   7.762  0.5905  0.0899  0.3126
  116OSM   H14S12138   2.859   1.382   7.814 -0.5193  0.0844 -0.1937
  116OSM   H14T12139   2.996   1.290   7.769  0.5072  0.5548  1.7460
  116OSM   C15S12140   2.817   1.178   7.839 -0.2257  0.1234  1.0038
  116OSM   H15S12141   2.879   1.089   7.815 -0.6073 -0.0696  0.7277
  116OSM   H15T12142   2.714   1.156   7.805 -0.0380 -2.1000  1.7014
  116OSM   C16S12143   2.792   1.197   7.990 -0.4706  0.1332 -0.1321
  116OSM   H16S12144   2.716   1.125   8.026 -1.2608  0.9422 -0.1473
  116OSM   H16T12145   2.757   1.301   8.004 -1.3964 -0.3490  1.4030
  116OSM   C17S12146   2.923   1.181   8.085 -0.5686  0.3215  0.0909
  116OSM   H17S12147   3.004   1.242   8.039  0.5740  0.5209  2.2447
  116OSM   H17T12148   2.936   1.072   8.066  0.1090  0.5495 -0.8307
  116OSM   C18S12149   2.907   1.226   8.227 -0.6242 -0.0689 -0.3677
  116OSM   H18S12150   2.912   1.337   8.232  0.8120 -0.1687  1.1066
  116OSM   H18T12151   2.994   1.196   8.290 -1.6421 -0.0724  1.0689
  116OSM   H18U12152   2.812   1.195   8.274 -2.2730 -0.0892 -3.4370
  116OSM    C1F12153   2.376   0.726   6.594  0.6278  0.2804 -0.2145
  116OSM     OF12154   2.372   0.616   6.541 -0.5545  0.0996  0.2694
  116OSM    C2F12155   2.256   0.775   6.679  0.0214  0.4051  0.5655
  116OSM    H2F12156   2.168   0.786   6.612  0.0486 -1.3100  0.2022
  116OSM    H2G12157   2.292   0.869   6.727 -1.8935  0.7245  1.4854
  116OSM    C3F12158   2.233   0.669   6.785 -0.0231 -0.7104  0.0003
  116OSM    H3F12159   2.205   0.567   6.753 -0.7567 -0.5560  0.1336
  116OSM    H3G12160   2.147   0.709   6.843 -0.5578 -2.2825  0.3442
  116OSM    C4F12161   2.351   0.633   6.882 -0.0816 -0.3725 -0.6602
  116OSM    H4F12162   2.430   0.566   6.842 -0.2126 -0.0416 -1.4998
  116OSM    H4G12163   2.295   0.572   6.955  0.0636 -1.2158 -1.2449
  116OSM    C5F12164   2.418   0.751   6.949  0.2728  0.1081  0.4577
  116OSM    H5F12165   2.352   0.824   7.002 -0.1669  0.1827 -0.1774
  116OSM    H5G12166   2.476   0.809   6.875  0.7649 -0.7977  0.1221
  116OSM    C6F12167   2.504   0.709   7.070  0.0592 -0.3260 -0.1349
  116OSM    H6F12168   2.602   0.685   7.025  0.3891  1.5036 -0.4732
  116OSM    H6G12169   2.452   0.618   7.106 -0.3325  0.3272  0.9973
  116OSM    C7F12170   2.530   0.808   7.182 -0.2854  0.6233  0.6838
  116OSM    H7F12171   2.443   0.842   7.241  0.0592 -0.2589  1.7368
  116OSM    H7G12172   2.589   0.887   7.131  0.3502 -1.4939 -2.0889
  116OSM    C8F12173   2.633   0.762   7.287 -0.9300 -0.2660  1.1854
  116OSM    H8F12174   2.664   0.846   7.352  1.5795  0.6684 -1.0262
  116OSM    H8G12175   2.724   0.734   7.229 -0.0121  0.6735  2.1219
  116OSM    C9F12176   2.579   0.650   7.370  0.3674  0.4056 -0.0411
  116OSM    H9F12177   2.594   0.551   7.326 -1.8267 -0.1244  0.2710
  116OSM   C10F12178   2.510   0.652   7.484  0.4635 -0.2864  0.3299
  116OSM   H10F12179   2.484   0.554   7.528 -2.7885 -0.1194 -0.9447
  116OSM   C11F12180   2.464   0.765   7.571  1.4826  0.0462 -0.1302
  116OSM   H11F12181   2.354   0.759   7.586  0.9616 -1.9794 -3.5458
  116OSM   H11G12182   2.479   0.864   7.524  1.0636 -0.1641 -0.7183
  116OSM   C12F12183   2.541   0.761   7.698 -0.8214  0.6085  0.1008
  116OSM   H12F12184   2.524   0.672   7.763 -1.6341 -1.5856 -2.8821
  116OSM   H12G12185   2.495   0.839   7.762  0.1870  0.8216  0.5872
  116OSM   C13F12186   2.698   0.778   7.687  0.1659  0.4732 -0.1772
  116OSM   H13F12187   2.727   0.865   7.624  0.2600 -0.4253 -1.4022
  116OSM   H13G12188   2.759   0.707   7.628  0.4711  1.3662 -0.9613
  116OSM   C14F12189   2.760   0.797   7.825 -0.5710  0.7088 -0.4445
  116OSM   H14F12190   2.698   0.870   7.882 -0.4982  0.5647 -0.1831
  116OSM   H14G12191   2.860   0.844   7.811 -0.0654  0.3838  1.6571
  116OSM   C15F12192   2.785   0.660   7.900  0.2409 -0.2523 -0.1065
  116OSM   H15F12193   2.817   0.575   7.837 -1.3374 -3.3560  2.9476
  116OSM   H15G12194   2.687   0.619   7.933  1.4527 -1.8230  1.7381
  116OSM   C16F12195   2.880   0.689   8.015 -0.2594 -0.6292  0.0571
  116OSM   H16F12196   2.973   0.730   7.972 -0.7672 -2.0486 -2.6237
  116OSM   H16G12197   2.913   0.594   8.062  0.7907 -0.3465 -0.1008
  116OSM   C17F12198   2.823   0.783   8.118  0.7770  0.5125 -0.3783
  116OSM   H17F12199   2.715   0.761   8.133  0.6857  2.5502  2.9300
  116OSM   H17G12200   2.835   0.886   8.078  1.3895  0.3519 -0.6211
  116OSM   C18F12201   2.897   0.755   8.254 -0.1251 -0.1165 -0.4366
  116OSM   H18F12202   2.875   0.652   8.290  1.4322 -0.6300 -0.8553
  116OSM   H18G12203   2.871   0.828   8.333  0.3072  0.6505 -0.9935
  116OSM   H18H12204   3.005   0.761   8.231  0.0680 -1.3232  0.0702
  117OSM      N12205   2.415   6.118   6.155  1.1149  0.3865 -0.5158
  117OSM    C1512206   2.343   6.015   6.079 -0.0092 -0.0755 -0.0345
  117OSM   H15A12207   2.242   5.997   6.113  0.1301 -1.1633 -0.1678
  117OSM   H15B12208   2.396   5.921   6.079 -0.4291 -0.3162 -0.2778
  117OSM   H15C12209   2.324   6.051   5.979 -0.5545 -3.8219 -1.4644
  117OSM    C1412210   2.535   6.151   6.075 -0.0028  0.6820  0.1170
  117OSM   H14A12211   2.600   6.223   6.123  0.0105  0.3060  0.6813
  117OSM   H14B12212   2.512   6.191   5.978 -0.0290 -1.0532 -0.6197
  117OSM   H14C12213   2.595   6.062   6.066  2.4775  2.4322 -2.3757
  117OSM    C1312214   2.332   6.243   6.171  0.8296  0.1128 -0.2324
  117OSM   H13A12215   2.383   6.314   6.234  1.5916 -1.2343  0.7382
  117OSM   H13B12216   2.236   6.225   6.217 -0.1108  2.3773 -1.1978
  117OSM   H13C12217   2.312   6.281   6.072 -0.8666  0.5767  0.2528
  117OSM    C1212218   2.461   6.072   6.293 -0.0685  0.1134  0.4619
  117OSM   H12A12219   2.532   5.991   6.293 -0.4184 -0.1987  0.3132
  117OSM   H12B12220   2.386   6.010   6.340 -0.2324 -0.0293  0.0212
  117OSM    C1112221   2.517   6.181   6.383  0.0412  0.0929  0.3803
  117OSM   H11A12222   2.529   6.137   6.485  0.1045 -1.3180 -0.2200
  117OSM   H11B12223   2.450   6.268   6.400 -0.7711 -0.3251 -0.5551
  117OSM      P12224   2.772   6.142   6.348 -0.0475 -0.0818  0.1508
  117OSM    O1312225   2.744   5.999   6.310  0.1650 -0.0651 -0.1890
  117OSM    O1412226   2.883   6.207   6.271  0.3260  0.2944  0.6741
  117OSM    O1112227   2.814   6.145   6.500 -0.0780 -0.0756 -0.0646
  117OSM    O1212228   2.637   6.234   6.329  0.0348  0.3202  0.0961
  117OSM    C1S12229   2.791   6.256   6.584 -0.1236  0.8033 -0.8871
  117OSM    H1S12230   2.682   6.279   6.585 -0.4262 -0.4866 -1.5045
  117OSM    H1T12231   2.848   6.339   6.538  0.6898  2.7590  3.1985
  117OSM     NF12232   2.784   6.355   6.812  0.4407  0.7104 -0.2620
  117OSM    HNF12233   2.864   6.404   6.845  3.9279 -3.3174 -1.8937
  117OSM    C2S12234   2.815   6.234   6.738 -0.1429 -0.2865  0.4874
  117OSM    H2S12235   2.738   6.165   6.778 -0.6459 -0.7411 -1.1617
  117OSM    C3S12236   2.968   6.185   6.758  0.6859  0.1966  0.4637
  117OSM    H3S12237   3.042   6.260   6.724  1.6941  0.0373  2.2344
  117OSM     O312238   2.997   6.072   6.684  0.1829  0.0972 -0.7436
  117OSM    HO312239   2.921   6.064   6.627 -1.9658 -0.9484  2.0593
  117OSM    C4S12240   2.993   6.164   6.903  0.0612  0.2284  0.3489
  117OSM    H4S12241   3.028   6.251   6.961  1.4482 -0.9005  1.2782
  117OSM    C5S12242   2.979   6.050   6.968 -0.6680  0.4674 -0.1900
  117OSM    H5S12243   2.961   5.963   6.903  1.4907 -1.4636  1.6372
  117OSM    C6S12244   3.009   6.023   7.111 -0.5622 -0.1705 -0.5410
  117OSM    H6S12245   3.108   5.973   7.115 -0.2705  0.4707  0.9592
  117OSM    H6T12246   2.939   5.953   7.161 -0.1604 -0.9005 -0.9867
  117OSM    C7S12247   3.024   6.153   7.198 -0.3265  0.1305 -0.0638
  117OSM    H7S12248   2.944   6.227   7.178 -1.3618 -0.7288  0.8140
  117OSM    H7T12249   3.122   6.197   7.169 -0.4667  0.7744  0.4199
  117OSM    C8S12250   3.042   6.129   7.350  0.3726  0.0025 -0.4347
  117OSM    H8S12251   3.115   6.205   7.384  1.1537 -0.6107 -0.7166
  117OSM    H8T12252   3.087   6.029   7.367 -0.0483 -0.0215  0.6342
  117OSM    C9S12253   2.903   6.143   7.407 -0.1079 -0.1158  0.6057
  117OSM    H9S12254   2.828   6.080   7.354 -1.5259  0.5041  1.7911
  117OSM    H9T12255   2.879   6.251   7.400  1.7999  0.3558  0.8046
  117OSM   C10S12256   2.886   6.111   7.555  0.3681  1.0278  0.0550
  117OSM   H10S12257   2.897   6.000   7.547 -0.8990  0.8496  0.5730
  117OSM   H10T12258   2.780   6.117   7.586  1.0054  0.0760  2.6125
  117OSM   C11S12259   2.988   6.170   7.646  0.3687  0.1211  0.6775
  117OSM   H11S12260   2.974   6.280   7.636 -2.6466 -0.2460 -0.4061
  117OSM   H11T12261   3.090   6.144   7.612 -0.0311 -1.1463  0.3871
  117OSM   C12S12262   2.982   6.133   7.803 -0.0569  0.3491 -0.3768
  117OSM   H12S12263   2.879   6.153   7.839 -0.3245  0.0434 -0.9540
  117OSM   H12T12264   3.046   6.208   7.854 -0.2565 -0.5555  1.2776
  117OSM   C13S12265   3.012   5.977   7.821 -0.0407  0.3394  0.1658
  117OSM   H13S12266   3.111   5.965   7.772 -0.0286  1.7556 -0.2216
  117OSM   H13T12267   2.930   5.915   7.780  0.1052 -0.0645  0.4846
  117OSM   C14S12268   3.032   5.938   7.963  0.3900  0.3369 -0.8724
  117OSM   H14S12269   2.939   5.956   8.022 -0.4797 -1.8649 -1.4843
  117OSM   H14T12270   3.109   6.008   8.002  0.5750  0.4376 -1.4099
  117OSM   C15S12271   3.074   5.788   7.967  0.0708 -0.1919 -0.1473
  117OSM   H15S12272   3.164   5.765   7.907  0.3378 -3.1924  1.2014
  117OSM   H15T12273   2.990   5.725   7.930  0.3475 -0.0336 -1.0600
  117OSM   C16S12274   3.091   5.734   8.108 -0.6394 -0.2592  0.8095
  117OSM   H16S12275   2.994   5.694   8.144 -0.9947 -1.4245 -1.2761
  117OSM   H16T12276   3.111   5.818   8.179 -2.4871  1.4213 -0.5235
  117OSM   C17S12277   3.186   5.613   8.120 -0.1541  0.2878 -0.9032
  117OSM   H17S12278   3.276   5.623   8.056 -0.9766  0.9057 -1.9724
  117OSM   H17T12279   3.139   5.515   8.096  2.7624 -0.8584 -2.3989
  117OSM   C18S12280   3.234   5.601   8.269 -0.0586 -0.5541 -0.6430
  117OSM   H18S12281   3.159   5.590   8.350  0.4733 -1.0454 -0.2088
  117OSM   H18T12282   3.303   5.684   8.297 -0.6738  0.3889 -1.8214
  117OSM   H18U12283   3.304   5.514   8.269 -0.3858 -0.9152  2.5437
  117OSM    C1F12284   2.659   6.407   6.811 -0.5792  0.5110  0.5402
  117OSM     OF12285   2.558   6.344   6.772 -0.1319  0.7426 -0.2469
  117OSM    C2F12286   2.651   6.546   6.870 -0.0701  0.0706 -0.2740
  117OSM    H2F12287   2.543   6.569   6.868  0.0808  0.8033 -1.8946
  117OSM    H2G12288   2.699   6.628   6.813 -0.8121  0.0502 -0.9453
  117OSM    C3F12289   2.696   6.551   7.014 -0.5927 -0.3964 -0.1018
  117OSM    H3F12290   2.724   6.655   7.042  0.6952  0.1268 -2.9487
  117OSM    H3G12291   2.773   6.472   7.027  0.0859 -0.1592 -2.2857
  117OSM    C4F12292   2.576   6.520   7.114 -0.3533 -0.1568 -0.4056
  117OSM    H4F12293   2.525   6.424   7.089 -1.7511  0.4408  0.0099
  117OSM    H4G12294   2.492   6.592   7.104 -1.7530 -1.9899 -4.2182
  117OSM    C5F12295   2.627   6.504   7.259 -0.2126  0.0919 -0.0871
  117OSM    H5F12296   2.673   6.403   7.271 -1.3159 -0.3198  0.7810
  117OSM    H5G12297   2.530   6.512   7.312 -1.0163 -1.0189 -1.3133
  117OSM    C6F12298   2.728   6.613   7.310  0.2477 -0.1627  0.7039
  117OSM    H6F12299   2.671   6.706   7.329 -1.3412 -1.2828  1.6881
  117OSM    H6G12300   2.816   6.622   7.242  0.4861  0.6714  1.1081
  117OSM    C7F12301   2.801   6.584   7.442  0.2189  0.0743  0.3438
  117OSM    H7F12302   2.885   6.514   7.426  1.9359  1.8221  1.3252
  117OSM    H7G12303   2.728   6.534   7.510  1.9156 -2.8582  0.1582
  117OSM    C8F12304   2.852   6.708   7.517  0.3180 -0.7817 -0.1111
  117OSM    H8F12305   2.772   6.742   7.585  0.0377 -1.1400 -0.2571
  117OSM    H8G12306   2.872   6.787   7.442 -0.7449 -0.1950  0.2141
  117OSM    C9F12307   2.991   6.684   7.575 -0.0065 -0.8726  0.7530
  117OSM    H9F12308   3.069   6.741   7.522 -1.6290 -0.3471 -1.1703
  117OSM   C10F12309   3.023   6.625   7.690 -0.3144  0.5659 -1.1062
  117OSM   H10F12310   3.126   6.614   7.727 -0.8905 -2.7915 -0.1634
  117OSM   C11F12311   2.916   6.565   7.779  0.3275 -0.4250 -0.1817
  117OSM   H11F12312   2.855   6.479   7.741 -0.4042 -1.1403  2.3921
  117OSM   H11G12313   2.835   6.640   7.790  1.6887  1.1459 -0.5962
  117OSM   C12F12314   2.931   6.542   7.940 -0.4277  0.0752  0.5701
  117OSM   H12F12315   2.984   6.445   7.949  1.1633  0.9075  0.5737
  117OSM   H12G12316   2.828   6.532   7.980 -0.3975 -0.7149  0.4628
  117OSM   C13F12317   3.004   6.658   8.007  0.1841  0.3092  0.4535
  117OSM   H13F12318   2.961   6.756   7.979 -0.8413 -0.3225 -0.2584
  117OSM   H13G12319   3.110   6.666   7.972  0.7259 -0.3905  1.8480
  117OSM   C14F12320   3.009   6.635   8.161  0.0721  0.3247  0.6332
  117OSM   H14F12321   3.080   6.553   8.185  1.4522  1.0677 -0.8011
  117OSM   H14G12322   2.911   6.605   8.206 -0.2480  1.5189  0.7681
  117OSM   C15F12323   3.055   6.751   8.246 -0.2974 -0.3350  0.0975
  117OSM   H15F12324   2.984   6.836   8.235 -2.0730 -1.7444  0.2649
  117OSM   H15G12325   3.151   6.787   8.204 -1.0635  0.0429 -1.4259
  117OSM   C16F12326   3.074   6.716   8.396  0.4161  0.1408 -0.6075
  117OSM   H16F12327   3.148   6.639   8.426 -3.0704 -3.1471  0.3792
  117OSM   H16G12328   2.978   6.677   8.437 -0.0404  2.6239  0.9391
  117OSM   C17F12329   3.109   6.846   8.475 -0.8454 -0.6385 -0.8908
  117OSM   H17F12330   3.060   6.936   8.431 -0.4279 -0.9553 -2.0332
  117OSM   H17G12331   3.088   6.836   8.584 -2.9539 -2.6084 -1.4112
  117OSM   C18F12332   3.262   6.862   8.474  0.1888  0.5362  0.4087
  117OSM   H18F12333   3.306   6.884   8.375 -2.5564  1.1394 -0.7749
  117OSM   H18G12334   3.308   6.768   8.509 -0.9209 -0.7554 -1.4372
  117OSM   H18H12335   3.304   6.942   8.540  1.9548  1.1737 -1.4003
  118OSM      N12336   6.133   1.255   6.149  0.3167  0.0496 -0.2744
  118OSM    C1512337   6.195   1.171   6.252 -0.2536  0.5802  0.1372
  118OSM   H15A12338   6.269   1.109   6.203  0.6327 -0.6635  2.8198
  118OSM   H15B12339   6.117   1.117   6.303 -1.5152  1.3324 -0.9249
  118OSM   H15C12340   6.248   1.232   6.325 -0.5088 -0.5675  1.3060
  118OSM    C1412341   6.222   1.363   6.104 -0.0494  0.0763  0.4926
  118OSM   H14A12342   6.251   1.428   6.186  2.3772 -1.2191  0.7587
  118OSM   H14B12343   6.177   1.430   6.033 -0.6655 -0.3310  0.4858
  118OSM   H14C12344   6.311   1.320   6.063 -0.2520 -0.6912  0.8266
  118OSM    C1312345   6.088   1.171   6.027 -0.1231  0.1994 -0.9310
  118OSM   H13A12346   6.024   1.090   6.057 -0.4022  0.7411 -0.0175
  118OSM   H13B12347   6.179   1.137   5.981  1.1060 -1.1745  2.2515
  118OSM   H13C12348   6.031   1.235   5.961 -0.8038 -1.4745 -2.0493
  118OSM    C1212349   6.011   1.324   6.206  0.1371  0.3987 -0.2735
  118OSM   H12A12350   5.956   1.376   6.128 -1.6991  0.8966  1.2718
  118OSM   H12B12351   6.045   1.404   6.269 -0.0343 -0.9502  1.6095
  118OSM    C1112352   5.895   1.241   6.275  0.5954  0.2174  0.3727
  118OSM   H11A12353   5.813   1.315   6.291  0.4567 -0.1798  1.5808
  118OSM   H11B12354   5.921   1.208   6.378 -0.7543 -1.1872  0.2929
  118OSM      P12355   5.870   0.979   6.257 -0.1124 -0.0943 -0.3011
  118OSM    O1312356   5.877   0.896   6.138  0.2818  0.3139 -0.1973
  118OSM    O1412357   5.984   0.970   6.352  0.1366  0.0990  0.6021
  118OSM    O1112358   5.736   0.946   6.338  0.1624 -0.0927  0.0542
  118OSM    O1212359   5.838   1.127   6.200 -0.0341 -0.0115  0.2409
  118OSM    C1S12360   5.726   0.863   6.455 -0.1907 -0.3286 -0.6145
  118OSM    H1S12361   5.792   0.774   6.445  1.4097  0.6187  0.8900
  118OSM    H1T12362   5.622   0.826   6.451 -0.2554 -0.1190 -0.8919
  118OSM     NF12363   5.777   0.835   6.696 -0.1070 -0.5804 -0.4101
  118OSM    HNF12364   5.689   0.810   6.735 -0.5105  0.5287 -0.5956
  118OSM    C2S12365   5.776   0.933   6.590 -0.3275  0.1405  0.7381
  118OSM    H2S12366   5.881   0.960   6.563 -0.6781  1.5391  0.7269
  118OSM    C3S12367   5.703   1.068   6.617 -0.4387  0.4667  0.6198
  118OSM    H3S12368   5.596   1.038   6.626  0.3001 -3.1583 -0.8268
  118OSM     O312369   5.703   1.163   6.508 -0.1513  0.6053 -0.9448
  118OSM    HO312370   5.709   1.118   6.423 -2.4601 -0.1302 -0.7860
  118OSM    C4S12371   5.757   1.139   6.736 -0.2887  0.9653  0.0234
  118OSM    H4S12372   5.861   1.174   6.727 -0.3990  1.3688  0.2836
  118OSM    C5S12373   5.682   1.161   6.846 -0.8805  0.1334 -0.1698
  118OSM    H5S12374   5.579   1.124   6.846 -0.3507 -1.4523 -0.4840
  118OSM    C6S12375   5.732   1.242   6.971  0.9349  0.3650  0.1526
  118OSM    H6S12376   5.831   1.291   6.957  1.0994  1.8680  4.7512
  118OSM    H6T12377   5.749   1.168   7.052 -0.0657  0.5929  0.5885
  118OSM    C7S12378   5.626   1.341   7.027 -0.2467 -0.5539  0.5947
  118OSM    H7S12379   5.531   1.293   7.060 -0.7241  1.8401  3.1480
  118OSM    H7T12380   5.615   1.418   6.947  1.0551  0.7615  1.6266
  118OSM    C8S12381   5.677   1.411   7.147  0.1166 -0.8016 -0.0512
  118OSM    H8S12382   5.621   1.507   7.154  1.1290 -0.2619  1.0825
  118OSM    H8T12383   5.783   1.435   7.123  0.0892  1.4318  1.6755
  118OSM    C9S12384   5.667   1.334   7.276 -0.0606 -0.0455 -0.4331
  118OSM    H9S12385   5.718   1.236   7.268 -1.6509 -1.2606  2.6259
  118OSM    H9T12386   5.562   1.309   7.302 -0.6957  3.2614  0.7180
  118OSM   C10S12387   5.725   1.410   7.389 -0.3202 -0.5587 -0.4073
  118OSM   H10S12388   5.693   1.516   7.391  1.4075  0.0221 -1.0123
  118OSM   H10T12389   5.833   1.418   7.362  0.2154 -3.9257  0.2979
  118OSM   C11S12390   5.721   1.338   7.522 -0.2953 -0.3240  0.5828
  118OSM   H11S12391   5.770   1.239   7.510 -1.2106 -1.3834  4.1502
  118OSM   H11T12392   5.619   1.308   7.553 -0.2185  0.5455  1.7454
  118OSM   C12S12393   5.783   1.430   7.635  0.7833  0.3082  0.1626
  118OSM   H12S12394   5.724   1.524   7.646  1.1726  0.6186 -0.4171
  118OSM   H12T12395   5.887   1.450   7.604  0.6386 -0.3220 -0.7496
  118OSM   C13S12396   5.762   1.372   7.777  0.4372 -0.2959  0.1320
  118OSM   H13S12397   5.789   1.265   7.777  0.2590 -0.3403 -0.1352
  118OSM   H13T12398   5.652   1.386   7.790  0.4701  0.6512 -0.4870
  118OSM   C14S12399   5.836   1.463   7.867 -0.4155  0.3098 -0.0840
  118OSM   H14S12400   5.813   1.569   7.842 -0.0981  0.1689 -1.0305
  118OSM   H14T12401   5.944   1.443   7.855 -0.7592 -0.8920 -1.4583
  118OSM   C15S12402   5.779   1.459   8.013 -0.0592  0.4117 -0.1098
  118OSM   H15S12403   5.865   1.491   8.076 -2.1595  1.1124  2.5887
  118OSM   H15T12404   5.760   1.351   8.029 -0.1214  0.1891 -1.5636
  118OSM   C16S12405   5.655   1.545   8.047 -0.0552 -0.2710  0.4610
  118OSM   H16S12406   5.570   1.513   7.983 -0.6088  1.1078  0.4590
  118OSM   H16T12407   5.687   1.650   8.033  0.8202 -0.8184 -2.1657
  118OSM   C17S12408   5.616   1.516   8.194 -0.1834  0.6043 -0.1374
  118OSM   H17S12409   5.715   1.513   8.245  0.5362 -0.1680 -1.5088
  118OSM   H17T12410   5.568   1.416   8.194 -0.1659  0.5904  0.3699
  118OSM   C18S12411   5.518   1.618   8.261  0.7704  0.8358  0.0740
  118OSM   H18S12412   5.421   1.634   8.208  0.0043 -1.5622  0.6302
  118OSM   H18T12413   5.569   1.716   8.256  1.4013  0.5101  0.0805
  118OSM   H18U12414   5.492   1.578   8.362  0.7261  0.1538 -0.1996
  118OSM    C1F12415   5.879   0.753   6.700 -0.4361  0.1063  0.0645
  118OSM     OF12416   5.987   0.776   6.656 -0.5815  0.0826  0.3464
  118OSM    C2F12417   5.850   0.627   6.776 -0.2572  0.0614  0.1136
  118OSM    H2F12418   5.747   0.592   6.756  0.0483 -1.4659  1.0597
  118OSM    H2G12419   5.846   0.665   6.880  0.8288  3.0176 -0.8358
  118OSM    C3F12420   5.952   0.520   6.749  0.4675  0.0513 -0.3035
  118OSM    H3F12421   6.055   0.562   6.745  0.7535 -0.3301  1.9627
  118OSM    H3G12422   5.925   0.470   6.653 -0.9668  0.1902  0.0043
  118OSM    C4F12423   5.958   0.404   6.849 -0.0107  0.3783 -0.2187
  118OSM    H4F12424   6.034   0.326   6.825 -0.3463 -0.6050  1.7153
  118OSM    H4G12425   5.859   0.353   6.850  0.0562  0.2513 -0.0017
  118OSM    C5F12426   6.000   0.457   6.993 -0.0632 -0.6205 -0.2789
  118OSM    H5F12427   5.985   0.372   7.063  0.7186 -1.5251 -1.1764
  118OSM    H5G12428   5.942   0.549   7.015  0.0749  0.2351 -3.1101
  118OSM    C6F12429   6.147   0.505   6.991 -0.4725 -0.1285 -0.2546
  118OSM    H6F12430   6.147   0.597   6.927  1.8548  1.5730  2.0008
  118OSM    H6G12431   6.224   0.434   6.954 -0.8898 -0.5062 -0.4056
  118OSM    C7F12432   6.191   0.552   7.134 -0.4813  0.3016  0.3956
  118OSM    H7F12433   6.111   0.619   7.171  1.4582  1.7075  2.3023
  118OSM    H7G12434   6.283   0.614   7.126 -1.2182  1.6673  1.9714
  118OSM    C8F12435   6.219   0.428   7.229  0.2852 -0.0850  0.0861
  118OSM    H8F12436   6.302   0.364   7.192  1.5838  0.8202  1.2879
  118OSM    H8G12437   6.130   0.370   7.258  0.5647 -0.8921 -0.6390
  118OSM    C9F12438   6.280   0.493   7.356  0.6242 -0.1527 -0.4017
  118OSM    H9F12439   6.389   0.488   7.364  0.6053 -0.9081 -0.5969
  118OSM   C10F12440   6.213   0.560   7.451  0.2425  0.5673 -0.3065
  118OSM   H10F12441   6.281   0.584   7.535 -0.6519 -0.0956  0.6256
  118OSM   C11F12442   6.068   0.589   7.467  0.1805 -0.1985 -0.2011
  118OSM   H11F12443   6.016   0.554   7.375 -4.0439  1.8423  1.1800
  118OSM   H11G12444   6.043   0.698   7.467 -1.8222 -0.6118  0.7148
  118OSM   C12F12445   5.996   0.534   7.592 -0.1868  0.4199  0.7870
  118OSM   H12F12446   6.006   0.424   7.591 -2.9015  0.0135 -2.6512
  118OSM   H12G12447   5.888   0.558   7.581 -0.3923 -1.3315 -1.8173
  118OSM   C13F12448   6.051   0.576   7.726  0.1562 -0.4979  0.5582
  118OSM   H13F12449   6.038   0.686   7.731  2.5993 -0.1948  1.5291
  118OSM   H13G12450   6.159   0.554   7.744  0.1766 -0.7120  0.1756
  118OSM   C14F12451   5.989   0.506   7.847  0.3809 -0.3239  0.1103
  118OSM   H14F12452   6.002   0.396   7.836 -0.8380 -0.2586 -2.5908
  118OSM   H14G12453   5.881   0.524   7.832  0.7784 -0.0811 -3.0270
  118OSM   C15F12454   6.048   0.546   7.983  0.0425  0.2506 -1.1248
  118OSM   H15F12455   6.052   0.656   8.001  0.6390 -0.0727  0.9243
  118OSM   H15G12456   6.151   0.510   8.001  0.1844  1.2535  0.2791
  118OSM   C16F12457   5.966   0.483   8.099  0.0024  0.5951  0.0318
  118OSM   H16F12458   5.968   0.374   8.082 -2.1162  0.5813 -0.3438
  118OSM   H16G12459   5.860   0.513   8.090  0.1485  0.4626 -3.5325
  118OSM   C17F12460   6.007   0.533   8.233 -0.3601 -0.4149 -0.1022
  118OSM   H17F12461   5.920   0.521   8.301 -0.1635  3.2812  1.0178
  118OSM   H17G12462   6.029   0.642   8.240 -1.2462 -0.1445 -1.2395
  118OSM   C18F12463   6.120   0.448   8.298  0.4023 -0.5639  0.0407
  118OSM   H18F12464   6.096   0.340   8.294 -2.3191 -0.1003  1.6211
  118OSM   H18G12465   6.121   0.471   8.407 -0.3483  4.9832 -0.7815
  118OSM   H18H12466   6.218   0.467   8.249  0.1536 -0.1247 -0.2985
  119OSM      N12467   4.950   2.272   5.656  0.4340 -0.1898  0.2114
  119OSM    C1512468   5.062   2.368   5.630 -0.1059  0.2851  0.0742
  119OSM   H15A12469   5.110   2.360   5.533  3.0188 -1.8509  1.6402
  119OSM   H15B12470   5.146   2.350   5.695  1.1054 -0.2735 -1.5567
  119OSM   H15C12471   5.030   2.470   5.645  0.9523  0.7127 -0.4323
  119OSM    C1412472   4.832   2.326   5.580 -0.3108 -0.2925  0.4871
  119OSM   H14A12473   4.820   2.432   5.600 -1.2481  0.2173 -2.3892
  119OSM   H14B12474   4.737   2.284   5.610 -0.1203 -1.3022 -0.3035
  119OSM   H14C12475   4.831   2.306   5.474  1.7042 -2.3352  0.7781
  119OSM    C1312476   4.993   2.134   5.615  0.4484  0.6129 -0.1525
  119OSM   H13A12477   4.911   2.064   5.615 -1.1562  2.3747  1.6151
  119OSM   H13B12478   5.066   2.098   5.686 -1.8433 -1.6063  1.2684
  119OSM   H13C12479   5.031   2.123   5.515 -1.8488 -3.3935 -0.7809
  119OSM    C1212480   4.916   2.280   5.798 -0.3217 -0.0954 -0.7565
  119OSM   H12A12481   4.851   2.200   5.830 -0.2125 -0.5467 -1.6233
  119OSM   H12B12482   4.846   2.361   5.806 -0.6434 -0.3830 -0.6438
  119OSM    C1112483   5.039   2.289   5.900  0.7161  0.2954  0.0632
  119OSM   H11A12484   4.990   2.292   6.000 -1.1929  0.3191 -0.8284
  119OSM   H11B12485   5.094   2.382   5.873  2.0617 -0.6364 -0.5147
  119OSM      P12486   5.101   2.033   5.953  0.2123  0.0678 -0.5963
  119OSM    O1312487   4.966   1.994   5.906 -0.1833  0.2184  0.1319
  119OSM    O1412488   5.212   1.939   5.925  0.0408  0.2929 -0.0738
  119OSM    O1112489   5.089   2.066   6.106  0.3204 -0.6714 -0.2615
  119OSM    O1212490   5.134   2.178   5.894 -0.2237 -0.4611 -0.4401
  119OSM    C1S12491   5.202   2.113   6.183 -0.1303  0.0296  0.2260
  119OSM    H1S12492   5.237   2.214   6.154 -0.4335  0.8808  2.6024
  119OSM    H1T12493   5.284   2.039   6.176  2.2200  2.5670 -0.7949
  119OSM     NF12494   5.321   2.144   6.388 -0.0599  0.9193  0.0782
  119OSM    HNF12495   5.356   2.064   6.437 -1.8138  0.6721  1.0011
  119OSM    C2S12496   5.187   2.128   6.337 -0.5022  0.0570 -0.1231
  119OSM    H2S12497   5.131   2.223   6.350  2.9242  2.3696 -0.9056
  119OSM    C3S12498   5.094   2.006   6.389 -0.4758 -0.2916 -0.8287
  119OSM    H3S12499   5.154   1.913   6.374  0.5725  0.4750 -1.5213
  119OSM     O312500   4.966   1.998   6.323 -0.3268  0.4435  0.2310
  119OSM    HO312501   4.966   2.048   6.240  0.2723 -2.1089 -1.4207
  119OSM    C4S12502   5.086   2.004   6.536  0.3250  0.1820  0.0954
  119OSM    H4S12503   5.184   1.975   6.576 -0.1698 -1.6581  0.0540
  119OSM    C5S12504   4.976   2.023   6.620 -0.3841 -0.2184 -0.3535
  119OSM    H5S12505   4.879   2.049   6.574 -0.9354 -2.2480 -0.4304
  119OSM    C6S12506   4.998   2.023   6.773 -0.1199 -0.3798 -0.5503
  119OSM    H6S12507   4.945   1.937   6.819  0.5482  0.4173  1.8884
  119OSM    H6T12508   4.936   2.104   6.817  1.4130  0.2573  0.5465
  119OSM    C7S12509   5.142   2.037   6.829 -0.3337 -0.0951  0.6358
  119OSM    H7S12510   5.208   2.096   6.761  0.8583 -1.8139  0.2411
  119OSM    H7T12511   5.183   1.935   6.842 -0.2352  0.1202  2.2823
  119OSM    C8S12512   5.146   2.082   6.975 -0.6456  0.0251  0.4029
  119OSM    H8S12513   5.109   2.186   6.983 -0.0466  0.3452 -0.7933
  119OSM    H8T12514   5.251   2.092   7.011 -0.4912  2.4090 -0.5536
  119OSM    C9S12515   5.068   1.976   7.068  0.1639 -0.0428  0.4019
  119OSM    H9S12516   5.112   1.874   7.062 -0.4211 -0.3238  0.8085
  119OSM    H9T12517   4.966   1.954   7.029  0.5571 -0.4538 -0.4105
  119OSM   C10S12518   5.078   2.007   7.221  0.2216  0.1841  0.2054
  119OSM   H10S12519   5.053   2.114   7.237  0.3856  0.1042  1.0463
  119OSM   H10T12520   5.184   1.983   7.243  0.0192  0.2106  1.2601
  119OSM   C11S12521   4.996   1.919   7.319  0.2456 -0.2871 -0.1658
  119OSM   H11S12522   5.024   1.814   7.295  1.9165  0.2980 -0.9100
  119OSM   H11T12523   4.887   1.939   7.307  0.4026  2.4763  2.0765
  119OSM   C12S12524   5.023   1.966   7.468 -0.3041  0.0878  0.5755
  119OSM   H12S12525   5.054   2.073   7.463  1.2551 -0.3355  0.4713
  119OSM   H12T12526   5.115   1.912   7.501 -0.0040 -1.6421 -2.6921
  119OSM   C13S12527   4.897   1.964   7.560 -0.4205 -0.6062 -0.0446
  119OSM   H13S12528   4.825   2.043   7.531  1.1761  0.9570  0.0379
  119OSM   H13T12529   4.939   1.987   7.661  0.5331  0.2282 -0.6140
  119OSM   C14S12530   4.834   1.830   7.561 -0.6996 -0.3493  0.9799
  119OSM   H14S12531   4.916   1.766   7.602  0.6655  0.8925  0.2995
  119OSM   H14T12532   4.817   1.802   7.454 -2.0457  3.5610  0.0284
  119OSM   C15S12533   4.704   1.808   7.638  0.1799 -0.2804 -0.2973
  119OSM   H15S12534   4.676   1.701   7.636 -1.3076  0.0968 -0.3980
  119OSM   H15T12535   4.614   1.854   7.593 -0.2344  0.1035  0.8903
  119OSM   C16S12536   4.730   1.858   7.783  0.6859 -0.0838 -0.5343
  119OSM   H16S12537   4.745   1.968   7.783  0.6518  0.0069  2.3733
  119OSM   H16T12538   4.829   1.816   7.814  0.8494  0.6081 -0.1009
  119OSM   C17S12539   4.610   1.827   7.878 -0.7097 -0.1954 -0.1208
  119OSM   H17S12540   4.600   1.717   7.887 -0.1887 -0.2273  0.1236
  119OSM   H17T12541   4.523   1.866   7.821  0.9577  1.6927 -1.5411
  119OSM   C18S12542   4.633   1.894   8.014  0.1511  0.1156  0.0798
  119OSM   H18S12543   4.637   2.004   7.997 -1.8579  0.2249  0.0999
  119OSM   H18T12544   4.733   1.869   8.055 -0.5942 -1.6056  0.9288
  119OSM   H18U12545   4.547   1.864   8.077 -0.1274 -0.5619 -0.6022
  119OSM    C1F12546   5.397   2.252   6.382 -0.3669  0.3911 -0.7125
  119OSM     OF12547   5.346   2.358   6.345  0.8122 -0.3368  0.0795
  119OSM    C2F12548   5.532   2.241   6.440 -0.0591 -0.3586 -0.3937
  119OSM    H2F12549   5.576   2.153   6.388  1.0293  1.9229 -3.7074
  119OSM    H2G12550   5.523   2.208   6.545 -1.4144 -3.3399 -1.3241
  119OSM    C3F12551   5.629   2.366   6.424 -0.1935 -0.3621 -0.3668
  119OSM    H3F12552   5.576   2.457   6.459  0.2783  0.9547 -2.8423
  119OSM    H3G12553   5.638   2.386   6.315  0.0813 -0.8656 -0.4424
  119OSM    C4F12554   5.771   2.358   6.491  0.5459 -0.7846 -0.2196
  119OSM    H4F12555   5.834   2.443   6.456 -0.1482 -1.4201 -3.3435
  119OSM    H4G12556   5.829   2.273   6.449  1.5739 -0.1198 -0.1706
  119OSM    C5F12557   5.772   2.350   6.645  0.1276 -0.3912 -0.6259
  119OSM    H5F12558   5.690   2.290   6.690  0.6630 -1.7469 -1.3814
  119OSM    H5G12559   5.758   2.451   6.687 -2.4327 -1.5001  1.4344
  119OSM    C6F12560   5.908   2.292   6.703  0.1858  0.7166  0.9536
  119OSM    H6F12561   5.997   2.337   6.653  1.6593 -4.1565 -1.5152
  119OSM    H6G12562   5.932   2.185   6.683 -1.3951  0.3225  1.0699
  119OSM    C7F12563   5.912   2.313   6.859 -0.4911  0.1975  0.0383
  119OSM    H7F12564   5.820   2.262   6.895 -1.1912 -0.9980 -3.0742
  119OSM    H7G12565   5.903   2.422   6.878 -0.6642 -0.1934  2.5299
  119OSM    C8F12566   6.033   2.248   6.924 -0.4505  0.5025  0.1007
  119OSM    H8F12567   6.058   2.284   7.026  0.8127  2.7971 -0.9486
  119OSM    H8G12568   6.124   2.271   6.864  1.8037 -0.1660  3.0096
  119OSM    C9F12569   6.033   2.095   6.933 -0.8907 -0.7017  1.3246
  119OSM    H9F12570   6.037   2.050   6.833 -1.3439 -0.7870  1.3426
  119OSM   C10F12571   6.045   2.008   7.038  0.3926  0.3210 -0.3724
  119OSM   H10F12572   6.051   1.899   7.024 -0.1075  0.3947 -1.2050
  119OSM   C11F12573   6.055   2.058   7.188 -0.4572 -0.4018 -0.0190
  119OSM   H11F12574   6.038   2.167   7.195 -1.6392 -0.6741  1.9948
  119OSM   H11G12575   6.159   2.036   7.219 -0.2067 -0.3026 -0.7623
  119OSM   C12F12576   5.946   2.001   7.273  0.1876  0.0734 -0.2164
  119OSM   H12F12577   5.944   1.890   7.280  0.8236  0.1355  1.5147
  119OSM   H12G12578   5.850   2.030   7.225  1.0261  1.3981 -1.1589
  119OSM   C13F12579   5.965   2.055   7.417  0.2351 -0.5530 -0.6572
  119OSM   H13F12580   5.953   2.166   7.414 -0.3299 -0.5954 -0.0060
  119OSM   H13G12581   6.070   2.026   7.440  0.7565 -0.4919 -2.7686
  119OSM   C14F12582   5.866   2.000   7.520 -0.5096  0.2513 -0.1475
  119OSM   H14F12583   5.861   1.889   7.511  0.3079  0.2205 -0.3193
  119OSM   H14G12584   5.764   2.029   7.486 -1.0437  0.2147  1.3603
  119OSM   C15F12585   5.895   2.047   7.659 -0.6792 -0.0845 -0.4838
  119OSM   H15F12586   5.930   2.150   7.634 -0.7750  0.3193  0.9514
  119OSM   H15G12587   5.979   1.998   7.712 -0.5199  1.6632  0.9909
  119OSM   C16F12588   5.764   2.049   7.748 -0.1240  0.0726  0.6525
  119OSM   H16F12589   5.689   2.093   7.679  1.5646  0.1216 -1.2723
  119OSM   H16G12590   5.775   2.118   7.834 -3.2023  0.5760  0.7400
  119OSM   C17F12591   5.714   1.911   7.803  0.4045  0.4694 -0.1003
  119OSM   H17F12592   5.647   1.926   7.890  1.1111 -1.3455  0.8152
  119OSM   H17G12593   5.801   1.849   7.836  1.5611  1.5928 -0.9479
  119OSM   C18F12594   5.629   1.836   7.705 -0.2143  0.5450 -0.4121
  119OSM   H18F12595   5.549   1.897   7.658  1.4057  2.2767 -1.0601
  119OSM   H18G12596   5.591   1.742   7.751 -0.2237 -0.4711 -2.3767
  119OSM   H18H12597   5.690   1.801   7.619 -0.4694  1.7554 -1.1189
  120OSM      N12598   1.169   2.392   6.314 -0.3808 -0.2661  0.2529
  120OSM    C1512599   1.118   2.516   6.241  0.3140 -0.3075 -0.1287
  120OSM   H15A12600   1.117   2.602   6.306 -0.8872 -0.8638  0.6317
  120OSM   H15B12601   1.023   2.517   6.190  1.1402  0.9880 -1.7035
  120OSM   H15C12602   1.188   2.542   6.164 -0.8145  1.1555 -0.7023
  120OSM    C1412603   1.318   2.416   6.334 -0.0002 -0.7099 -0.1677
  120OSM   H14A12604   1.360   2.344   6.403 -0.0315  0.1025  0.7322
  120OSM   H14B12605   1.324   2.512   6.385 -0.1086 -0.1670 -1.1459
  120OSM   H14C12606   1.371   2.422   6.240 -1.7838  0.8974 -1.1324
  120OSM    C1312607   1.102   2.387   6.451 -0.5628  1.1714  0.5441
  120OSM   H13A12608   1.106   2.477   6.510  0.8310  3.3124 -2.5518
  120OSM   H13B12609   1.138   2.308   6.515 -0.7234  2.3055  2.0854
  120OSM   H13C12610   1.003   2.349   6.431 -0.3512  0.9644 -0.1358
  120OSM    C1212611   1.153   2.264   6.226  0.5220 -0.5163 -0.5943
  120OSM   H12A12612   1.194   2.176   6.271 -0.5811 -0.1522  1.2667
  120OSM   H12B12613   1.218   2.285   6.143  0.9137  2.2190  0.2818
  120OSM    C1112614   1.016   2.208   6.180 -0.4993 -0.5425  0.2882
  120OSM   H11A12615   1.046   2.115   6.127  2.6768  0.4300  0.1586
  120OSM   H11B12616   0.965   2.275   6.108  2.8386  1.6455 -0.2499
  120OSM      P12617   0.779   2.187   6.300 -0.4171  0.0002  0.3902
  120OSM    O1312618   0.749   2.324   6.356 -0.2624 -0.5931  0.2613
  120OSM    O1412619   0.724   2.154   6.167 -0.1500 -0.1606  0.7316
  120OSM    O1112620   0.738   2.071   6.397 -0.7406  0.2371 -0.7006
  120OSM    O1212621   0.940   2.183   6.296  0.2360 -0.1870  0.1198
  120OSM    C1S12622   0.795   2.056   6.525 -0.4454 -0.5484  0.7467
  120OSM    H1S12623   0.905   2.068   6.525 -0.4818 -0.2109  0.5040
  120OSM    H1T12624   0.789   1.955   6.571  2.1480 -0.5694  1.1958
  120OSM     NF12625   0.791   2.121   6.755  0.4088 -0.4255 -0.5128
  120OSM    HNF12626   0.754   2.056   6.821  0.1229 -0.3226 -0.5664
  120OSM    C2S12627   0.718   2.141   6.633  1.1410 -0.0040 -0.1796
  120OSM    H2S12628   0.725   2.249   6.608 -1.7999  0.5679  1.1475
  120OSM    C3S12629   0.568   2.109   6.638  0.4069  1.2030 -0.1465
  120OSM    H3S12630   0.554   2.000   6.656  2.3660  0.8424 -0.5588
  120OSM     O312631   0.494   2.120   6.516  0.2813 -0.0619  0.1370
  120OSM    HO312632   0.564   2.111   6.450 -0.7804  2.0960 -1.4290
  120OSM    C4S12633   0.502   2.187   6.744  0.2711 -0.1670 -0.9118
  120OSM    H4S12634   0.529   2.147   6.842 -0.8410 -1.1658 -0.9925
  120OSM    C5S12635   0.420   2.296   6.732  0.1597  0.0871  0.3331
  120OSM    H5S12636   0.392   2.334   6.632  0.3290  0.7085  0.5216
  120OSM    C6S12637   0.335   2.363   6.841  0.4060  0.9702  0.2743
  120OSM    H6S12638   0.234   2.318   6.838  1.4441 -1.5342 -2.4508
  120OSM    H6T12639   0.331   2.473   6.827  0.7297  0.7007 -2.6796
  120OSM    C7S12640   0.407   2.354   6.975  0.4350  0.0929 -1.4110
  120OSM    H7S12641   0.498   2.419   6.968  1.1512 -0.7688 -0.4884
  120OSM    H7T12642   0.434   2.248   6.995  0.5913  0.4843  0.6760
  120OSM    C8S12643   0.336   2.418   7.100  0.0394  0.3505  0.1842
  120OSM    H8S12644   0.235   2.371   7.096 -0.1465  0.8042 -1.1174
  120OSM    H8T12645   0.312   2.526   7.082  0.5384  0.0716 -2.6617
  120OSM    C9S12646   0.412   2.385   7.236  0.3105  0.7587  1.0357
  120OSM    H9S12647   0.514   2.420   7.212 -0.1150  0.5561 -1.3849
  120OSM    H9T12648   0.410   2.275   7.247  0.9135  0.4585 -1.3189
  120OSM   C10S12649   0.347   2.448   7.357 -0.5864 -1.2355  0.7893
  120OSM   H10S12650   0.243   2.408   7.359 -0.3493 -2.0680 -1.1434
  120OSM   H10T12651   0.338   2.558   7.353  1.2841 -1.0958 -0.9603
  120OSM   C11S12652   0.428   2.412   7.491 -0.1804  0.6085  0.1278
  120OSM   H11S12653   0.528   2.459   7.483 -0.7767  1.8339 -0.4502
  120OSM   H11T12654   0.433   2.301   7.492 -1.0189  0.5522  1.3759
  120OSM   C12S12655   0.366   2.463   7.630 -0.1406 -0.1816  0.0036
  120OSM   H12S12656   0.277   2.397   7.645 -1.0044  0.7832 -0.7038
  120OSM   H12T12657   0.334   2.569   7.619 -1.6808 -0.5072  0.9617
  120OSM   C13S12658   0.466   2.461   7.746  0.5007 -0.7195 -0.2104
  120OSM   H13S12659   0.561   2.518   7.734  1.4413 -1.6901  2.1040
  120OSM   H13T12660   0.506   2.361   7.774 -0.0955 -0.6933  0.7769
  120OSM   C14S12661   0.399   2.519   7.874  0.4111  0.1128  0.1026
  120OSM   H14S12662   0.312   2.453   7.892  1.8538 -2.1411 -0.7780
  120OSM   H14T12663   0.357   2.619   7.850 -0.7485 -0.8787 -2.3394
  120OSM   C15S12664   0.485   2.515   7.999 -0.2359  0.5057 -0.3369
  120OSM   H15S12665   0.574   2.581   7.989  0.9353 -0.6449  1.7905
  120OSM   H15T12666   0.520   2.410   7.996 -0.1587  0.4725  1.1094
  120OSM   C16S12667   0.400   2.529   8.131 -0.5897  0.2343  0.3776
  120OSM   H16S12668   0.460   2.492   8.217 -1.5978  0.9576  1.4289
  120OSM   H16T12669   0.325   2.450   8.115  0.9759 -1.4405  1.0003
  120OSM   C17S12670   0.335   2.665   8.150 -1.0208  0.2156 -0.1895
  120OSM   H17S12671   0.262   2.660   8.233 -0.0878 -0.7115  0.6027
  120OSM   H17T12672   0.281   2.703   8.060 -2.4807  3.0354  1.7405
  120OSM   C18S12673   0.443   2.774   8.181  0.4430 -0.9541 -0.0986
  120OSM   H18S12674   0.403   2.877   8.186 -1.1281 -1.6131  2.3623
  120OSM   H18T12675   0.526   2.767   8.107  1.6499  0.9126  1.0018
  120OSM   H18U12676   0.487   2.749   8.280 -2.7956  1.2316  2.0844
  120OSM    C1F12677   0.914   2.165   6.763  0.3135 -0.0497  0.2483
  120OSM     OF12678   0.964   2.250   6.688  0.2863  0.2651  0.1741
  120OSM    C2F12679   0.994   2.087   6.870 -0.2548  0.0629 -0.6465
  120OSM    H2F12680   1.056   2.006   6.826 -0.4065  0.1903 -1.1006
  120OSM    H2G12681   0.918   2.047   6.940 -1.7494  2.1617 -0.9784
  120OSM    C3F12682   1.086   2.194   6.930 -0.3425  0.0261 -0.0356
  120OSM    H3F12683   1.023   2.281   6.960 -0.9487 -0.9383  1.6651
  120OSM    H3G12684   1.160   2.230   6.855 -0.0989  1.4986  0.8643
  120OSM    C4F12685   1.149   2.148   7.062  0.3198 -0.4465  0.4778
  120OSM    H4F12686   1.210   2.057   7.046  0.6622  0.2172 -2.6330
  120OSM    H4G12687   1.072   2.132   7.140  0.3633  0.4134  0.7134
  120OSM    C5F12688   1.231   2.260   7.123 -0.4149 -0.1681 -1.1674
  120OSM    H5F12689   1.168   2.351   7.128 -0.1034  0.3712 -4.4962
  120OSM    H5G12690   1.318   2.272   7.055 -1.1666  2.4915 -1.7543
  120OSM    C6F12691   1.278   2.208   7.266  0.1888 -0.2560 -0.4633
  120OSM    H6F12692   1.189   2.183   7.328  2.1856 -1.8423  1.9580
  120OSM    H6G12693   1.319   2.304   7.304 -1.2569  0.6018 -0.9724
  120OSM    C7F12694   1.378   2.094   7.263  0.6971 -0.1141 -0.2398
  120OSM    H7F12695   1.453   2.120   7.186  1.9752 -0.0043  0.9941
  120OSM    H7G12696   1.336   1.995   7.235  2.2697 -0.9128  0.0987
  120OSM    C8F12697   1.448   2.066   7.391 -0.2252 -0.6758  0.4843
  120OSM    H8F12698   1.507   1.973   7.376 -0.0138 -0.5487  0.5199
  120OSM    H8G12699   1.370   2.043   7.466 -0.2344 -0.8748  0.4138
  120OSM    C9F12700   1.545   2.177   7.419  0.0551 -0.1422  0.3114
  120OSM    H9F12701   1.622   2.172   7.341  0.3062 -2.1302  0.6353
  120OSM   C10F12702   1.549   2.271   7.509 -0.7508 -0.4471 -0.0800
  120OSM   H10F12703   1.630   2.345   7.498  2.2935 -3.4609  0.2078
  120OSM   C11F12704   1.461   2.278   7.627  0.0868 -0.0994 -0.1904
  120OSM   H11F12705   1.370   2.215   7.622 -1.5199  1.9764  1.0645
  120OSM   H11G12706   1.415   2.379   7.627  1.0984  0.3808  0.3133
  120OSM   C12F12707   1.529   2.241   7.759 -1.0131 -0.0114  0.3524
  120OSM   H12F12708   1.615   2.309   7.778 -1.2678  0.2688  0.5290
  120OSM   H12G12709   1.563   2.136   7.759 -1.0153 -0.0334  1.5044
  120OSM   C13F12710   1.447   2.276   7.886 -0.1038 -0.5204 -0.7454
  120OSM   H13F12711   1.444   2.387   7.890  2.1846 -0.4239 -0.5654
  120OSM   H13G12712   1.526   2.248   7.958 -1.7497 -2.2923  0.4720
  120OSM   C14F12713   1.315   2.210   7.915  0.2453  0.0693  0.1520
  120OSM   H14F12714   1.320   2.104   7.881  0.5358 -0.2717  1.2161
  120OSM   H14G12715   1.245   2.275   7.857 -1.2985 -2.3183 -0.8423
  120OSM   C15F12716   1.288   2.200   8.068  0.3482 -0.1167 -0.1233
  120OSM   H15F12717   1.317   2.295   8.118  1.7127 -0.6673  0.1772
  120OSM   H15G12718   1.366   2.137   8.116  1.2346  1.0494  0.0252
  120OSM   C16F12719   1.152   2.155   8.109  0.6273 -0.2645 -0.8809
  120OSM   H16F12720   1.144   2.052   8.067 -0.2730  0.3580 -2.2788
  120OSM   H16G12721   1.057   2.196   8.068  0.9484  0.4858 -0.8901
  120OSM   C17F12722   1.134   2.142   8.265 -0.2068  0.1884  0.1051
  120OSM   H17F12723   1.225   2.086   8.297 -0.3599 -0.8940 -1.2830
  120OSM   H17G12724   1.048   2.081   8.299  1.4203 -1.2254  1.9288
  120OSM   C18F12725   1.129   2.284   8.333 -0.4680  0.0507  0.6759
  120OSM   H18F12726   1.207   2.348   8.286  0.1831 -1.2144 -0.0043
  120OSM   H18G12727   1.145   2.279   8.443  0.1271 -0.2935  0.5791
  120OSM   H18H12728   1.036   2.333   8.298 -0.0152  1.7854  1.7756
  121OSM      N12729   4.582   0.719   6.065  0.5276  0.3813  0.1536
  121OSM    C1512730   4.547   0.839   5.982  0.6329  0.3057  0.7698
  121OSM   H15A12731   4.442   0.862   5.978  1.0372  2.2147 -1.1195
  121OSM   H15B12732   4.581   0.835   5.879 -0.7920  3.0859  0.0832
  121OSM   H15C12733   4.603   0.925   6.016  1.2142  0.6129 -0.8532
  121OSM    C1412734   4.536   0.591   6.006 -0.2045 -0.5640  0.1894
  121OSM   H14A12735   4.579   0.579   5.907  0.5732 -0.2820  0.4820
  121OSM   H14B12736   4.430   0.589   5.987 -0.4120 -0.7515  1.3169
  121OSM   H14C12737   4.561   0.506   6.067 -1.3533 -0.7222  0.4622
  121OSM    C1312738   4.732   0.726   6.089  0.6108  0.1212  0.3059
  121OSM   H13A12739   4.771   0.663   6.168  0.0915 -0.8479 -0.1965
  121OSM   H13B12740   4.747   0.829   6.117  0.9325  0.9540 -2.5927
  121OSM   H13C12741   4.769   0.697   5.992 -1.8248 -1.4676 -0.2432
  121OSM    C1212742   4.516   0.730   6.203 -0.0217 -0.1497 -0.3812
  121OSM   H12A12743   4.575   0.801   6.259 -2.4958  0.3286  1.7724
  121OSM   H12B12744   4.527   0.638   6.259 -3.0358 -0.8451 -0.7533
  121OSM    C1112745   4.364   0.775   6.209 -0.7411  0.3996 -0.4584
  121OSM   H11A12746   4.363   0.880   6.173 -2.1460  0.2906 -0.7873
  121OSM   H11B12747   4.333   0.778   6.316  0.0446 -1.2916 -0.1607
  121OSM      P12748   4.212   0.554   6.211  0.0511 -0.3648 -0.2429
  121OSM    O1312749   4.079   0.583   6.270 -0.0137 -0.2186  0.4098
  121OSM    O1412750   4.232   0.435   6.122 -0.4443 -0.6629 -0.0010
  121OSM    O1112751   4.317   0.540   6.328  0.0901  0.4627 -0.4258
  121OSM    O1212752   4.270   0.687   6.143  0.1598 -0.2343 -0.1668
  121OSM    C1S12753   4.309   0.414   6.405 -0.5666  0.2602  0.7260
  121OSM    H1S12754   4.362   0.334   6.348 -0.4436  0.7198  0.1859
  121OSM    H1T12755   4.209   0.387   6.447 -0.5789  0.1813  0.6476
  121OSM     NF12756   4.430   0.292   6.577  0.1834  0.1010  0.2146
  121OSM    HNF12757   4.368   0.249   6.643  1.1436 -1.3396  0.2296
  121OSM    C2S12758   4.393   0.424   6.531 -0.0351 -0.0108  0.1268
  121OSM    H2S12759   4.485   0.468   6.487 -0.1487  0.2200  0.1185
  121OSM    C3S12760   4.324   0.520   6.635  0.0281  0.2884  0.2027
  121OSM    H3S12761   4.230   0.480   6.677 -1.7613  1.8771 -2.0799
  121OSM     O312762   4.283   0.641   6.577  0.0029 -0.9423  0.2666
  121OSM    HO312763   4.317   0.626   6.488 -0.3449  0.8824 -0.2198
  121OSM    C4S12764   4.421   0.549   6.750 -0.1943  0.2530  0.0422
  121OSM    H4S12765   4.428   0.474   6.830 -0.0176 -0.5979 -0.7449
  121OSM    C5S12766   4.509   0.650   6.771 -0.5564  0.7533  0.5042
  121OSM    H5S12767   4.530   0.722   6.691 -2.3403 -1.7945 -2.4668
  121OSM    C6S12768   4.608   0.657   6.885 -0.3241  0.8018  1.0617
  121OSM    H6S12769   4.624   0.766   6.893  3.4289  0.5561 -1.0600
  121OSM    H6T12770   4.705   0.611   6.855 -1.7976 -2.6849  1.1176
  121OSM    C7S12771   4.570   0.593   7.024  0.0626 -0.3422  0.5573
  121OSM    H7S12772   4.657   0.608   7.092  1.3017  0.2759 -1.0905
  121OSM    H7T12773   4.549   0.484   7.017  0.3697 -0.3282 -0.7514
  121OSM    C8S12774   4.444   0.659   7.084  0.3542  0.0750  0.7118
  121OSM    H8S12775   4.366   0.639   7.007  0.6241 -1.1269  0.7259
  121OSM    H8T12776   4.452   0.769   7.090 -0.3524  0.0715  2.0936
  121OSM    C9S12777   4.394   0.597   7.213  0.3474  0.0056 -0.4043
  121OSM    H9S12778   4.387   0.487   7.213  0.3810 -0.0168 -2.0719
  121OSM    H9T12779   4.295   0.636   7.247  0.6266  0.3601  0.0200
  121OSM   C10S12780   4.486   0.616   7.335 -0.7637 -0.0377 -0.2653
  121OSM   H10S12781   4.514   0.721   7.357  1.5918 -0.6571  0.0038
  121OSM   H10T12782   4.580   0.565   7.303 -0.9456  1.2903 -3.2607
  121OSM   C11S12783   4.441   0.561   7.463  0.1624 -0.2107 -1.1644
  121OSM   H11S12784   4.434   0.451   7.446  0.8804 -0.4943  0.2101
  121OSM   H11T12785   4.340   0.601   7.481  0.8122  0.4448  1.4707
  121OSM   C12S12786   4.547   0.576   7.577  0.2423 -0.5642 -0.3784
  121OSM   H12S12787   4.566   0.681   7.606 -2.0224 -0.0409 -0.5995
  121OSM   H12T12788   4.643   0.541   7.532  1.5388  1.1410  0.9249
  121OSM   C13S12789   4.506   0.516   7.710 -0.7678  0.1238  0.1442
  121OSM   H13S12790   4.487   0.407   7.694 -0.5232  0.2186 -0.8196
  121OSM   H13T12791   4.410   0.552   7.753 -0.0848  0.1563  1.7167
  121OSM   C14S12792   4.614   0.537   7.816  0.5015  0.1687 -0.2780
  121OSM   H14S12793   4.657   0.639   7.805  0.4921  0.3186  0.9771
  121OSM   H14T12794   4.696   0.471   7.782 -0.8247 -0.7922 -1.7743
  121OSM   C15S12795   4.568   0.516   7.962 -0.5852 -0.1319  0.5068
  121OSM   H15S12796   4.505   0.425   7.962  0.0653 -0.5875  0.7638
  121OSM   H15T12797   4.498   0.601   7.979  0.2119  0.8715 -1.0183
  121OSM   C16S12798   4.685   0.529   8.068  0.6343  0.9605  0.0032
  121OSM   H16S12799   4.624   0.552   8.158 -0.5352 -1.7058  0.0075
  121OSM   H16T12800   4.755   0.607   8.033  2.4075 -0.4550  0.2698
  121OSM   C17S12801   4.758   0.394   8.081  0.8953 -0.2939  0.0878
  121OSM   H17S12802   4.814   0.361   7.991  0.8816 -3.5527  1.1480
  121OSM   H17T12803   4.684   0.311   8.087  0.4047  0.1649  0.4849
  121OSM   C18S12804   4.832   0.386   8.213 -0.5520 -0.4909  0.8676
  121OSM   H18S12805   4.764   0.395   8.300 -0.6842  1.0509  0.6459
  121OSM   H18T12806   4.912   0.462   8.222  0.6630 -1.3332 -1.7785
  121OSM   H18U12807   4.879   0.286   8.217  1.6235  0.4694  0.3771
  121OSM    C1F12808   4.527   0.218   6.514  0.1470  0.0098  0.2767
  121OSM     OF12809   4.613   0.268   6.442 -0.1636 -0.3171 -0.2265
  121OSM    C2F12810   4.538   0.068   6.551  0.4884 -0.6832  0.5315
  121OSM    H2F12811   4.528   0.010   6.457 -3.3107  0.6502 -0.0610
  121OSM    H2G12812   4.449   0.038   6.609  0.4821  0.0156  0.9031
  121OSM    C3F12813   4.666   0.040   6.623  0.1230 -0.0566 -0.1025
  121OSM    H3F12814   4.680   0.104   6.712  0.4231  2.8634 -2.0956
  121OSM    H3G12815   4.753   0.057   6.556  0.7573  0.1677  0.7693
  121OSM    C4F12816   4.653  -0.103   6.668 -0.1912  0.1661  0.5387
  121OSM    H4F12817   4.646  -0.164   6.575 -1.1445  0.2075  0.5646
  121OSM    H4G12818   4.556  -0.115   6.721  0.5901 -1.8299  1.6245
  121OSM    C5F12819   4.777  -0.150   6.746  0.3060  0.4954 -0.6644
  121OSM    H5F12820   4.817  -0.054   6.786 -1.8637  1.7322 -1.2905
  121OSM    H5G12821   4.853  -0.200   6.681  0.9531 -0.8676  1.0709
  121OSM    C6F12822   4.765  -0.251   6.867  0.2428 -0.3913 -0.2014
  121OSM    H6F12823   4.765  -0.357   6.836  1.5185 -0.2390 -0.8044
  121OSM    H6G12824   4.672  -0.231   6.924  0.4117  0.3763 -0.1799
  121OSM    C7F12825   4.884  -0.243   6.963  0.0931  0.3531 -0.5761
  121OSM    H7F12826   4.868  -0.143   7.010 -0.9391 -0.2920  0.4988
  121OSM    H7G12827   4.979  -0.236   6.905  1.3001 -0.8035  1.1653
  121OSM    C8F12828   4.882  -0.352   7.071  0.6477  0.0928  0.4948
  121OSM    H8F12829   4.983  -0.400   7.070  1.0735  0.9563 -0.2892
  121OSM    H8G12830   4.821  -0.440   7.043  2.7157 -1.6136  1.0307
  121OSM    C9F12831   4.873  -0.291   7.203  0.1025  0.2675 -0.1627
  121OSM    H9F12832   4.852  -0.183   7.207 -1.5285 -0.0119 -0.4739
  121OSM   C10F12833   4.909  -0.350   7.320  0.4500  0.5253 -0.0207
  121OSM   H10F12834   4.860  -0.308   7.409  1.0546  2.2279 -0.4537
  121OSM   C11F12835   4.966  -0.489   7.348  0.1933 -0.6487 -0.1476
  121OSM   H11F12836   5.062  -0.471   7.401  1.7333 -3.1399 -1.8542
  121OSM   H11G12837   4.998  -0.537   7.253 -0.8703 -1.1246 -0.2791
  121OSM   C12F12838   4.870  -0.580   7.416  0.4642  1.0043 -0.4980
  121OSM   H12F12839   4.916  -0.681   7.416 -0.0454  0.7729 -1.0387
  121OSM   H12G12840   4.774  -0.581   7.362  0.4777  1.0874 -0.5239
  121OSM   C13F12841   4.842  -0.541   7.567  0.0002  0.7140 -0.3712
  121OSM   H13F12842   4.765  -0.611   7.606 -1.3847  2.5472  0.3250
  121OSM   H13G12843   4.792  -0.442   7.558 -0.1656  0.9252  2.2945
  121OSM   C14F12844   4.972  -0.524   7.654  0.4042  0.6435  0.3774
  121OSM   H14F12845   5.040  -0.438   7.634  0.7194  0.9267  2.4277
  121OSM   H14G12846   5.033  -0.616   7.637  0.5679  0.6320  1.0106
  121OSM   C15F12847   4.932  -0.527   7.803  0.1171  0.0361  0.8024
  121OSM   H15F12848   4.880  -0.622   7.825  1.7131 -0.5709  2.1916
  121OSM   H15G12849   4.862  -0.444   7.827 -2.7678 -1.5106 -1.6290
  121OSM   C16F12850   5.052  -0.515   7.904 -0.1435 -0.4556 -0.4901
  121OSM   H16F12851   5.140  -0.467   7.855  0.4501  1.6972  2.4169
  121OSM   H16G12852   5.090  -0.616   7.928  0.6639 -0.0404  0.0491
  121OSM   C17F12853   5.022  -0.437   8.030 -0.0329  0.0555 -0.1327
  121OSM   H17F12854   4.933  -0.486   8.076  0.4284 -1.7967 -1.1098
  121OSM   H17G12855   4.994  -0.333   8.000  0.8005  1.0153  2.2376
  121OSM   C18F12856   5.133  -0.427   8.125  0.2134  0.0231 -0.2042
  121OSM   H18F12857   5.094  -0.363   8.207 -4.2225 -1.8083 -0.5889
  121OSM   H18G12858   5.224  -0.374   8.090 -0.4344  0.3947 -1.3977
  121OSM   H18H12859   5.155  -0.523   8.176  0.1829  0.3304  0.3960
  122OSM      N12860   5.181   1.279   5.540 -0.0206 -0.0288 -0.1553
  122OSM    C1512861   5.190   1.420   5.485  0.2086  0.3664 -0.2115
  122OSM   H15A12862   5.139   1.434   5.390 -1.0274 -0.1426  0.3490
  122OSM   H15B12863   5.294   1.439   5.466  0.1355  0.7490 -0.2441
  122OSM   H15C12864   5.155   1.495   5.555  0.8246 -0.0536  0.5626
  122OSM    C1412865   5.040   1.236   5.563  0.0430  0.4576  0.0640
  122OSM   H14A12866   5.034   1.138   5.609  1.9481 -0.8495 -2.2521
  122OSM   H14B12867   4.973   1.230   5.479 -0.0903  1.0356  0.1244
  122OSM   H14C12868   4.989   1.311   5.622 -3.1763 -0.1945 -1.6572
  122OSM    C1312869   5.240   1.184   5.428  0.4505 -0.0268 -0.0890
  122OSM   H13A12870   5.254   1.087   5.474 -1.2686  0.2788  1.2261
  122OSM   H13B12871   5.337   1.221   5.398  0.1059 -0.0536 -1.2875
  122OSM   H13C12872   5.162   1.178   5.353 -0.3565  2.1089  0.5095
  122OSM    C1212873   5.266   1.268   5.661 -0.4631 -0.2843 -0.8566
  122OSM   H12A12874   5.363   1.302   5.626 -0.8846  1.2580 -0.5613
  122OSM   H12B12875   5.290   1.167   5.694  1.6861 -0.1708 -1.8944
  122OSM    C1112876   5.224   1.340   5.790 -0.4041 -0.7797 -0.4463
  122OSM   H11A12877   5.213   1.446   5.760 -0.3309 -0.2414  1.2779
  122OSM   H11B12878   5.309   1.337   5.862 -0.3137  0.0090 -0.5128
  122OSM      P12879   5.090   1.172   5.931 -0.4019  0.1177 -0.0663
  122OSM    O1312880   4.947   1.162   5.971 -0.3501 -0.0366 -0.5352
  122OSM    O1412881   5.152   1.054   5.857  0.4096  0.5647 -0.1763
  122OSM    O1112882   5.190   1.208   6.055  0.3111  0.0327 -0.5205
  122OSM    O1212883   5.103   1.300   5.848  1.2442 -0.1533  0.1283
  122OSM    C1S12884   5.178   1.328   6.129 -0.2258 -0.6924  0.0649
  122OSM    H1S12885   5.075   1.367   6.119 -0.3894 -0.6519  1.5994
  122OSM    H1T12886   5.244   1.407   6.086 -0.4396 -0.8572 -0.5676
  122OSM     NF12887   5.183   1.449   6.356  0.0783  0.2898  0.2205
  122OSM    HNF12888   5.256   1.467   6.422  0.9459 -2.1612  0.0713
  122OSM    C2S12889   5.200   1.321   6.284  0.2117  0.0265 -0.1427
  122OSM    H2S12890   5.123   1.247   6.315 -0.1459  0.1681 -0.6691
  122OSM    C3S12891   5.335   1.255   6.317  0.1440  0.1883 -0.6288
  122OSM    H3S12892   5.412   1.335   6.315  0.2034  0.1684  0.3468
  122OSM     O312893   5.368   1.150   6.226  0.3132  0.4911  0.4007
  122OSM    HO312894   5.295   1.152   6.164  0.4080 -0.4775  0.2475
  122OSM    C4S12895   5.344   1.204   6.458  0.0198 -0.2746  0.2687
  122OSM    H4S12896   5.407   1.272   6.517 -0.3570  0.7402 -0.4614
  122OSM    C5S12897   5.286   1.093   6.513 -0.9911 -0.9896  0.4082
  122OSM    H5S12898   5.219   1.024   6.460  0.2253 -1.1591 -0.9638
  122OSM    C6S12899   5.300   1.054   6.656  0.4666  0.6399 -0.6446
  122OSM    H6S12900   5.336   1.131   6.729  2.1386  0.6057 -1.3734
  122OSM    H6T12901   5.363   0.964   6.672 -1.3856 -0.3101  1.8740
  122OSM    C7S12902   5.161   1.018   6.712 -0.3465  0.0261 -0.4606
  122OSM    H7S12903   5.080   1.091   6.693 -2.3059 -2.1098 -0.7320
  122OSM    H7T12904   5.170   1.001   6.822 -1.8091 -2.4285 -0.6432
  122OSM    C8S12905   5.107   0.880   6.671 -0.1716 -0.4706  0.1396
  122OSM    H8S12906   5.192   0.809   6.659 -0.2702 -0.4312 -0.8558
  122OSM    H8T12907   5.073   0.876   6.565  0.0197 -3.6713  0.1010
  122OSM    C9S12908   5.000   0.822   6.763  0.3464 -0.6866 -0.0665
  122OSM    H9S12909   4.938   0.743   6.715  0.6632 -1.9886  1.5771
  122OSM    H9T12910   4.937   0.908   6.793  1.7354  0.6196 -0.7664
  122OSM   C10S12911   5.076   0.770   6.889 -0.1157 -0.3435 -0.4935
  122OSM   H10S12912   5.149   0.837   6.939 -0.0457 -1.3998  0.9058
  122OSM   H10T12913   5.136   0.686   6.848  0.5136 -0.5767  0.8553
  122OSM   C11S12914   4.982   0.712   6.998  0.2422  0.3804 -0.2554
  122OSM   H11S12915   4.939   0.623   6.948 -0.3977  0.4467  0.1608
  122OSM   H11T12916   4.899   0.781   7.026 -0.3601 -1.1294  1.8780
  122OSM   C12S12917   5.054   0.660   7.130 -0.3107  0.5770  0.8103
  122OSM   H12S12918   5.094   0.749   7.184  1.6423  1.4190 -1.7768
  122OSM   H12T12919   5.138   0.598   7.092 -1.6311 -1.3871  0.9876
  122OSM   C13S12920   4.975   0.576   7.230 -0.0601 -0.1183 -0.2221
  122OSM   H13S12921   4.929   0.486   7.184 -2.2012  0.8768 -0.1741
  122OSM   H13T12922   4.892   0.635   7.276 -0.1112 -1.1344  1.0580
  122OSM   C14S12923   5.062   0.529   7.349 -0.2048 -0.5475  0.0593
  122OSM   H14S12924   5.068   0.610   7.424  0.7552 -0.0001 -0.5780
  122OSM   H14T12925   5.168   0.527   7.315  0.6134  1.2322  2.2814
  122OSM   C15S12926   5.019   0.397   7.417  0.1765 -0.3925 -0.1854
  122OSM   H15S12927   5.024   0.313   7.344  0.9013  0.2571 -0.8930
  122OSM   H15T12928   4.912   0.410   7.445  0.0612 -1.7398  0.0815
  122OSM   C16S12929   5.100   0.361   7.540 -0.0732 -0.0764 -0.3192
  122OSM   H16S12930   5.053   0.274   7.591  1.2798  0.5455  2.1590
  122OSM   H16T12931   5.108   0.446   7.612  1.8799  0.0311 -0.6053
  122OSM   C17S12932   5.247   0.339   7.513  0.2359  0.0923  1.0974
  122OSM   H17S12933   5.296   0.422   7.459  0.5696 -1.1518 -0.6071
  122OSM   H17T12934   5.240   0.259   7.436 -0.2743  0.9517  0.2305
  122OSM   C18S12935   5.321   0.285   7.635 -0.3480  0.0007  0.4933
  122OSM   H18S12936   5.427   0.266   7.609 -0.5825  2.1253 -2.4426
  122OSM   H18T12937   5.268   0.200   7.683 -2.6450  0.1446 -1.5945
  122OSM   H18U12938   5.330   0.360   7.717  0.3602  1.1635 -0.6167
  122OSM    C1F12939   5.069   1.514   6.361 -0.0411 -0.6894  0.1532
  122OSM     OF12940   4.970   1.495   6.290 -0.0193  0.3534  0.2309
  122OSM    C2F12941   5.081   1.627   6.461 -0.0513  0.1654  0.3894
  122OSM    H2F12942   4.996   1.696   6.442 -0.6726  0.0663  2.5549
  122OSM    H2G12943   5.174   1.681   6.435  0.5068 -0.4170  1.1412
  122OSM    C3F12944   5.095   1.563   6.605  0.0602 -0.4934 -0.5170
  122OSM    H3F12945   5.173   1.485   6.603  0.9956  0.4404 -1.6707
  122OSM    H3G12946   5.000   1.515   6.638  0.8346 -1.4897  0.3067
  122OSM    C4F12947   5.127   1.664   6.708 -0.1085  0.2183  0.0582
  122OSM    H4F12948   5.058   1.751   6.696  0.8651  0.8337 -1.3086
  122OSM    H4G12949   5.223   1.714   6.683 -0.8605  2.0968  0.7395
  122OSM    C5F12950   5.132   1.604   6.852 -0.1915  0.6292  0.4751
  122OSM    H5F12951   5.058   1.522   6.863 -0.4615  0.1948 -3.1587
  122OSM    H5G12952   5.105   1.688   6.919 -2.5355  1.8495 -1.8108
  122OSM    C6F12953   5.271   1.549   6.893 -0.3652 -0.1578  0.0378
  122OSM    H6F12954   5.343   1.623   6.854  1.0034 -0.8346  1.1885
  122OSM    H6G12955   5.300   1.455   6.842  0.0302 -0.0252  0.0168
  122OSM    C7F12956   5.279   1.527   7.047  0.0653  0.3095 -0.1659
  122OSM    H7F12957   5.258   1.625   7.094 -2.0651  0.1873 -0.7885
  122OSM    H7G12958   5.387   1.508   7.069  0.9189  3.9047 -0.7197
  122OSM    C8F12959   5.181   1.415   7.102  0.3353 -0.8978 -0.2613
  122OSM    H8F12960   5.078   1.453   7.111 -0.1311 -1.2685 -3.2072
  122OSM    H8G12961   5.200   1.400   7.211 -1.1821 -1.9559 -0.1165
  122OSM    C9F12962   5.183   1.277   7.038 -0.9021  0.1977 -0.2630
  122OSM    H9F12963   5.210   1.271   6.932 -1.4555  0.3376 -0.4161
  122OSM   C10F12964   5.169   1.161   7.109 -0.2896 -0.3712 -0.3113
  122OSM   H10F12965   5.173   1.062   7.060  0.5572 -0.2011 -0.6129
  122OSM   C11F12966   5.151   1.148   7.261 -0.1230 -0.1915 -0.0803
  122OSM   H11F12967   5.089   1.233   7.295  0.7416  0.0377  0.9688
  122OSM   H11G12968   5.247   1.163   7.315  0.0092 -1.4744  0.0715
  122OSM   C12F12969   5.108   1.016   7.311 -0.0330 -0.0481  0.0387
  122OSM   H12F12970   5.188   0.944   7.283  0.6331 -0.6725  3.2246
  122OSM   H12G12971   5.009   0.988   7.269  0.8568 -2.7411 -0.4809
  122OSM   C13F12972   5.088   1.021   7.459 -0.0068  0.5070  0.0654
  122OSM   H13F12973   4.991   1.068   7.488 -0.9263 -1.7680  0.9123
  122OSM   H13G12974   5.171   1.077   7.506  1.2254 -0.8869 -0.3710
  122OSM   C14F12975   5.116   0.877   7.508 -0.2987  0.2248  0.2798
  122OSM   H14F12976   5.204   0.830   7.461  0.1153  0.0584  1.2019
  122OSM   H14G12977   5.032   0.812   7.476 -0.0743 -0.1920  0.5310
  122OSM   C15F12978   5.127   0.877   7.664 -0.3388 -0.7497  0.3027
  122OSM   H15F12979   5.050   0.945   7.707  0.0045  1.0434 -1.7662
  122OSM   H15G12980   5.221   0.929   7.694 -1.4213  1.8057 -0.4824
  122OSM   C16F12981   5.092   0.739   7.719  0.2839  0.1840 -0.4565
  122OSM   H16F12982   5.157   0.666   7.666 -0.3205 -2.0359  1.6901
  122OSM   H16G12983   4.985   0.734   7.689  0.5763  0.5715 -1.6112
  122OSM   C17F12984   5.100   0.720   7.873  0.1463 -0.7660 -0.6296
  122OSM   H17F12985   5.046   0.802   7.926 -0.8078 -0.5617 -1.8838
  122OSM   H17G12986   5.207   0.736   7.901 -0.2932  1.3950  0.0124
  122OSM   C18F12987   5.043   0.596   7.913  0.6489  0.4220  0.4403
  122OSM   H18F12988   5.089   0.507   7.863 -0.7820 -1.3464  2.1316
  122OSM   H18G12989   4.938   0.600   7.877  1.5563  0.7296 -2.4399
  122OSM   H18H12990   5.038   0.573   8.021  0.7176  1.8087  0.7479
  123OSM      N12991   0.379   4.067   6.490  0.8228 -0.2706  0.2169
  123OSM    C1512992   0.480   4.148   6.560 -0.3701 -0.3675 -0.5853
  123OSM   H15A12993   0.493   4.247   6.518 -0.4612 -0.2432 -0.3189
  123OSM   H15B12994   0.579   4.107   6.574  0.8938  2.7673  0.4167
  123OSM   H15C12995   0.459   4.169   6.663  4.1180 -1.3552  0.7155
  123OSM    C1412996   0.262   4.160   6.472  0.2396 -0.3295  0.8164
  123OSM   H14A12997   0.296   4.251   6.425 -0.5482  0.8426  2.4279
  123OSM   H14B12998   0.205   4.179   6.561  0.9739  1.3088  0.9724
  123OSM   H14C12999   0.186   4.128   6.403 -1.0788  1.0091  1.6075
  123OSM    C1313000   0.431   4.023   6.355  0.1315  0.6865  0.2010
  123OSM   H13A13001   0.355   3.968   6.301  0.1404 -1.2177  2.0105
  123OSM   H13B13002   0.517   3.960   6.368 -1.1552 -0.7700  2.0468
  123OSM   H13C13003   0.453   4.108   6.292  0.9837 -0.1492 -0.6692
  123OSM    C1213004   0.329   3.949   6.570 -0.6008  0.2894 -0.4908
  123OSM   H12A13005   0.308   3.974   6.673 -1.4852  1.5654 -0.9557
  123OSM   H12B13006   0.408   3.876   6.577 -0.3774  0.3496 -2.0149
  123OSM    C1113007   0.206   3.862   6.526 -0.1547  0.6428 -0.1023
  123OSM   H11A13008   0.122   3.928   6.498 -2.0984 -1.8917 -0.6935
  123OSM   H11B13009   0.183   3.801   6.616 -0.6038 -0.3423 -0.8561
  123OSM      P13010   0.139   3.669   6.360 -0.2021 -0.5132  0.1958
  123OSM    O1313011   0.008   3.732   6.329 -0.7820 -0.2989  0.1208
  123OSM    O1413012   0.199   3.599   6.244  0.5514 -0.1005 -0.0794
  123OSM    O1113013   0.121   3.567   6.475  1.0560  0.5955  0.0533
  123OSM    O1213014   0.241   3.775   6.418  0.1519 -0.2670 -0.0168
  123OSM    C1S13015   0.218   3.528   6.577  0.2976 -0.0240  0.5230
  123OSM    H1S13016   0.307   3.592   6.564  0.6204 -0.9527 -2.6224
  123OSM    H1T13017   0.242   3.422   6.553 -1.5517 -0.2585 -0.4976
  123OSM     NF13018   0.251   3.522   6.815  0.4384  0.8107  1.0188
  123OSM    HNF13019   0.237   3.452   6.884  1.2661 -0.6441 -0.2378
  123OSM    C2S13020   0.151   3.542   6.713  0.2756 -0.6185 -0.2421
  123OSM    H2S13021   0.110   3.644   6.731  0.2790 -0.9638  2.0988
  123OSM    C3S13022   0.037   3.438   6.730 -0.3969  0.1255  0.4481
  123OSM    H3S13023   0.094   3.343   6.726 -0.1718  0.2924 -0.6032
  123OSM     O313024  -0.058   3.425   6.624  0.6950 -0.2290  0.1446
  123OSM    HO313025  -0.011   3.473   6.555  1.7928 -2.0866 -0.4684
  123OSM    C4S13026  -0.028   3.451   6.865 -0.9739 -0.5771  0.2399
  123OSM    H4S13027   0.008   3.373   6.934 -1.3687  0.5545  1.7796
  123OSM    C5S13028  -0.129   3.532   6.904  0.4221 -0.6925 -0.0566
  123OSM    H5S13029  -0.177   3.600   6.831  1.9658 -0.1649 -0.6360
  123OSM    C6S13030  -0.182   3.531   7.045 -0.0928  0.0841 -0.1829
  123OSM    H6S13031  -0.144   3.460   7.121 -2.0050 -1.4131 -0.5614
  123OSM    H6T13032  -0.292   3.521   7.043 -0.3037  1.0523  2.5584
  123OSM    C7S13033  -0.154   3.679   7.099  0.0053  0.4606 -0.2362
  123OSM    H7S13034  -0.191   3.747   7.020 -2.0706  0.4500  0.6835
  123OSM    H7T13035  -0.044   3.695   7.102  0.1135 -0.2137 -0.4091
  123OSM    C8S13036  -0.210   3.705   7.235 -0.1576  0.6229  0.6466
  123OSM    H8S13037  -0.309   3.655   7.239 -0.4107  0.5243 -3.2686
  123OSM    H8T13038  -0.243   3.811   7.244  1.1521  1.0272  0.9864
  123OSM    C9S13039  -0.115   3.655   7.344  0.2176 -0.2452 -0.0537
  123OSM    H9S13040  -0.017   3.702   7.323 -1.2986  1.9071 -3.4030
  123OSM    H9T13041  -0.097   3.546   7.342  1.0757 -0.1040 -0.5142
  123OSM   C10S13042  -0.153   3.707   7.485  0.5902  0.0565 -0.2453
  123OSM   H10S13043  -0.263   3.699   7.499  0.2681  2.5102 -0.9542
  123OSM   H10T13044  -0.139   3.817   7.476 -2.3148  0.5644  0.3154
  123OSM   C11S13045  -0.068   3.658   7.599 -0.4336 -0.0235 -0.1776
  123OSM   H11S13046   0.038   3.691   7.594 -0.3174 -0.4461 -0.5840
  123OSM   H11T13047  -0.065   3.548   7.615  0.7356  0.2521  1.9111
  123OSM   C12S13048  -0.119   3.716   7.732 -0.2989 -0.5627 -0.1448
  123OSM   H12S13049  -0.229   3.699   7.741 -0.6346  1.3515 -0.1314
  123OSM   H12T13050  -0.112   3.826   7.726  0.4323 -0.5700  0.4354
  123OSM   C13S13051  -0.031   3.666   7.847  0.3894  0.2298  0.3427
  123OSM   H13S13052   0.069   3.714   7.843  0.1227  1.2235  3.1039
  123OSM   H13T13053  -0.025   3.556   7.855 -0.1562  0.0706 -1.1564
  123OSM   C14S13054  -0.080   3.710   7.985 -0.3080  0.2020  0.6440
  123OSM   H14S13055  -0.170   3.656   8.022  0.3210 -0.8688  0.6414
  123OSM   H14T13056  -0.110   3.816   7.967 -1.0897  0.0268  0.8660
  123OSM   C15S13057   0.018   3.705   8.104 -0.2468 -0.2781  0.6161
  123OSM   H15S13058   0.110   3.763   8.082 -1.0281  1.5153  1.8842
  123OSM   H15T13059   0.061   3.605   8.129  1.3159  0.8456  2.7602
  123OSM   C16S13060  -0.056   3.761   8.227  0.8302 -0.2865  1.2381
  123OSM   H16S13061  -0.153   3.716   8.258 -1.9764  3.4839 -1.0899
  123OSM   H16T13062  -0.085   3.861   8.187 -0.3096 -2.1973 -3.4514
  123OSM   C17S13063   0.038   3.779   8.348  0.2357 -0.2670  0.2852
  123OSM   H17S13064   0.107   3.861   8.322 -1.4604  0.9775 -0.5009
  123OSM   H17T13065   0.109   3.696   8.368  1.3779  0.6423  0.0983
  123OSM   C18S13066  -0.050   3.826   8.468 -0.1777 -0.6620  0.1872
  123OSM   H18S13067  -0.091   3.927   8.444  0.0557  0.1475  2.9256
  123OSM   H18T13068   0.012   3.831   8.559  0.5482  0.0797 -0.3278
  123OSM   H18U13069  -0.140   3.762   8.478 -1.6314  1.5500  2.4130
  123OSM    C1F13070   0.363   3.597   6.837  0.4977  0.3815 -0.2102
  123OSM     OF13071   0.375   3.711   6.797 -0.5650  0.1949  0.1506
  123OSM    C2F13072   0.470   3.533   6.912 -0.1594 -0.2334 -0.1476
  123OSM    H2F13073   0.513   3.446   6.857  1.4304 -0.3111  1.1493
  123OSM    H2G13074   0.439   3.499   7.013  3.1440  1.0706  1.4548
  123OSM    C3F13075   0.601   3.613   6.932 -0.0943 -0.1091  0.2222
  123OSM    H3F13076   0.576   3.705   6.990  0.0645  1.6220 -2.2798
  123OSM    H3G13077   0.624   3.652   6.831 -1.5355  1.9653  0.6198
  123OSM    C4F13078   0.724   3.542   6.995  0.2204 -0.1879 -0.0956
  123OSM    H4F13079   0.806   3.615   7.014  0.1894 -0.6015  1.7264
  123OSM    H4G13080   0.762   3.474   6.915  1.2599  0.8632 -0.5281
  123OSM    C5F13081   0.681   3.480   7.129  0.5252 -0.0989 -0.4076
  123OSM    H5F13082   0.608   3.406   7.089 -1.1538  1.1641  0.2193
  123OSM    H5G13083   0.626   3.561   7.180  1.7826  1.0442 -0.8025
  123OSM    C6F13084   0.793   3.418   7.210  0.3779 -0.4936  0.6554
  123OSM    H6F13085   0.854   3.501   7.250  0.2912  0.8769 -1.8734
  123OSM    H6G13086   0.848   3.341   7.151  0.8258 -2.2321  3.1907
  123OSM    C7F13087   0.725   3.333   7.323 -0.3398 -0.1625  0.4186
  123OSM    H7F13088   0.676   3.245   7.278 -1.6298 -0.1074  1.6635
  123OSM    H7G13089   0.640   3.388   7.367  0.3630  1.1346  0.2150
  123OSM    C8F13090   0.823   3.278   7.431 -0.3280 -0.3141  0.0627
  123OSM    H8F13091   0.767   3.211   7.500  0.1386 -0.6572  0.1087
  123OSM    H8G13092   0.878   3.358   7.484 -0.2043 -0.3560 -0.0025
  123OSM    C9F13093   0.930   3.196   7.371  0.3688  0.2638  0.0403
  123OSM    H9F13094   0.962   3.235   7.273 -0.6478 -1.2276 -0.9222
  123OSM   C10F13095   0.991   3.081   7.421  0.1501 -0.7960  0.4349
  123OSM   H10F13096   1.078   3.036   7.370 -0.0721 -1.8141  0.9327
  123OSM   C11F13097   0.964   3.028   7.560 -0.5266  0.3182  0.2212
  123OSM   H11F13098   0.920   2.926   7.555 -0.7787  0.4895 -1.6924
  123OSM   H11G13099   0.883   3.087   7.607 -0.8333  0.5267 -0.5640
  123OSM   C12F13100   1.088   3.031   7.658  0.5563 -0.6089 -0.9100
  123OSM   H12F13101   1.184   3.005   7.609  1.0133 -0.0622 -0.3241
  123OSM   H12G13102   1.075   2.953   7.736 -0.0441  1.3265  1.0350
  123OSM   C13F13103   1.111   3.168   7.729  0.4554 -0.9209 -0.4323
  123OSM   H13F13104   1.017   3.218   7.762  1.1889  0.4426 -0.3510
  123OSM   H13G13105   1.151   3.239   7.653 -0.2669 -0.7672 -0.6805
  123OSM   C14F13106   1.202   3.160   7.853 -0.0570  0.5468  0.1399
  123OSM   H14F13107   1.231   3.265   7.876 -0.1515  0.6084 -0.0163
  123OSM   H14G13108   1.292   3.099   7.832 -0.3655 -0.6241  2.0401
  123OSM   C15F13109   1.141   3.113   7.987  0.3278  0.1400 -0.7971
  123OSM   H15F13110   1.091   3.017   7.964  0.4035 -0.1796  0.3186
  123OSM   H15G13111   1.054   3.172   8.022  0.5763 -0.0890  0.2180
  123OSM   C16F13112   1.232   3.101   8.103  0.1675 -0.2517  0.7492
  123OSM   H16F13113   1.272   3.200   8.135  0.4502 -0.5934  1.4795
  123OSM   H16G13114   1.311   3.024   8.096 -0.7719 -1.3099  1.4790
  123OSM   C17F13115   1.155   3.046   8.230  0.3042  0.0887  0.8932
  123OSM   H17F13116   1.118   2.946   8.199  1.4438  0.2340 -1.1421
  123OSM   H17G13117   1.068   3.114   8.243  1.4897  1.3082  3.0329
  123OSM   C18F13118   1.233   3.050   8.356 -0.9810  0.9929 -0.4148
  123OSM   H18F13119   1.284   3.146   8.377  1.5813 -0.7935  2.2764
  123OSM   H18G13120   1.316   2.977   8.348 -2.0143 -0.3602  0.7580
  123OSM   H18H13121   1.183   3.040   8.455  1.9703 -0.5238  1.0328
  124OSM      N13122   4.113   0.089   5.980  0.3750  0.9087 -0.3244
  124OSM    C1513123   4.039   0.170   5.877 -0.4794  0.1699 -0.3525
  124OSM   H15A13124   3.933   0.147   5.877 -0.0355 -2.0875 -0.7357
  124OSM   H15B13125   4.065   0.143   5.776  0.3770 -0.3091 -0.0077
  124OSM   H15C13126   4.058   0.276   5.884 -1.1358  0.2900 -0.2357
  124OSM    C1413127   4.054  -0.050   5.979 -0.1228  0.8005 -0.2334
  124OSM   H14A13128   3.948  -0.047   5.997  0.2425  0.8431  2.1736
  124OSM   H14B13129   4.098  -0.117   6.051 -1.4517 -0.1865 -0.2982
  124OSM   H14C13130   4.067  -0.104   5.886  0.2674 -2.3279  1.4773
  124OSM    C1313131   4.258   0.087   5.930  0.1371 -0.0899 -0.2456
  124OSM   H13A13132   4.291   0.185   5.902  1.1725 -0.0446  1.0044
  124OSM   H13B13133   4.270   0.010   5.856  0.7667  2.3371 -2.8194
  124OSM   H13C13134   4.322   0.052   6.010 -1.6926 -1.3604  0.7467
  124OSM    C1213135   4.096   0.156   6.118  0.1908  0.3041 -0.0798
  124OSM   H12A13136   4.154   0.247   6.116  1.0908 -0.2062 -2.9166
  124OSM   H12B13137   4.133   0.093   6.197 -0.9790  1.8516  1.7728
  124OSM    C1113138   3.951   0.201   6.162 -0.0976  0.0956  0.0503
  124OSM   H11A13139   3.933   0.285   6.091 -0.4551 -1.2534 -1.5324
  124OSM   H11B13140   3.950   0.249   6.262  1.0220 -0.6084  0.4294
  124OSM      P13141   3.839  -0.018   6.271 -0.0004 -0.6461 -0.0002
  124OSM    O1313142   3.718  -0.097   6.236 -0.3228 -0.0341 -0.6712
  124OSM    O1413143   3.964  -0.099   6.287  0.5113 -0.0591  0.4972
  124OSM    O1113144   3.815   0.050   6.411  0.0883 -0.0336  0.3474
  124OSM    O1213145   3.852   0.100   6.164  0.0876 -0.1734  1.2246
  124OSM    C1S13146   3.747   0.172   6.427 -0.0488  0.3579  0.1247
  124OSM    H1S13147   3.638   0.158   6.409 -0.1995  1.0698  0.4354
  124OSM    H1T13148   3.784   0.248   6.355  0.4515  0.5555  0.5840
  124OSM     NF13149   3.724   0.356   6.585  0.1727 -0.4092  0.5005
  124OSM    HNF13150   3.789   0.431   6.570 -2.7694  2.4072  0.7343
  124OSM    C2S13151   3.774   0.224   6.564  0.1954 -0.3579 -0.7195
  124OSM    H2S13152   3.718   0.156   6.631 -1.5303 -0.2426 -1.9960
  124OSM    C3S13153   3.926   0.215   6.602  0.2238  0.3635  0.4712
  124OSM    H3S13154   3.992   0.259   6.525  2.0569 -0.6979  1.3626
  124OSM     O313155   3.959   0.073   6.616 -0.1712  0.0468  0.0557
  124OSM    HO313156   3.885   0.035   6.568 -1.0975  2.2760 -0.4441
  124OSM    C4S13157   3.948   0.274   6.738  0.0582 -0.1874  0.2276
  124OSM    H4S13158   3.946   0.201   6.820  1.9504 -0.0254  0.4645
  124OSM    C5S13159   3.984   0.401   6.756 -0.0498 -0.9582  0.4180
  124OSM    H5S13160   3.988   0.470   6.671 -0.6401  1.3222  2.1424
  124OSM    C6S13161   4.024   0.469   6.891  0.1798 -0.2022  0.5770
  124OSM    H6S13162   3.983   0.571   6.901  0.3936 -0.0725  0.1448
  124OSM    H6T13163   4.134   0.484   6.880 -0.0529  0.0560 -1.7989
  124OSM    C7S13164   3.985   0.397   7.019 -0.5487 -0.7323 -0.5811
  124OSM    H7S13165   3.994   0.287   7.005 -1.3870 -0.6843 -1.5858
  124OSM    H7T13166   3.877   0.419   7.032 -0.2774 -0.2096  0.9490
  124OSM    C8S13167   4.066   0.454   7.139  0.1029  0.2055  0.2337
  124OSM    H8S13168   4.042   0.562   7.130  0.0170  0.0046 -2.7255
  124OSM    H8T13169   4.176   0.444   7.126  0.0304 -0.3509  0.0582
  124OSM    C9S13170   4.017   0.404   7.278  0.1794  0.2592 -0.7284
  124OSM    H9S13171   4.028   0.294   7.266  0.9030  0.4033 -1.4721
  124OSM    H9T13172   3.913   0.419   7.313  0.2730 -3.8375  1.9334
  124OSM   C10S13173   4.103   0.454   7.400 -0.0614  0.1657 -0.1561
  124OSM   H10S13174   4.064   0.556   7.424 -2.1774 -1.1466  2.6408
  124OSM   H10T13175   4.210   0.447   7.371 -0.6724 -1.3507 -2.2804
  124OSM   C11S13176   4.078   0.363   7.520  0.3311 -0.5073 -0.4887
  124OSM   H11S13177   4.089   0.254   7.502  1.6771 -1.2824  3.8129
  124OSM   H11T13178   3.974   0.379   7.555 -1.0584 -1.6488 -3.7177
  124OSM   C12S13179   4.162   0.402   7.644 -0.2315  0.5178  0.1084
  124OSM   H12S13180   4.155   0.510   7.666  0.5948  0.3285  1.4586
  124OSM   H12T13181   4.270   0.377   7.641 -0.7540 -2.1377  0.1857
  124OSM   C13S13182   4.105   0.333   7.771 -0.2194  0.4465  0.6960
  124OSM   H13S13183   4.075   0.230   7.744  0.1236  0.7015 -0.7111
  124OSM   H13T13184   4.012   0.384   7.805  1.1237  2.3762  1.6876
  124OSM   C14S13185   4.196   0.351   7.896  0.0358 -0.0121 -0.3184
  124OSM   H14S13186   4.254   0.445   7.890 -2.1899  1.3809 -1.2168
  124OSM   H14T13187   4.270   0.269   7.882 -0.9297 -0.9207 -0.2640
  124OSM   C15S13188   4.120   0.327   8.027 -0.1490  0.5921  0.4424
  124OSM   H15S13189   4.080   0.223   8.022  0.5029  0.3319  0.5888
  124OSM   H15T13190   4.029   0.391   8.032 -0.5884 -0.0184  0.4625
  124OSM   C16S13191   4.213   0.340   8.145  0.0053 -0.2572  0.4215
  124OSM   H16S13192   4.247   0.445   8.158 -1.1894  0.2413 -0.3875
  124OSM   H16T13193   4.305   0.279   8.128  2.4675  2.4531  2.7856
  124OSM   C17S13194   4.141   0.287   8.273 -0.2513 -0.1344  0.4178
  124OSM   H17S13195   4.113   0.182   8.250 -2.0462  1.0122 -3.4679
  124OSM   H17T13196   4.049   0.345   8.295 -0.5256 -1.1426  2.0760
  124OSM   C18S13197   4.218   0.291   8.398 -0.0065 -0.4813 -0.5246
  124OSM   H18S13198   4.151   0.258   8.481 -2.3375  1.8099 -1.3699
  124OSM   H18T13199   4.255   0.391   8.427 -0.4030 -0.2341 -0.8567
  124OSM   H18U13200   4.300   0.217   8.392  0.2318 -0.1944 -0.8193
  124OSM    C1F13201   3.599   0.386   6.591 -0.1118  0.8009 -0.2425
  124OSM     OF13202   3.522   0.299   6.634 -0.1357  0.6293  0.3656
  124OSM    C2F13203   3.547   0.514   6.528 -0.4684  0.4545  0.1184
  124OSM    H2F13204   3.496   0.474   6.438 -2.4499 -1.0087  1.7769
  124OSM    H2G13205   3.623   0.587   6.494  1.3860 -0.9890  0.9723
  124OSM    C3F13206   3.449   0.580   6.627  0.0732  0.1365  0.3833
  124OSM    H3F13207   3.355   0.523   6.645  0.3402 -0.0300  1.3111
  124OSM    H3G13208   3.418   0.677   6.582  1.9198  0.7196  0.2865
  124OSM    C4F13209   3.506   0.617   6.768  0.4099  0.1950 -0.3216
  124OSM    H4F13210   3.550   0.524   6.810 -0.2470  1.1798  2.7866
  124OSM    H4G13211   3.418   0.654   6.824  1.4011 -0.3912  1.7295
  124OSM    C5F13212   3.617   0.719   6.765 -0.5953 -0.5846  0.3062
  124OSM    H5F13213   3.574   0.814   6.726  1.7760  0.8366  0.9470
  124OSM    H5G13214   3.699   0.688   6.698  0.2743  3.4240 -0.7619
  124OSM    C6F13215   3.676   0.727   6.899 -0.3270  0.5601 -0.4913
  124OSM    H6F13216   3.776   0.774   6.895  0.5477 -1.0567  0.9442
  124OSM    H6G13217   3.696   0.629   6.947  3.1350  1.0919 -0.5929
  124OSM    C7F13218   3.594   0.809   6.994  0.4763 -0.0975 -1.2960
  124OSM    H7F13219   3.505   0.747   7.019  1.2359 -0.2807  1.1507
  124OSM    H7G13220   3.562   0.902   6.943  1.3032 -0.0156 -1.6827
  124OSM    C8F13221   3.667   0.838   7.130 -0.1217 -0.5091 -0.1783
  124OSM    H8F13222   3.585   0.874   7.195  1.9821  1.6132  1.4590
  124OSM    H8G13223   3.726   0.921   7.085  1.5902 -2.3963 -1.6610
  124OSM    C9F13224   3.750   0.733   7.202  0.0535  0.8808 -0.6497
  124OSM    H9F13225   3.821   0.679   7.137  1.1738  0.5085  0.8300
  124OSM   C10F13226   3.755   0.690   7.334  0.1138  0.0978 -0.4204
  124OSM   H10F13227   3.816   0.605   7.365  1.4914  1.5352  1.0354
  124OSM   C11F13228   3.683   0.753   7.446 -0.9873 -0.8268  0.2983
  124OSM   H11F13229   3.597   0.693   7.481 -1.9363 -0.3459 -1.1243
  124OSM   H11G13230   3.635   0.849   7.420 -0.1529 -0.1459  1.1921
  124OSM   C12F13231   3.779   0.781   7.562  0.2027  0.0241 -0.1769
  124OSM   H12F13232   3.868   0.836   7.524 -0.4480  1.3636  0.1826
  124OSM   H12G13233   3.808   0.682   7.603 -1.6736 -0.3759  0.2401
  124OSM   C13F13234   3.722   0.846   7.696  0.3661 -0.2744 -0.0478
  124OSM   H13F13235   3.656   0.769   7.742 -4.0355  2.3616 -1.4210
  124OSM   H13G13236   3.654   0.926   7.660 -1.2348 -1.0797  1.0834
  124OSM   C14F13237   3.828   0.882   7.797 -0.3080  0.2359 -0.6543
  124OSM   H14F13238   3.923   0.905   7.744  0.6281 -1.8495  0.0032
  124OSM   H14G13239   3.851   0.795   7.862  1.5581  1.1010 -0.0989
  124OSM   C15F13240   3.786   0.999   7.887 -0.1352 -0.2704  0.1757
  124OSM   H15F13241   3.694   0.969   7.941 -0.0933 -0.2418  0.2624
  124OSM   H15G13242   3.750   1.082   7.822 -0.6141  0.4292  1.3082
  124OSM   C16F13243   3.880   1.070   7.983 -0.2940 -1.2727 -0.1183
  124OSM   H16F13244   3.960   1.128   7.932 -0.0332 -2.0989 -0.6709
  124OSM   H16G13245   3.933   0.992   8.043 -0.3160  1.1200  3.3550
  124OSM   C17F13246   3.821   1.164   8.088 -0.2770  0.2378 -0.2180
  124OSM   H17F13247   3.733   1.113   8.132  0.0022  0.0166  0.0911
  124OSM   H17G13248   3.787   1.255   8.033 -0.8909  0.9884  1.3373
  124OSM   C18F13249   3.925   1.202   8.192 -0.2057  0.0808 -0.2168
  124OSM   H18F13250   4.023   1.231   8.148  0.4208 -0.7738  0.5708
  124OSM   H18G13251   3.959   1.113   8.249  1.2723  0.2746 -0.7451
  124OSM   H18H13252   3.880   1.281   8.254 -0.7303 -0.2363 -0.1845
  125OSM      N13253   6.109   5.709   6.038  0.2496 -0.5605  0.5282
  125OSM    C1513254   6.129   5.808   6.147  0.1070 -0.8021 -0.2424
  125OSM   H15A13255   6.103   5.763   6.241 -1.7986 -1.2247 -0.9223
  125OSM   H15B13256   6.060   5.888   6.124  0.2671 -1.0188 -1.5440
  125OSM   H15C13257   6.229   5.849   6.149  0.1020 -0.6354 -1.7846
  125OSM    C1413258   6.133   5.786   5.910 -0.1062  0.6653 -0.0859
  125OSM   H14A13259   6.045   5.846   5.890  0.3428  1.1577 -0.5795
  125OSM   H14B13260   6.142   5.712   5.832 -0.4383 -1.2168  1.5489
  125OSM   H14C13261   6.224   5.843   5.906  1.5499 -1.9046 -1.2433
  125OSM    C1313262   6.229   5.615   6.043 -0.0358  0.0877  0.2839
  125OSM   H13A13263   6.233   5.556   6.134  0.4629 -1.2921 -0.6112
  125OSM   H13B13264   6.312   5.677   6.016 -1.5349  1.9261 -0.3448
  125OSM   H13C13265   6.217   5.540   5.966 -0.3957 -0.4350  0.8351
  125OSM    C1213266   5.975   5.633   6.031 -0.2524 -0.7417  0.0852
  125OSM   H12A13267   5.898   5.707   6.014  0.8052  0.3901  0.0613
  125OSM   H12B13268   5.949   5.601   6.131  1.3128  1.8547  1.4271
  125OSM    C1113269   5.965   5.526   5.919 -0.3029  0.0985  0.5941
  125OSM   H11A13270   6.001   5.567   5.823 -0.3590 -0.0092  0.5272
  125OSM   H11B13271   5.859   5.494   5.912 -0.6718  1.0917  1.2697
  125OSM      P13272   6.027   5.304   6.062  0.0878 -0.4529 -0.5845
  125OSM    O1313273   5.886   5.251   6.060 -0.1997 -0.0660 -0.1574
  125OSM    O1413274   6.124   5.201   6.040 -0.1550 -0.2843  0.1812
  125OSM    O1113275   6.055   5.386   6.192 -0.3801  0.3072  0.6270
  125OSM    O1213276   6.044   5.411   5.949  0.5661 -0.5553 -0.4125
  125OSM    C1S13277   5.993   5.368   6.319  0.5591 -0.4129 -1.0319
  125OSM    H1S13278   5.946   5.268   6.329 -0.3435 -0.0704 -1.6512
  125OSM    H1T13279   5.904   5.435   6.321 -0.6848 -1.9655 -2.0244
  125OSM     NF13280   6.007   5.364   6.558  0.1478 -0.2838 -0.0746
  125OSM    HNF13281   5.964   5.439   6.608  1.1943  1.6383 -1.8488
  125OSM    C2S13282   6.084   5.384   6.439  0.7800  0.0894  0.6441
  125OSM    H2S13283   6.163   5.306   6.447  0.7315  0.2018  2.7843
  125OSM    C3S13284   6.154   5.522   6.434 -0.2362  0.1179  0.0784
  125OSM    H3S13285   6.078   5.601   6.417  0.4695  0.7637 -0.0913
  125OSM     O313286   6.253   5.554   6.338 -0.4252  0.1785  0.2041
  125OSM    HO313287   6.273   5.474   6.289 -0.2906  0.1927  0.2342
  125OSM    C4S13288   6.223   5.549   6.567  0.8861  0.1650  0.8532
  125OSM    H4S13289   6.183   5.634   6.624 -0.1845 -0.0607  0.4585
  125OSM    C5S13290   6.328   5.494   6.622 -0.7279 -0.2117  0.8699
  125OSM    H5S13291   6.380   5.414   6.566 -0.0347  0.2827  0.8033
  125OSM    C6S13292   6.394   5.536   6.752  0.2994  0.1443  0.1915
  125OSM    H6S13293   6.333   5.608   6.810 -0.0898  2.3878 -2.7699
  125OSM    H6T13294   6.496   5.580   6.747  1.4048 -2.1691  0.7310
  125OSM    C7S13295   6.396   5.411   6.848  0.4257 -0.7125 -0.0372
  125OSM    H7S13296   6.416   5.446   6.952  0.7292 -1.1515  0.0562
  125OSM    H7T13297   6.481   5.347   6.818  0.7303  0.3669 -1.5617
  125OSM    C8S13298   6.269   5.320   6.860 -0.3686 -0.6509  0.0920
  125OSM    H8S13299   6.246   5.297   6.754 -0.0131  3.5715 -1.0999
  125OSM    H8T13300   6.186   5.385   6.896 -1.0343 -0.3428 -1.8983
  125OSM    C9S13301   6.288   5.196   6.946 -0.5369  0.3305 -0.3797
  125OSM    H9S13302   6.381   5.148   6.907 -1.0097 -0.5955 -0.3968
  125OSM    H9T13303   6.197   5.134   6.929 -1.0432  1.5447 -2.4787
  125OSM   C10S13304   6.305   5.233   7.096  0.3872 -0.5773  0.9221
  125OSM   H10S13305   6.219   5.297   7.124  0.4811  0.6445 -1.3868
  125OSM   H10T13306   6.398   5.292   7.110  0.3697  0.0568 -1.3501
  125OSM   C11S13307   6.311   5.112   7.180 -0.5932  0.1311 -0.2308
  125OSM   H11S13308   6.413   5.067   7.179 -0.4435  0.4188  0.8285
  125OSM   H11T13309   6.244   5.027   7.154  1.0737 -1.9277  1.7514
  125OSM   C12S13310   6.284   5.129   7.337 -0.7135  0.2839  1.2778
  125OSM   H12S13311   6.219   5.051   7.384 -2.9211  1.6622  0.6980
  125OSM   H12T13312   6.214   5.215   7.345 -0.0042  0.7162  3.2848
  125OSM   C13S13313   6.408   5.168   7.407 -0.1341  0.7909  0.1175
  125OSM   H13S13314   6.458   5.251   7.354  0.1306  0.9401  0.5878
  125OSM   H13T13315   6.472   5.077   7.396 -0.0170  0.7115  1.2965
  125OSM   C14S13316   6.385   5.216   7.552 -0.1612 -1.1523 -0.0822
  125OSM   H14S13317   6.334   5.315   7.547 -1.1589 -1.5579  1.3438
  125OSM   H14T13318   6.492   5.230   7.579  0.0297 -1.4414 -0.6830
  125OSM   C15S13319   6.313   5.116   7.647  0.0523  0.1022  0.4564
  125OSM   H15S13320   6.362   5.017   7.642  1.6184  0.8946 -0.9162
  125OSM   H15T13321   6.206   5.104   7.617 -0.1906 -0.2734  1.4484
  125OSM   C16S13322   6.321   5.156   7.793  0.1319  0.1036  0.0527
  125OSM   H16S13323   6.288   5.261   7.796 -1.6508 -0.3166 -2.0095
  125OSM   H16T13324   6.428   5.146   7.822 -0.2778 -1.5369  1.1284
  125OSM   C17S13325   6.231   5.067   7.889  0.1380  0.5198 -0.2025
  125OSM   H17S13326   6.301   4.998   7.940 -1.0590 -0.6006 -0.0165
  125OSM   H17T13327   6.157   5.003   7.835  0.3994  0.8407 -0.9493
  125OSM   C18S13328   6.150   5.158   7.983 -0.4479 -0.2848 -0.3673
  125OSM   H18S13329   6.214   5.205   8.061  0.8392 -2.3998 -0.0907
  125OSM   H18T13330   6.064   5.107   8.033 -0.3624  2.5814  3.1196
  125OSM   H18U13331   6.097   5.233   7.920 -0.4118  0.8326  0.8892
  125OSM    C1F13332   5.963   5.242   6.587 -0.0509 -0.0259  0.5440
  125OSM     OF13333   5.993   5.148   6.510 -0.6101  0.3221 -0.0451
  125OSM    C2F13334   5.880   5.230   6.710  0.1372 -0.2830 -0.0128
  125OSM    H2F13335   5.775   5.257   6.686 -0.5686 -4.1552 -2.2455
  125OSM    H2G13336   5.922   5.291   6.793 -0.6827 -0.2763  0.4000
  125OSM    C3F13337   5.867   5.078   6.751 -0.2313  0.5875  0.1851
  125OSM    H3F13338   5.972   5.044   6.765 -0.3819 -0.7062 -1.4347
  125OSM    H3G13339   5.814   5.013   6.678  1.3554 -1.6358  0.8926
  125OSM    C4F13340   5.798   5.050   6.884  0.1161  0.4349  0.2914
  125OSM    H4F13341   5.767   4.944   6.884  0.1124  0.4330  0.8226
  125OSM    H4G13342   5.711   5.119   6.891 -1.6335 -1.6087 -0.2914
  125OSM    C5F13343   5.895   5.050   7.007  0.3144  0.0314  0.5413
  125OSM    H5F13344   5.901   5.158   7.031 -3.5878  0.7477 -1.0069
  125OSM    H5G13345   5.994   5.006   6.982  0.6398  0.3113  1.2935
  125OSM    C6F13346   5.847   4.977   7.127 -0.1315 -0.6590 -0.4764
  125OSM    H6F13347   5.852   4.867   7.112 -0.4398 -0.5966 -1.0738
  125OSM    H6G13348   5.741   5.006   7.147 -1.0836 -4.2143  0.4058
  125OSM    C7F13349   5.932   5.013   7.252 -0.0646 -0.4063  0.1931
  125OSM    H7F13350   5.924   5.124   7.257 -0.8022 -0.4461 -0.0698
  125OSM    H7G13351   6.040   4.992   7.238  0.0269  0.2924 -0.1943
  125OSM    C8F13352   5.893   4.955   7.387  0.5002  0.3413 -0.7298
  125OSM    H8F13353   5.898   4.844   7.375  0.3059  0.2772 -0.2407
  125OSM    H8G13354   5.784   4.970   7.399  0.2829 -2.4414  1.9814
  125OSM    C9F13355   5.971   4.995   7.506 -0.7006  0.6523  0.7058
  125OSM    H9F13356   6.073   4.953   7.500 -1.0213 -0.1390  0.6317
  125OSM   C10F13357   5.933   5.065   7.614  0.4786  0.1046  0.3975
  125OSM   H10F13358   6.003   5.081   7.697 -1.5467  2.0274  1.8668
  125OSM   C11F13359   5.801   5.127   7.643  0.5475 -0.2058 -0.2187
  125OSM   H11F13360   5.744   5.145   7.550  2.0993  2.0315 -0.8342
  125OSM   H11G13361   5.809   5.229   7.688  0.6991  0.7037 -2.1954
  125OSM   C12F13362   5.711   5.034   7.726 -0.2737 -0.3901 -0.3193
  125OSM   H12F13363   5.754   4.933   7.707  1.5514  0.1600  0.7093
  125OSM   H12G13364   5.605   5.051   7.699  0.0195  0.9812 -0.6776
  125OSM   C13F13365   5.738   5.053   7.874  1.0705 -0.5670  0.4467
  125OSM   H13F13366   5.722   5.159   7.902 -1.7328 -1.0636  1.0458
  125OSM   H13G13367   5.844   5.051   7.905  0.6436  1.2350  2.1705
  125OSM   C14F13368   5.645   4.961   7.951 -0.1742  0.5458 -0.0319
  125OSM   H14F13369   5.661   4.856   7.917 -2.0461  0.0996  0.3875
  125OSM   H14G13370   5.541   4.990   7.929  0.0697  0.6553 -1.1226
  125OSM   C15F13371   5.671   4.961   8.104 -0.6096  0.1660  0.7788
  125OSM   H15F13372   5.679   5.067   8.136 -0.2348  0.6519 -0.8200
  125OSM   H15G13373   5.764   4.906   8.132 -1.3800 -1.9831 -0.6370
  125OSM   C16F13374   5.558   4.884   8.180 -0.2950  0.5830  0.0615
  125OSM   H16F13375   5.552   4.778   8.146  1.1337 -0.1034  1.7826
  125OSM   H16G13376   5.456   4.920   8.154 -2.0804 -2.0858  2.7177
  125OSM   C17F13377   5.595   4.888   8.327 -0.4697  0.0702 -0.2108
  125OSM   H17F13378   5.594   4.990   8.370 -0.8245 -0.5629  1.3498
  125OSM   H17G13379   5.700   4.852   8.336 -0.1818  1.3397  2.6712
  125OSM   C18F13380   5.499   4.808   8.416  0.2591  0.3014  0.2404
  125OSM   H18F13381   5.401   4.817   8.366  1.5197 -0.3952 -2.5780
  125OSM   H18G13382   5.490   4.844   8.520  1.9523 -0.1001  0.5617
  125OSM   H18H13383   5.515   4.699   8.431 -1.8544 -0.2782 -1.2790
  126OSM      N13384   1.795   0.416   6.213  0.1800 -0.0993 -0.0871
  126OSM    C1513385   1.783   0.322   6.099  0.5430 -0.3151 -0.3612
  126OSM   H15A13386   1.682   0.285   6.094  0.4583  0.0153 -1.4369
  126OSM   H15B13387   1.847   0.235   6.104 -0.1237 -0.7471  2.8572
  126OSM   H15C13388   1.798   0.384   6.012  2.3458 -0.2473 -0.0407
  126OSM    C1413389   1.913   0.496   6.197  0.0902 -0.3961  0.7655
  126OSM   H14A13390   1.916   0.529   6.094 -0.9525 -1.3694  0.4012
  126OSM   H14B13391   2.001   0.446   6.236  0.5449  0.9580  1.5256
  126OSM   H14C13392   1.906   0.585   6.257 -0.6763  0.7775 -0.9892
  126OSM    C1313393   1.676   0.507   6.210 -0.3820  0.2629  0.7804
  126OSM   H13A13394   1.584   0.456   6.236 -0.7652  0.6841  0.2598
  126OSM   H13B13395   1.664   0.546   6.110 -2.2024 -2.1824 -0.0431
  126OSM   H13C13396   1.689   0.585   6.284  1.4104  1.2596 -0.5004
  126OSM    C1213397   1.795   0.346   6.343  0.5273  0.2986 -0.3248
  126OSM   H12A13398   1.704   0.288   6.350  1.1493 -0.5152  1.7988
  126OSM   H12B13399   1.790   0.410   6.430  1.7661  3.0237 -2.1582
  126OSM    C1113400   1.905   0.244   6.378  0.1956  0.0182 -0.2910
  126OSM   H11A13401   1.922   0.224   6.486  2.7136 -1.1010 -0.8082
  126OSM   H11B13402   1.995   0.296   6.339 -0.0784  0.8651  0.1914
  126OSM      P13403   1.785   0.014   6.336  0.0588 -0.1226  0.0304
  126OSM    O1313404   1.654   0.058   6.291  0.0166  0.2508 -0.6060
  126OSM    O1413405   1.840  -0.116   6.292  0.0109 -0.6719  0.3007
  126OSM    O1113406   1.784   0.010   6.493 -0.5564 -0.7745 -0.5314
  126OSM    O1213407   1.893   0.124   6.301  0.0920 -0.0209  0.9568
  126OSM    C1S13408   1.897  -0.040   6.572  0.2299  0.3452  0.3435
  126OSM    H1S13409   1.991  -0.027   6.514  1.1370  3.0646  2.2143
  126OSM    H1T13410   1.884  -0.150   6.584 -0.7305  0.4202  0.0970
  126OSM     NF13411   2.032  -0.002   6.785 -0.5233 -0.7044 -1.0731
  126OSM    HNF13412   2.031  -0.070   6.857  1.2746  0.9186  0.6242
  126OSM    C2S13413   1.913   0.035   6.712 -0.4828  0.2349 -0.3773
  126OSM    H2S13414   1.911   0.146   6.698  0.1022  0.6177  2.0869
  126OSM    C3S13415   1.783   0.021   6.801  0.0180  0.2727  0.0768
  126OSM    H3S13416   1.763  -0.085   6.831 -0.7347  0.1360 -0.8471
  126OSM     O313417   1.664   0.052   6.727 -0.3239 -0.2733  0.5527
  126OSM    HO313418   1.689   0.051   6.634 -0.8369  0.4021  0.3957
  126OSM    C4S13419   1.793   0.100   6.929  0.2064  0.5442 -0.3971
  126OSM    H4S13420   1.893   0.090   6.975  0.2304 -0.3670 -0.6153
  126OSM    C5S13421   1.701   0.172   6.982  0.6299 -0.2737 -0.0004
  126OSM    H5S13422   1.601   0.171   6.938  0.7757 -1.4547 -0.3475
  126OSM    C6S13423   1.717   0.230   7.118 -1.1246  0.1779 -0.2746
  126OSM    H6S13424   1.625   0.285   7.147 -1.2709 -1.3022  2.3561
  126OSM    H6T13425   1.785   0.317   7.108 -2.7681  1.4316 -1.1676
  126OSM    C7S13426   1.761   0.151   7.240  0.0482  0.4771  0.4078
  126OSM    H7S13427   1.858   0.103   7.218 -1.2495 -1.5291 -1.4583
  126OSM    H7T13428   1.688   0.068   7.251 -0.8880  1.3571  1.1188
  126OSM    C8S13429   1.765   0.226   7.366 -0.3693 -0.5735 -0.2537
  126OSM    H8S13430   1.664   0.267   7.387 -0.7805 -0.8844 -1.5298
  126OSM    H8T13431   1.831   0.315   7.358  1.1318 -1.2538  2.7368
  126OSM    C9S13432   1.808   0.131   7.480  0.6470  0.3222 -0.5324
  126OSM    H9S13433   1.898   0.074   7.449  1.0933  1.3471 -1.1563
  126OSM    H9T13434   1.734   0.048   7.476 -0.5357  1.2423  1.2239
  126OSM   C10S13435   1.829   0.201   7.610  0.4834 -0.4807 -1.0371
  126OSM   H10S13436   1.736   0.242   7.654  0.4666 -0.0615 -1.4542
  126OSM   H10T13437   1.905   0.280   7.588 -1.0551  1.7874  1.2691
  126OSM   C11S13438   1.902   0.100   7.703 -0.0511 -1.3937 -0.5599
  126OSM   H11S13439   1.994   0.064   7.653  1.6065  1.6602  0.0612
  126OSM   H11T13440   1.824   0.023   7.724 -0.8878  0.2177  3.0615
  126OSM   C12S13441   1.938   0.166   7.838 -0.0657  0.9717  0.5404
  126OSM   H12S13442   1.911   0.274   7.836 -1.4912  0.7531  3.2635
  126OSM   H12T13443   2.048   0.148   7.843 -0.3599 -2.0415 -1.3063
  126OSM   C13S13444   1.870   0.097   7.960 -0.6130 -0.1975  1.2728
  126OSM   H13S13445   1.885  -0.011   7.941  0.1688  0.2719 -1.0845
  126OSM   H13T13446   1.762   0.124   7.959  0.0737  2.9967  1.5010
  126OSM   C14S13447   1.946   0.133   8.085 -0.5455 -0.6533  0.0452
  126OSM   H14S13448   1.939   0.243   8.098 -0.2154 -0.5755 -0.4113
  126OSM   H14T13449   2.055   0.116   8.079  0.0424  2.5953 -0.6753
  126OSM   C15S13450   1.888   0.055   8.209 -0.0342  0.0023  0.0553
  126OSM   H15S13451   1.917  -0.052   8.207 -0.7732 -0.2876  2.1693
  126OSM   H15T13452   1.777   0.061   8.210  0.0053  0.8499  0.1281
  126OSM   C16S13453   1.945   0.111   8.341 -0.1875  0.2303 -0.4916
  126OSM   H16S13454   1.892   0.048   8.414  1.3836 -1.4012 -0.6973
  126OSM   H16T13455   1.908   0.212   8.369 -1.1531  0.6027 -2.8555
  126OSM   C17S13456   2.090   0.089   8.359 -0.5604 -0.2497  0.0734
  126OSM   H17S13457   2.148   0.155   8.290  0.9366 -2.5365 -0.9595
  126OSM   H17T13458   2.119  -0.013   8.326 -0.4127 -0.6099  1.2928
  126OSM   C18S13459   2.139   0.124   8.501  0.8199  0.0461  0.4800
  126OSM   H18S13460   2.111   0.228   8.531  2.4962  0.2036  1.6386
  126OSM   H18T13461   2.248   0.111   8.513  0.9466 -1.0896 -1.5466
  126OSM   H18U13462   2.097   0.052   8.574 -1.2537 -0.5711 -1.2094
  126OSM    C1F13463   2.152   0.023   6.736  0.3794  0.1276  0.2034
  126OSM     OF13464   2.173   0.101   6.646 -0.3344  0.1616  0.2012
  126OSM    C2F13465   2.265  -0.062   6.786 -0.1814  0.2712  0.6316
  126OSM    H2F13466   2.305  -0.134   6.712 -1.1779 -2.1138  2.2954
  126OSM    H2G13467   2.237  -0.125   6.873  0.3827 -1.2255 -0.2304
  126OSM    C3F13468   2.381   0.024   6.839 -0.2986 -0.4754  0.0454
  126OSM    H3F13469   2.433   0.053   6.745 -3.3478 -2.1689 -2.3622
  126OSM    H3G13470   2.457  -0.036   6.893  0.6098  0.2725 -0.3773
  126OSM    C4F13471   2.335   0.138   6.932 -0.1459  0.0859 -0.4223
  126OSM    H4F13472   2.278   0.224   6.892 -2.0107 -0.1232  1.5851
  126OSM    H4G13473   2.429   0.185   6.968 -1.8014  0.7890  3.5097
  126OSM    C5F13474   2.269   0.073   7.056  0.3566  0.1174 -0.4335
  126OSM    H5F13475   2.324  -0.021   7.078 -1.9588 -0.6011  2.9973
  126OSM    H5G13476   2.168   0.033   7.036  1.9727 -4.1050 -1.0841
  126OSM    C6F13477   2.291   0.159   7.175  0.0160 -0.2175 -0.3219
  126OSM    H6F13478   2.262   0.262   7.143  3.4871  0.8705 -0.3823
  126OSM    H6G13479   2.399   0.177   7.195  0.2589 -1.5411 -0.3520
  126OSM    C7F13480   2.212   0.103   7.288 -0.3086  0.5931  0.7716
  126OSM    H7F13481   2.264   0.023   7.344  1.2029  0.8198 -0.2507
  126OSM    H7G13482   2.121   0.053   7.248  1.2978 -1.5183 -0.3988
  126OSM    C8F13483   2.170   0.211   7.386 -0.1898 -0.0487 -0.8004
  126OSM    H8F13484   2.120   0.156   7.469 -0.2049  1.0959 -0.0162
  126OSM    H8G13485   2.097   0.275   7.332 -0.1576 -0.1725 -0.9890
  126OSM    C9F13486   2.286   0.298   7.440 -0.2909  0.2465  0.5451
  126OSM    H9F13487   2.334   0.371   7.373 -0.0300  1.7229  2.2683
  126OSM   C10F13488   2.349   0.269   7.559  0.3958 -0.3634  0.2745
  126OSM   H10F13489   2.425   0.338   7.600  0.9301 -0.7114 -0.1330
  126OSM   C11F13490   2.324   0.156   7.659 -0.7929  0.3651  0.2339
  126OSM   H11F13491   2.227   0.104   7.647 -0.3257 -0.9153  1.6572
  126OSM   H11G13492   2.336   0.202   7.759  0.9973  2.4336 -0.8527
  126OSM   C12F13493   2.433   0.043   7.647 -0.1661  0.0767 -0.0097
  126OSM   H12F13494   2.533   0.092   7.646  0.2823 -0.7963 -1.3918
  126OSM   H12G13495   2.420  -0.016   7.553  1.6878  0.7495 -0.7444
  126OSM   C13F13496   2.414  -0.059   7.767  0.8124 -0.1468  0.5797
  126OSM   H13F13497   2.315  -0.109   7.758  0.3995  0.7308  0.1508
  126OSM   H13G13498   2.401   0.009   7.854 -0.5439  0.0386  0.2504
  126OSM   C14F13499   2.519  -0.156   7.774 -0.5130  0.0280 -0.0816
  126OSM   H14F13500   2.617  -0.109   7.755 -1.1996  1.9668  0.9269
  126OSM   H14G13501   2.504  -0.233   7.695 -0.4535  0.9904 -1.0593
  126OSM   C15F13502   2.527  -0.229   7.906 -0.1753 -0.2592 -0.1616
  126OSM   H15F13503   2.604  -0.305   7.883  0.9461  0.7969 -0.0437
  126OSM   H15G13504   2.435  -0.284   7.935 -0.7510  1.4461  1.5214
  126OSM   C16F13505   2.565  -0.138   8.027 -0.4712  0.4069  0.1595
  126OSM   H16F13506   2.486  -0.064   8.050  1.1776  1.8896  1.3721
  126OSM   H16G13507   2.662  -0.094   7.995  1.5770 -3.2577  0.7828
  126OSM   C17F13508   2.576  -0.219   8.157 -0.4467 -0.1235  0.1596
  126OSM   H17F13509   2.652  -0.299   8.141 -0.3093  0.2416 -1.1311
  126OSM   H17G13510   2.479  -0.267   8.181 -1.0433  0.0238 -1.8295
  126OSM   C18F13511   2.623  -0.140   8.277  0.3426  0.4678 -0.5774
  126OSM   H18F13512   2.643  -0.197   8.370 -0.1577  1.9228  0.4664
  126OSM   H18G13513   2.557  -0.057   8.311 -0.3959  0.1220 -1.1380
  126OSM   H18H13514   2.720  -0.092   8.252 -0.4667  2.5732  0.1405
  127OSM      N13515   0.091   5.178   6.256 -1.0815 -0.3949  0.8132
  127OSM    C1513516   0.001   5.065   6.271 -0.6649  0.9901  0.2310
  127OSM   H15A13517  -0.024   5.020   6.176 -0.3563 -1.9961  1.4639
  127OSM   H15B13518  -0.101   5.081   6.302 -1.0998  1.1962 -1.2192
  127OSM   H15C13519   0.048   4.987   6.328  0.6521  1.8058  0.3131
  127OSM    C1413520   0.036   5.282   6.165  0.2736  0.0717 -0.0302
  127OSM   H14A13521  -0.058   5.314   6.208  1.2029  2.5517  0.2868
  127OSM   H14B13522   0.018   5.254   6.062  0.4286  0.8290 -0.2650
  127OSM   H14C13523   0.090   5.375   6.163 -1.1783  0.9556 -0.1408
  127OSM    C1313524   0.102   5.238   6.399 -0.2262 -0.6287 -0.2612
  127OSM   H13A13525   0.003   5.255   6.439  0.8976  0.5703  2.2248
  127OSM   H13B13526   0.155   5.332   6.395  0.1285 -0.8579 -1.2487
  127OSM   H13C13527   0.158   5.164   6.454  1.7007 -0.9145 -2.4252
  127OSM    C1213528   0.230   5.131   6.210  0.0774  0.0197 -0.8629
  127OSM   H12A13529   0.302   5.211   6.216  0.6484 -0.4298 -1.6009
  127OSM   H12B13530   0.222   5.093   6.110 -0.6369  0.6127 -1.0376
  127OSM    C1113531   0.305   5.029   6.296  0.0870  0.2745  0.5357
  127OSM   H11A13532   0.389   5.004   6.228  0.2587 -0.5276  1.0348
  127OSM   H11B13533   0.240   4.939   6.310 -1.1472  0.9434 -0.6572
  127OSM      P13534   0.470   5.172   6.445 -0.2851 -0.3815  0.0527
  127OSM    O1313535   0.595   5.102   6.416 -0.1612 -0.4084  0.0882
  127OSM    O1413536   0.447   5.297   6.380 -0.1762  0.5397 -0.3064
  127OSM    O1113537   0.455   5.200   6.603 -0.0466 -0.3297  0.2620
  127OSM    O1213538   0.352   5.074   6.425  0.6299  0.2939 -0.1992
  127OSM    C1S13539   0.399   5.094   6.686 -0.3124 -0.2663  0.5337
  127OSM    H1S13540   0.425   4.989   6.659 -0.4982 -0.2284  0.1980
  127OSM    H1T13541   0.288   5.096   6.689 -0.2885  0.4157  1.5019
  127OSM     NF13542   0.405   4.986   6.908  0.2192  0.2912 -0.5250
  127OSM    HNF13543   0.325   5.009   6.965 -0.1214 -1.8820 -0.0121
  127OSM    C2S13544   0.452   5.100   6.832  0.2009 -0.5881  0.4905
  127OSM    H2S13545   0.562   5.089   6.821  0.5163  2.1978  0.1246
  127OSM    C3S13546   0.422   5.238   6.904  0.4717  0.2028 -0.0872
  127OSM    H3S13547   0.311   5.249   6.908  0.3493 -1.0974  0.5414
  127OSM     O313548   0.459   5.355   6.832  0.1155  0.1549 -0.2764
  127OSM    HO313549   0.478   5.314   6.747  0.0025 -0.9374  0.2047
  127OSM    C4S13550   0.490   5.240   7.046 -0.6938 -0.1815  0.3401
  127OSM    H4S13551   0.418   5.224   7.128 -3.7725  1.4434 -1.8075
  127OSM    C5S13552   0.619   5.285   7.074  0.0898 -0.5667 -0.4610
  127OSM    H5S13553   0.679   5.317   6.988 -1.2417  2.4261 -0.4261
  127OSM    C6S13554   0.696   5.273   7.205  0.0116  0.1249 -0.2023
  127OSM    H6S13555   0.708   5.379   7.237  1.5288  0.2816 -1.1862
  127OSM    H6T13556   0.802   5.240   7.199  0.1598  0.4375  0.5592
  127OSM    C7S13557   0.634   5.194   7.315  0.8206 -0.7185 -0.4131
  127OSM    H7S13558   0.614   5.090   7.282  0.2868 -0.3947 -1.1251
  127OSM    H7T13559   0.538   5.236   7.351  1.3429 -1.3874  1.9135
  127OSM    C8S13560   0.726   5.185   7.439 -0.0726  0.0783  0.4766
  127OSM    H8S13561   0.822   5.145   7.399 -0.4781 -0.7546  0.3175
  127OSM    H8T13562   0.679   5.117   7.514  1.2842 -1.9535 -0.4112
  127OSM    C9S13563   0.746   5.318   7.511 -0.2272  0.3458 -1.1554
  127OSM    H9S13564   0.647   5.352   7.549  0.3171  0.6846  0.0081
  127OSM    H9T13565   0.793   5.389   7.440  1.5602 -0.0778 -0.4497
  127OSM   C10S13566   0.835   5.301   7.631 -1.0141  0.1088  0.7003
  127OSM   H10S13567   0.851   5.404   7.671 -1.2247  0.8992 -1.1068
  127OSM   H10T13568   0.931   5.262   7.593 -1.0128  1.8752 -1.3004
  127OSM   C11S13569   0.790   5.206   7.748 -0.4564  0.3930  0.4283
  127OSM   H11S13570   0.690   5.160   7.737  0.0018 -0.8238  1.1619
  127OSM   H11T13571   0.787   5.277   7.834 -1.2957 -1.3852  1.9292
  127OSM   C12S13572   0.894   5.100   7.787  0.2484 -0.4501  0.2106
  127OSM   H12S13573   0.993   5.151   7.790 -0.5571  1.1745  0.3566
  127OSM   H12T13574   0.906   5.022   7.708  0.6602  0.2540 -0.4360
  127OSM   C13S13575   0.860   5.049   7.926 -0.2365  0.6954 -0.5981
  127OSM   H13S13576   0.765   4.992   7.937 -0.5933  1.5746  1.4416
  127OSM   H13T13577   0.845   5.138   7.992 -1.4745 -0.6129  0.9575
  127OSM   C14S13578   0.984   4.970   7.991  0.3487  0.2419  1.0550
  127OSM   H14S13579   1.074   5.034   7.982  0.8852 -0.7493 -1.6491
  127OSM   H14T13580   1.003   4.877   7.932 -1.3518  0.0553  0.7397
  127OSM   C15S13581   0.967   4.942   8.147 -0.3728  0.3133 -0.1754
  127OSM   H15S13582   0.873   4.884   8.159 -1.8575  1.8361 -3.2938
  127OSM   H15T13583   0.955   5.037   8.204 -0.9102  1.8215 -2.6599
  127OSM   C16S13584   1.087   4.856   8.198 -0.3584  0.3297  0.4035
  127OSM   H16S13585   1.177   4.920   8.211 -0.0507 -0.0047 -0.0398
  127OSM   H16T13586   1.118   4.782   8.120  0.7874  1.1699  0.0297
  127OSM   C17S13587   1.053   4.774   8.329  0.1329  0.7492 -0.6753
  127OSM   H17S13588   1.026   4.847   8.407 -2.1543 -0.7454  0.0452
  127OSM   H17T13589   1.142   4.719   8.365 -0.2797  0.1214 -0.5870
  127OSM   C18S13590   0.935   4.681   8.307  0.3193  0.8363  0.5316
  127OSM   H18S13591   0.913   4.614   8.393  0.2854  2.1916  1.6032
  127OSM   H18T13592   0.962   4.619   8.219  0.7188  0.5084  0.8796
  127OSM   H18U13593   0.836   4.729   8.294  1.1427  2.0015 -1.9514
  127OSM    C1F13594   0.466   4.866   6.911  0.5266  0.3301 -0.0267
  127OSM     OF13595   0.568   4.845   6.852 -0.0428 -0.2225  0.1972
  127OSM    C2F13596   0.412   4.772   7.009 -0.4158 -0.0938  0.7414
  127OSM    H2F13597   0.329   4.713   6.965  1.1714 -0.3948 -2.0625
  127OSM    H2G13598   0.376   4.829   7.097 -1.2803  0.0731  0.2936
  127OSM    C3F13599   0.520   4.672   7.066  0.7878  0.0671 -0.0894
  127OSM    H3F13600   0.600   4.727   7.119  0.8684  0.1764 -0.3219
  127OSM    H3G13601   0.574   4.622   6.983 -0.9363 -0.5463 -0.9056
  127OSM    C4F13602   0.459   4.572   7.156  0.5473 -0.0911  0.0301
  127OSM    H4F13603   0.391   4.503   7.102 -0.7059  1.5722 -0.5996
  127OSM    H4G13604   0.405   4.628   7.235  1.3771 -1.5315  1.6839
  127OSM    C5F13605   0.565   4.493   7.232  0.0511  0.1622  0.1195
  127OSM    H5F13606   0.641   4.564   7.271  0.8169 -0.1929 -0.7142
  127OSM    H5G13607   0.607   4.420   7.160 -0.1166 -1.4932  1.6524
  127OSM    C6F13608   0.503   4.421   7.357 -0.0627 -0.6970  0.2734
  127OSM    H6F13609   0.410   4.378   7.313 -1.3448  2.1303  0.0201
  127OSM    H6G13610   0.470   4.494   7.434  0.2736 -1.2115  0.9135
  127OSM    C7F13611   0.585   4.315   7.423 -0.4588 -1.0838  0.5067
  127OSM    H7F13612   0.686   4.352   7.449 -0.3262  0.3102 -1.7792
  127OSM    H7G13613   0.603   4.230   7.353 -2.2857 -2.8757  2.0557
  127OSM    C8F13614   0.514   4.246   7.543 -0.3621  0.1053 -0.3045
  127OSM    H8F13615   0.585   4.168   7.577 -0.9684 -0.6318 -0.7027
  127OSM    H8G13616   0.417   4.204   7.510 -0.0377 -0.4229 -0.5905
  127OSM    C9F13617   0.483   4.332   7.665 -0.0200 -0.4232 -0.2944
  127OSM    H9F13618   0.479   4.442   7.656  1.4274 -0.1876  1.3755
  127OSM   C10F13619   0.459   4.280   7.787  0.0134 -0.1271 -0.0879
  127OSM   H10F13620   0.441   4.340   7.877  0.4112  1.2471 -0.8963
  127OSM   C11F13621   0.457   4.133   7.821 -0.3283  1.0818 -0.4694
  127OSM   H11F13622   0.543   4.110   7.887 -0.3817 -0.3790 -0.8815
  127OSM   H11G13623   0.474   4.064   7.736 -2.2692 -0.0401 -0.0121
  127OSM   C12F13624   0.331   4.091   7.896  0.2514 -0.8338 -0.2267
  127OSM   H12F13625   0.245   4.104   7.825 -1.0600 -2.4779  0.9776
  127OSM   H12G13626   0.302   4.153   7.984 -1.8989 -1.6734 -0.2762
  127OSM   C13F13627   0.328   3.946   7.953 -0.2030 -0.3299 -0.3159
  127OSM   H13F13628   0.307   3.872   7.873 -0.2542 -2.4816  1.5933
  127OSM   H13G13629   0.246   3.941   8.028 -0.6167  0.5560 -0.6980
  127OSM   C14F13630   0.452   3.909   8.031  0.2831  0.0011 -0.4411
  127OSM   H14F13631   0.487   3.989   8.101  0.5444  1.3227 -2.0090
  127OSM   H14G13632   0.534   3.905   7.956  0.3777 -0.1127 -0.3316
  127OSM   C15F13633   0.441   3.780   8.105 -0.0058  0.2305 -0.6306
  127OSM   H15F13634   0.429   3.689   8.042 -0.7615  0.7584 -1.2580
  127OSM   H15G13635   0.351   3.780   8.170  1.9462 -1.4106  2.3141
  127OSM   C16F13636   0.563   3.754   8.190  0.3141 -0.1216  0.7413
  127OSM   H16F13637   0.592   3.855   8.226 -2.8386  1.2225 -0.1351
  127OSM   H16G13638   0.646   3.721   8.124 -0.6044  0.1881 -0.6197
  127OSM   C17F13639   0.523   3.668   8.310 -0.9077 -0.5289  0.0362
  127OSM   H17F13640   0.445   3.729   8.361 -0.8374  0.5527 -1.0963
  127OSM   H17G13641   0.613   3.668   8.375 -1.1553 -1.2943  0.3929
  127OSM   C18F13642   0.478   3.521   8.297  0.1487 -0.3119 -0.3534
  127OSM   H18F13643   0.437   3.489   8.395  1.4136  4.0057  1.8626
  127OSM   H18G13644   0.559   3.452   8.263  1.0540  0.1827  0.7159
  127OSM   H18H13645   0.397   3.509   8.222 -0.8453 -0.0763  0.6524
  128OSM      N13646   1.613   6.454   6.438 -0.2050  0.3743  0.7975
  128OSM    C1513647   1.757   6.424   6.401 -0.2692 -0.5746 -0.0013
  128OSM   H15A13648   1.801   6.517   6.367 -2.7106  1.2269  1.3817
  128OSM   H15B13649   1.771   6.359   6.317 -0.0735 -1.9570  1.0694
  128OSM   H15C13650   1.817   6.395   6.486  1.0257  2.5249  0.2869
  128OSM    C1413651   1.605   6.555   6.541 -0.2188 -0.1731  0.2667
  128OSM   H14A13652   1.648   6.513   6.630 -1.1511 -0.4362  0.5994
  128OSM   H14B13653   1.506   6.588   6.569 -0.0543  0.6336 -0.0524
  128OSM   H14C13654   1.669   6.632   6.499  3.4654 -3.5307 -0.9111
  128OSM    C1313655   1.548   6.510   6.319  0.5796  0.3658  0.1892
  128OSM   H13A13656   1.444   6.525   6.343  0.3912  0.7368 -0.8042
  128OSM   H13B13657   1.554   6.451   6.229 -1.0644 -0.1322  0.3862
  128OSM   H13C13658   1.588   6.607   6.292 -3.0920  1.5191 -1.7994
  128OSM    C1213659   1.536   6.323   6.477 -0.7925 -0.0679 -0.3605
  128OSM   H12A13660   1.434   6.352   6.498  0.2533  3.7431  0.0992
  128OSM   H12B13661   1.575   6.293   6.573 -0.7319  1.3435  0.0737
  128OSM    C1113662   1.529   6.208   6.375 -0.5206 -0.8332  0.0933
  128OSM   H11A13663   1.484   6.235   6.277  0.2508 -2.2961 -0.6984
  128OSM   H11B13664   1.475   6.126   6.426 -0.6043  0.2333  1.7989
  128OSM      P13665   1.735   6.049   6.405 -0.5510 -0.2786 -0.4390
  128OSM    O1313666   1.707   5.932   6.321  0.6631  0.2189 -0.4684
  128OSM    O1413667   1.878   6.085   6.417  0.4056 -0.0302 -0.0969
  128OSM    O1113668   1.681   6.028   6.551 -0.2702  0.4131  0.5844
  128OSM    O1213669   1.662   6.171   6.350 -0.1275  0.1944  0.3279
  128OSM    C1S13670   1.727   6.104   6.663  0.0635  0.3933 -0.6316
  128OSM    H1S13671   1.733   6.213   6.641 -2.7160  0.0738 -3.7216
  128OSM    H1T13672   1.829   6.069   6.688 -1.1271 -2.7296  0.1973
  128OSM     NF13673   1.664   6.199   6.881  0.2283 -0.2724  0.2942
  128OSM    HNF13674   1.728   6.180   6.955 -0.7308  0.3724  1.3060
  128OSM    C2S13675   1.633   6.093   6.788  0.3507 -0.1656  0.6889
  128OSM    H2S13676   1.531   6.105   6.747  0.0661 -0.5286  1.2825
  128OSM    C3S13677   1.653   5.954   6.855  0.4922  0.1777 -0.1877
  128OSM    H3S13678   1.757   5.942   6.892  0.8641 -1.2555 -1.6200
  128OSM     O313679   1.637   5.839   6.768 -0.2305 -0.2933 -0.2639
  128OSM    HO313680   1.597   5.875   6.688  0.6224 -0.2040 -0.6554
  128OSM    C4S13681   1.553   5.950   6.972 -0.2863 -0.0785 -0.5874
  128OSM    H4S13682   1.600   5.974   7.069  0.8913 -0.3976 -1.0675
  128OSM    C5S13683   1.422   5.912   6.963 -0.2952 -0.7850  0.2459
  128OSM    H5S13684   1.389   5.883   6.862  0.9265 -0.7241 -0.1918
  128OSM    C6S13685   1.318   5.908   7.074 -0.1691  0.0230  0.7533
  128OSM    H6S13686   1.262   5.812   7.066 -0.1657 -0.0806  1.8795
  128OSM    H6T13687   1.257   6.001   7.071 -0.2328 -0.0354 -0.0210
  128OSM    C7S13688   1.379   5.906   7.215  0.2193 -0.1564 -0.1221
  128OSM    H7S13689   1.429   6.003   7.237 -1.2266  0.4473  0.5899
  128OSM    H7T13690   1.445   5.817   7.232  0.6036  0.5392  2.5769
  128OSM    C8S13691   1.272   5.898   7.331 -0.0710 -0.3007 -0.4570
  128OSM    H8S13692   1.212   5.806   7.320  2.1130 -1.8313 -0.3512
  128OSM    H8T13693   1.209   5.990   7.326  1.3007  0.6709 -0.7277
  128OSM    C9S13694   1.328   5.906   7.475 -0.3552  0.4039 -0.8923
  128OSM    H9S13695   1.370   6.008   7.488 -1.9311  0.9427  0.1719
  128OSM    H9T13696   1.416   5.837   7.472 -1.7698 -1.4587 -1.9178
  128OSM   C10S13697   1.242   5.877   7.596 -0.2064  0.0215 -0.0962
  128OSM   H10S13698   1.168   5.794   7.589  0.1148 -0.2394 -0.4377
  128OSM   H10T13699   1.173   5.963   7.606  0.3939  0.3901  0.9401
  128OSM   C11S13700   1.318   5.862   7.726  0.2173  0.1889 -0.3353
  128OSM   H11S13701   1.406   5.930   7.727 -1.1198  2.0032 -0.2140
  128OSM   H11T13702   1.364   5.761   7.729 -0.2504 -0.0345  1.9290
  128OSM   C12S13703   1.240   5.880   7.852  0.0944 -0.0752  0.0639
  128OSM   H12S13704   1.181   5.974   7.850  0.3405  0.1137 -2.6344
  128OSM   H12T13705   1.316   5.889   7.932 -0.1060  0.3114  0.2113
  128OSM   C13S13706   1.139   5.768   7.877 -0.3017  0.0632  0.3847
  128OSM   H13S13707   1.084   5.760   7.781 -0.4469 -1.2367  0.5561
  128OSM   H13T13708   1.059   5.797   7.949 -1.4760 -0.3412 -0.7269
  128OSM   C14S13709   1.201   5.634   7.907 -0.7978  0.9837 -0.3787
  128OSM   H14S13710   1.228   5.630   8.015  0.2740 -0.8764 -0.6667
  128OSM   H14T13711   1.292   5.617   7.847 -1.8506 -0.8737 -1.5543
  128OSM   C15S13712   1.105   5.515   7.886  0.1531 -0.7059  0.2132
  128OSM   H15S13713   1.069   5.523   7.782 -0.9662 -0.9772  0.5598
  128OSM   H15T13714   1.016   5.517   7.953 -0.4854  1.3754 -0.6260
  128OSM   C16S13715   1.166   5.375   7.893  0.3213 -0.1656 -0.0770
  128OSM   H16S13716   1.251   5.373   7.821  1.4142  0.0606  1.1786
  128OSM   H16T13717   1.090   5.301   7.861  1.7049 -0.9293 -1.7914
  128OSM   C17S13718   1.225   5.344   8.035 -0.0692 -0.2966 -0.1430
  128OSM   H17S13719   1.300   5.423   8.056  0.0453 -0.5433  0.3938
  128OSM   H17T13720   1.277   5.247   8.051  0.8449  0.6639  3.5961
  128OSM   C18S13721   1.116   5.337   8.146 -0.3509  0.3500 -1.0690
  128OSM   H18S13722   1.049   5.425   8.153 -0.8336 -0.0992  0.2333
  128OSM   H18T13723   1.177   5.345   8.239 -0.4010  1.7628 -1.1337
  128OSM   H18U13724   1.062   5.240   8.147  1.5653 -0.8310  2.0065
  128OSM    C1F13725   1.619   6.319   6.856  0.2033 -0.3268  0.1886
  128OSM     OF13726   1.526   6.338   6.776  0.2915 -0.2554 -0.4352
  128OSM    C2F13727   1.682   6.428   6.931  0.1501  0.5810 -0.4218
  128OSM    H2F13728   1.755   6.484   6.869  0.0396 -0.4004 -1.4570
  128OSM    H2G13729   1.739   6.387   7.017 -0.5265  1.5932  0.5428
  128OSM    C3F13730   1.581   6.535   6.984  0.4553  0.4094  0.3958
  128OSM    H3F13731   1.547   6.602   6.902  1.0362  0.6990  0.3871
  128OSM    H3G13732   1.655   6.595   7.041  1.5161  0.1884 -0.7203
  128OSM    C4F13733   1.482   6.483   7.077  0.0501  0.0499 -0.2940
  128OSM    H4F13734   1.414   6.416   7.019  0.9030 -0.2477 -0.9731
  128OSM    H4G13735   1.418   6.569   7.106  0.1378  0.2232 -0.6149
  128OSM    C5F13736   1.543   6.397   7.189  0.6353  0.2684 -0.5220
  128OSM    H5F13737   1.650   6.411   7.214  0.4497  2.0121 -0.6012
  128OSM    H5G13738   1.554   6.295   7.146  3.3045  0.1576  0.2816
  128OSM    C6F13739   1.445   6.392   7.309 -0.6301  0.6022 -0.4977
  128OSM    H6F13740   1.349   6.371   7.258  0.0616 -0.9749 -1.2393
  128OSM    H6G13741   1.451   6.489   7.362 -1.8126  1.3379 -1.6747
  128OSM    C7F13742   1.478   6.291   7.418 -0.0207  0.2683  0.4829
  128OSM    H7F13743   1.578   6.309   7.463 -0.7548 -1.0731  2.8218
  128OSM    H7G13744   1.485   6.192   7.367 -0.8510  0.5679 -0.2503
  128OSM    C8F13745   1.381   6.278   7.536  0.1387  0.4768 -0.4097
  128OSM    H8F13746   1.394   6.178   7.584 -1.2958  0.1498 -0.6565
  128OSM    H8G13747   1.274   6.262   7.510  0.2096 -1.4647  0.3066
  128OSM    C9F13748   1.394   6.388   7.644 -0.1848  0.2668 -0.0096
  128OSM    H9F13749   1.382   6.494   7.618 -0.5408  0.4174  0.7453
  128OSM   C10F13750   1.428   6.354   7.772  0.2285 -0.5517  0.7486
  128OSM   H10F13751   1.452   6.431   7.847 -0.0719 -0.5881  0.8854
  128OSM   C11F13752   1.453   6.219   7.827  0.1065 -0.0309  0.0559
  128OSM   H11F13753   1.518   6.178   7.746 -3.0002 -2.7077 -1.3250
  128OSM   H11G13754   1.363   6.153   7.823  0.7054 -0.8317 -0.5767
  128OSM   C12F13755   1.520   6.214   7.960 -0.1014 -0.0580 -0.4070
  128OSM   H12F13756   1.624   6.251   7.973 -0.0378 -0.1611 -0.6168
  128OSM   H12G13757   1.525   6.108   7.992 -2.4217  0.5857  2.5026
  128OSM   C13F13758   1.444   6.293   8.079  0.3554  0.4242  0.2381
  128OSM   H13F13759   1.334   6.294   8.066  0.3508 -1.0897 -0.0891
  128OSM   H13G13760   1.489   6.394   8.082 -0.4001  0.7427  1.3307
  128OSM   C14F13761   1.471   6.225   8.215  0.3416  0.3530 -0.0784
  128OSM   H14F13762   1.466   6.299   8.298  1.4826 -0.5233  0.7975
  128OSM   H14G13763   1.570   6.175   8.216  0.5276  0.7075 -0.5028
  128OSM   C15F13764   1.361   6.129   8.251 -0.5098  0.5962 -0.5633
  128OSM   H15F13765   1.373   6.055   8.168 -0.1312  0.3305 -0.2767
  128OSM   H15G13766   1.266   6.183   8.230 -0.2285  2.5355  2.4905
  128OSM   C16F13767   1.363   6.067   8.393 -0.8204 -0.3165 -0.1268
  128OSM   H16F13768   1.376   6.147   8.470 -1.4912  0.3533 -0.6967
  128OSM   H16G13769   1.446   5.993   8.389 -0.0437  0.5181  0.2161
  128OSM   C17F13770   1.237   5.991   8.420 -0.8199  0.3195 -0.0597
  128OSM   H17F13771   1.158   6.069   8.427  1.2959  2.6277 -0.5320
  128OSM   H17G13772   1.264   5.945   8.517  0.7244  1.3824  0.0514
  128OSM   C18F13773   1.199   5.889   8.317 -1.4495  0.2559 -0.1151
  128OSM   H18F13774   1.126   5.823   8.368  0.5427 -0.4831  1.9616
  128OSM   H18G13775   1.285   5.820   8.296 -0.5730  0.9744  1.0365
  128OSM   H18H13776   1.166   5.930   8.219  0.7161 -0.6005 -1.2800
  129OSM      N13777   6.633   3.877   5.892 -0.4015 -0.7852 -0.4045
  129OSM    C1513778   6.707   3.765   5.831 -0.3014  0.3418 -0.4636
  129OSM   H15A13779   6.716   3.781   5.724 -1.5420  1.7387 -0.3981
  129OSM   H15B13780   6.674   3.666   5.857  1.7717 -0.5021 -0.8773
  129OSM   H15C13781   6.806   3.782   5.871 -1.3710 -0.3259  2.7509
  129OSM    C1413782   6.682   4.013   5.851  0.4828  0.1098 -0.1816
  129OSM   H14A13783   6.618   4.085   5.901 -1.4064 -0.9913 -0.8928
  129OSM   H14B13784   6.688   4.028   5.744  0.3367  1.1269 -0.0570
  129OSM   H14C13785   6.778   4.035   5.896  1.3061  2.8036 -2.8979
  129OSM    C1313786   6.495   3.864   5.829  0.3594 -0.2508  0.2780
  129OSM   H13A13787   6.504   3.870   5.722 -0.0707  2.1892  0.3071
  129OSM   H13B13788   6.433   3.945   5.865 -0.9778  0.0269 -2.3832
  129OSM   H13C13789   6.439   3.779   5.865 -0.0022  0.0218  0.3711
  129OSM    C1213790   6.618   3.863   6.040  0.5724  0.2698 -0.1825
  129OSM   H12A13791   6.716   3.865   6.085  0.9778  1.3197 -1.0396
  129OSM   H12B13792   6.568   3.768   6.047  0.8972  0.0964 -0.1810
  129OSM    C1113793   6.533   3.966   6.121  0.1230 -0.5108  0.5581
  129OSM   H11A13794   6.515   3.927   6.223 -0.2408  0.2047  0.7763
  129OSM   H11B13795   6.431   3.976   6.078 -0.6375  1.9613  2.6555
  129OSM      P13796   6.490   4.222   6.129 -0.2952 -0.1034  0.2638
  129OSM    O1313797   6.565   4.347   6.163 -0.0454 -0.5204 -0.2654
  129OSM    O1413798   6.421   4.215   5.996 -0.2850  0.1562  0.5853
  129OSM    O1113799   6.391   4.188   6.251 -0.1873 -0.2533  0.4895
  129OSM    O1213800   6.594   4.103   6.126 -0.3853 -0.0933 -0.3295
  129OSM    C1S13801   6.443   4.163   6.379 -0.0436  0.4959  0.4844
  129OSM    H1S13802   6.512   4.241   6.416 -1.9078  1.4582  2.0924
  129OSM    H1T13803   6.481   4.059   6.384  1.1803  0.7729 -1.6007
  129OSM     NF13804   6.382   4.179   6.619 -0.6115 -0.3034  0.4870
  129OSM    HNF13805   6.379   4.095   6.672 -0.7764 -0.1140  0.7805
  129OSM    C2S13806   6.328   4.169   6.489  0.1806  0.2086 -0.6570
  129OSM    H2S13807   6.260   4.254   6.467 -2.9652 -1.6332  1.1650
  129OSM    C3S13808   6.223   4.050   6.471  0.0645 -0.0443 -0.5688
  129OSM    H3S13809   6.269   3.951   6.490 -0.7820 -0.0426  1.9824
  129OSM     O313810   6.167   4.061   6.342  0.2946  0.3025 -0.0730
  129OSM    HO313811   6.213   4.132   6.297  0.0701 -0.3380 -1.3592
  129OSM    C4S13812   6.121   4.051   6.579  0.2316 -1.6430  0.0118
  129OSM    H4S13813   6.141   3.977   6.657  1.8353 -2.0630 -0.7636
  129OSM    C5S13814   6.014   4.136   6.594 -0.5191  0.4065 -0.0285
  129OSM    H5S13815   5.993   4.207   6.512  1.5346 -0.4930 -1.4467
  129OSM    C6S13816   5.924   4.126   6.715  0.7876  0.4238 -0.1216
  129OSM    H6S13817   5.900   4.021   6.740 -0.7472  0.9883  0.9076
  129OSM    H6T13818   5.829   4.181   6.698  0.0991 -0.7264 -0.1192
  129OSM    C7S13819   5.991   4.166   6.846 -0.2663  0.0159  0.2281
  129OSM    H7S13820   6.005   4.276   6.856 -0.5345 -0.0974  2.2758
  129OSM    H7T13821   6.091   4.120   6.858  0.6575  1.2750 -2.0509
  129OSM    C8S13822   5.918   4.114   6.970  0.4904 -0.5357 -0.2750
  129OSM    H8S13823   5.909   4.004   6.973 -1.2557 -0.4927 -1.7378
  129OSM    H8T13824   5.817   4.161   6.975  0.8801  0.2201  1.0883
  129OSM    C9S13825   5.990   4.167   7.094 -0.5993  0.6048 -0.6412
  129OSM    H9S13826   5.993   4.274   7.067  0.8083  1.3587  2.0606
  129OSM    H9T13827   6.097   4.137   7.086 -0.3302  1.7007 -1.3743
  129OSM   C10S13828   5.932   4.133   7.231 -0.3234 -0.9663 -0.5828
  129OSM   H10S13829   5.911   4.024   7.226  1.3820 -1.2696 -3.2135
  129OSM   H10T13830   5.837   4.192   7.237 -0.3597 -1.0921  0.1387
  129OSM   C11S13831   6.013   4.173   7.354 -0.4724 -0.2203  0.1442
  129OSM   H11S13832   6.023   4.283   7.354 -0.3884 -0.1787 -2.1191
  129OSM   H11T13833   6.112   4.125   7.341 -0.7322 -0.8324  0.3552
  129OSM   C12S13834   5.956   4.120   7.492 -0.0955  0.3678  0.4690
  129OSM   H12S13835   5.944   4.011   7.474  1.8734  0.4827 -2.3496
  129OSM   H12T13836   5.861   4.172   7.514 -0.4906 -0.7852  1.6230
  129OSM   C13S13837   6.045   4.137   7.609 -0.1257  0.7056 -0.1780
  129OSM   H13S13838   6.034   4.239   7.652  1.3887  0.8746 -0.1610
  129OSM   H13T13839   6.149   4.136   7.571  0.1763 -1.2058  0.6027
  129OSM   C14S13840   6.046   4.042   7.727 -0.1665  0.0284 -0.3119
  129OSM   H14S13841   6.122   4.088   7.794 -0.2747 -0.5416  0.2172
  129OSM   H14T13842   6.075   3.937   7.702 -0.3391  0.1621 -1.0718
  129OSM   C15S13843   5.908   4.027   7.794 -0.0880 -0.4944 -0.1537
  129OSM   H15S13844   5.831   3.990   7.722  0.0469  0.9292 -1.0748
  129OSM   H15T13845   5.863   4.123   7.827 -1.3370 -1.6791  1.7790
  129OSM   C16S13846   5.902   3.937   7.919 -0.4035  0.8023  0.5085
  129OSM   H16S13847   5.935   3.835   7.887 -1.8096  0.5444 -0.2208
  129OSM   H16T13848   5.797   3.929   7.954 -0.1565  0.7808  1.2649
  129OSM   C17S13849   5.988   3.980   8.039  0.4209  0.2061 -0.3360
  129OSM   H17S13850   5.966   4.087   8.059 -0.6211 -0.0579 -0.0078
  129OSM   H17T13851   6.091   3.963   8.001  1.0069 -2.2975  2.0487
  129OSM   C18S13852   5.962   3.888   8.160 -0.4792  0.0718 -0.0779
  129OSM   H18S13853   6.041   3.913   8.235 -1.3372  0.5602  0.6778
  129OSM   H18T13854   5.964   3.778   8.145 -1.9563 -0.1623  1.1748
  129OSM   H18U13855   5.864   3.903   8.210  0.2813 -0.0843  1.5109
  129OSM    C1F13856   6.444   4.284   6.668 -0.1131 -0.3281 -0.0769
  129OSM     OF13857   6.435   4.399   6.622  0.1332  0.0858 -0.6391
  129OSM    C2F13858   6.528   4.257   6.783  0.1247  0.3292 -0.6989
  129OSM    H2F13859   6.578   4.352   6.812 -0.2146  0.6343 -1.1029
  129OSM    H2G13860   6.606   4.180   6.764  0.4030  0.9319 -2.1457
  129OSM    C3F13861   6.456   4.203   6.911 -0.3734 -0.2771 -0.2352
  129OSM    H3F13862   6.419   4.101   6.891  0.2072 -0.8366  1.3921
  129OSM    H3G13863   6.363   4.262   6.929 -0.6274 -0.8920  0.4652
  129OSM    C4F13864   6.542   4.203   7.037  0.1373 -0.3166 -0.1250
  129OSM    H4F13865   6.565   4.306   7.073 -0.8523 -1.1008  3.1355
  129OSM    H4G13866   6.636   4.146   7.020 -0.2863 -0.6387 -1.4271
  129OSM    C5F13867   6.459   4.142   7.148 -0.3833 -1.0823  0.1743
  129OSM    H5F13868   6.434   4.042   7.107  2.1234 -0.4668 -3.3457
  129OSM    H5G13869   6.359   4.190   7.155  1.2947  3.2715 -1.6548
  129OSM    C6F13870   6.533   4.146   7.285  0.5177  0.4379  0.1597
  129OSM    H6F13871   6.532   4.251   7.322 -2.6005  0.4205  0.3446
  129OSM    H6G13872   6.638   4.112   7.269  0.6054  0.4604  0.6812
  129OSM    C7F13873   6.456   4.070   7.397  0.1934 -1.0156  0.2069
  129OSM    H7F13874   6.431   3.971   7.353 -1.9300  0.5041 -2.3087
  129OSM    H7G13875   6.353   4.113   7.403  0.3133 -0.6300 -0.3357
  129OSM    C8F13876   6.537   4.066   7.528 -0.4010  0.8026 -0.2174
  129OSM    H8F13877   6.637   4.025   7.500  0.7989  2.0954  1.8289
  129OSM    H8G13878   6.488   3.998   7.601  1.5902  0.6517  1.0765
  129OSM    C9F13879   6.566   4.199   7.587  0.1186 -0.4830 -0.5845
  129OSM    H9F13880   6.637   4.260   7.530 -0.9500  0.0511 -1.3680
  129OSM   C10F13881   6.510   4.257   7.690  0.0684  0.2307 -0.3412
  129OSM   H10F13882   6.539   4.359   7.720  0.6609 -0.4303  1.4499
  129OSM   C11F13883   6.408   4.212   7.785  0.3032  0.2323 -0.7511
  129OSM   H11F13884   6.370   4.108   7.770 -0.2477  0.0525  1.5078
  129OSM   H11G13885   6.324   4.283   7.797  1.5593  1.4194  1.9442
  129OSM   C12F13886   6.480   4.215   7.918  0.0319 -0.1351  0.2191
  129OSM   H12F13887   6.498   4.321   7.947  0.7994 -0.7810  2.2973
  129OSM   H12G13888   6.579   4.165   7.913  0.1728  0.2474 -1.2765
  129OSM   C13F13889   6.401   4.153   8.035  0.3474 -0.1368  0.3168
  129OSM   H13F13890   6.379   4.046   8.013 -0.7530  0.1355  0.0555
  129OSM   H13G13891   6.303   4.204   8.046 -0.7295 -1.6755 -1.4427
  129OSM   C14F13892   6.480   4.153   8.166 -0.2351 -0.1148 -0.4030
  129OSM   H14F13893   6.497   4.260   8.192  1.0966 -0.5197  0.5064
  129OSM   H14G13894   6.582   4.110   8.155 -0.2472 -0.5895  1.1157
  129OSM   C15F13895   6.408   4.077   8.279 -0.4114 -0.1894 -0.5210
  129OSM   H15F13896   6.302   4.105   8.294  0.0921  0.5093  2.2151
  129OSM   H15G13897   6.454   4.100   8.377 -2.1864 -1.4817  0.6678
  129OSM   C16F13898   6.427   3.928   8.261 -0.0199 -0.1764  0.2895
  129OSM   H16F13899   6.526   3.904   8.218 -0.1792 -0.4493  0.0683
  129OSM   H16G13900   6.360   3.883   8.184 -0.5034  1.4449 -0.2804
  129OSM   C17F13901   6.409   3.854   8.395  1.1839 -0.0455 -1.0055
  129OSM   H17F13902   6.310   3.886   8.434  1.6326  0.6198 -0.3853
  129OSM   H17G13903   6.486   3.887   8.468 -0.2858 -0.4992  0.8208
  129OSM   C18F13904   6.399   3.706   8.384 -0.1594 -0.0883  0.4124
  129OSM   H18F13905   6.321   3.676   8.310  0.6555 -1.0563 -0.0705
  129OSM   H18G13906   6.371   3.657   8.479 -0.2430 -0.2594  0.3002
  129OSM   H18H13907   6.490   3.650   8.354 -0.6275 -0.0792 -1.1265
  130OSM      N13908   0.825   5.018   6.099 -0.9065  0.4706 -0.5378
  130OSM    C1513909   0.884   5.062   5.967 -0.0507  0.6973 -0.2859
  130OSM   H15A13910   0.912   4.973   5.912 -1.5016  0.0182  0.0165
  130OSM   H15B13911   0.966   5.131   5.977 -0.0345  0.6944 -0.3949
  130OSM   H15C13912   0.804   5.108   5.910 -2.5811 -1.8973  0.8792
  130OSM    C1413913   0.770   5.144   6.170 -0.0730 -0.0819 -0.0048
  130OSM   H14A13914   0.716   5.117   6.259 -2.4714  0.5527 -1.1637
  130OSM   H14B13915   0.698   5.190   6.103  0.0198  2.5018  1.5448
  130OSM   H14C13916   0.838   5.224   6.196  0.6269 -0.8073  0.4153
  130OSM    C1313917   0.710   4.921   6.074  0.0180 -0.3212 -0.5582
  130OSM   H13A13918   0.657   4.954   5.986 -0.4790  1.1613  0.2455
  130OSM   H13B13919   0.650   4.916   6.164 -0.9490  1.6453 -1.0369
  130OSM   H13C13920   0.742   4.819   6.064 -1.4485 -1.2590  2.7452
  130OSM    C1213921   0.931   4.949   6.173 -0.7276  0.4703 -0.8028
  130OSM   H12A13922   0.898   4.927   6.274 -1.2475  0.9389 -0.8666
  130OSM   H12B13923   1.009   5.020   6.193  1.0335 -2.0451  2.2077
  130OSM    C1113924   1.008   4.821   6.124  0.1857 -0.8317 -0.1029
  130OSM   H11A13925   1.101   4.802   6.181  0.3407  1.7638  0.6218
  130OSM   H11B13926   1.039   4.839   6.019 -0.0226  0.1078 -0.0110
  130OSM      P13927   0.904   4.609   6.229  0.1288  0.1141 -0.5661
  130OSM    O1313928   0.766   4.556   6.229 -0.0298  0.0262 -0.1540
  130OSM    O1413929   1.007   4.505   6.204 -0.1353  0.0686 -0.1229
  130OSM    O1113930   0.921   4.683   6.362 -0.0720 -0.2503 -0.7002
  130OSM    O1213931   0.914   4.711   6.112 -0.4417  0.1412  0.0473
  130OSM    C1S13932   1.042   4.678   6.438 -0.1319 -0.3447  0.0551
  130OSM    H1S13933   1.102   4.760   6.393  0.3182 -0.8052 -0.2008
  130OSM    H1T13934   1.097   4.583   6.420  1.3586  0.5146 -0.1761
  130OSM     NF13935   1.151   4.717   6.657  0.1861 -0.0859  0.3391
  130OSM    HNF13936   1.186   4.640   6.710 -1.1370  0.1254  1.6037
  130OSM    C2S13937   1.025   4.705   6.590 -0.0890  0.2410  0.3341
  130OSM    H2S13938   0.975   4.804   6.587  0.4136  0.5318 -3.3588
  130OSM    C3S13939   0.937   4.590   6.658 -0.0666 -0.2731  0.4267
  130OSM    H3S13940   0.991   4.495   6.671 -0.7741 -1.0535 -1.8295
  130OSM     O313941   0.826   4.550   6.582  0.2190  0.8661 -0.1914
  130OSM    HO313942   0.837   4.583   6.493  2.0383 -3.3625 -1.7668
  130OSM    C4S13943   0.889   4.635   6.794  0.4301 -0.9230  0.3349
  130OSM    H4S13944   0.834   4.730   6.804  1.3042 -0.3238 -0.4564
  130OSM    C5S13945   0.909   4.569   6.904 -0.1018  0.8663 -0.0987
  130OSM    H5S13946   0.974   4.480   6.901 -0.2320  0.5137  3.5087
  130OSM    C6S13947   0.869   4.610   7.043  0.6381  0.0912  0.1615
  130OSM    H6S13948   0.789   4.541   7.077 -0.6013  0.8687 -1.0606
  130OSM    H6T13949   0.840   4.717   7.049  2.2623  0.4672  2.3969
  130OSM    C7S13950   0.981   4.589   7.148 -0.6962 -0.6128 -0.4242
  130OSM    H7S13951   1.056   4.671   7.139 -0.5016 -0.6210  0.9173
  130OSM    H7T13952   1.026   4.488   7.133  0.5734  0.1256 -2.0073
  130OSM    C8S13953   0.934   4.597   7.294 -0.7552 -0.2402 -0.2853
  130OSM    H8S13954   0.870   4.508   7.311 -0.5047 -0.5464 -0.9108
  130OSM    H8T13955   0.878   4.693   7.302  0.5448  0.4709  0.4782
  130OSM    C9S13956   1.054   4.604   7.387  0.1055  0.3772  0.5975
  130OSM    H9S13957   1.124   4.672   7.332  1.1380 -2.1334 -1.4104
  130OSM    H9T13958   1.109   4.508   7.382  1.7688  1.3377 -2.4699
  130OSM   C10S13959   1.027   4.630   7.531 -0.1629  0.5026 -0.2250
  130OSM   H10S13960   0.955   4.555   7.568 -0.5528  0.5634 -0.8360
  130OSM   H10T13961   0.977   4.728   7.545 -1.5962 -0.4507  1.7415
  130OSM   C11S13962   1.142   4.623   7.627  0.5431 -0.0077  0.2642
  130OSM   H11S13963   1.196   4.719   7.630  0.9783 -0.2646  0.6593
  130OSM   H11T13964   1.216   4.549   7.590 -0.4532 -0.4322 -0.9624
  130OSM   C12S13965   1.108   4.575   7.763 -0.6026  0.1745 -0.5674
  130OSM   H12S13966   1.041   4.487   7.768 -0.5376  0.0481 -1.6361
  130OSM   H12T13967   1.060   4.661   7.814 -0.9195 -0.5829  0.4515
  130OSM   C13S13968   1.241   4.539   7.833 -0.5891  0.9550  0.9184
  130OSM   H13S13969   1.296   4.633   7.856  0.1266  0.7353  0.1645
  130OSM   H13T13970   1.300   4.464   7.775  0.0405  1.2246  1.2000
  130OSM   C14S13971   1.218   4.476   7.965 -0.3273  0.6621  0.8674
  130OSM   H14S13972   1.173   4.375   7.961 -0.3004  0.5192  3.0117
  130OSM   H14T13973   1.148   4.547   8.016 -0.4849  1.3568 -0.2699
  130OSM   C15S13974   1.342   4.457   8.054 -0.9181 -0.2378  0.4446
  130OSM   H15S13975   1.397   4.553   8.041 -0.8217 -0.5787 -2.0558
  130OSM   H15T13976   1.411   4.375   8.026 -0.3849  0.6625 -0.9757
  130OSM   C16S13977   1.301   4.447   8.201 -0.0896 -0.1718  0.1498
  130OSM   H16S13978   1.252   4.349   8.218  0.8063 -0.5856  0.4414
  130OSM   H16T13979   1.228   4.528   8.219 -0.3238  1.0318 -4.7888
  130OSM   C17S13980   1.411   4.452   8.304 -0.4874  0.2911  0.2327
  130OSM   H17S13981   1.465   4.545   8.277  1.7404 -1.1667 -0.6264
  130OSM   H17T13982   1.494   4.380   8.286  0.5016  1.5207 -0.3103
  130OSM   C18S13983   1.364   4.448   8.452  0.0715  0.6216  0.1445
  130OSM   H18S13984   1.289   4.529   8.464 -0.5756  0.5637 -2.6725
  130OSM   H18T13985   1.453   4.462   8.516  0.5993  2.1304 -0.8649
  130OSM   H18U13986   1.319   4.347   8.461 -1.2407  1.0984 -0.7438
  130OSM    C1F13987   1.245   4.809   6.635 -0.5329  0.0415  0.1718
  130OSM     OF13988   1.230   4.892   6.546  0.3020 -0.3258 -0.3727
  130OSM    C2F13989   1.370   4.787   6.713  0.3209  0.6091 -0.3717
  130OSM    H2F13990   1.462   4.829   6.668  0.3049  2.6728  1.3357
  130OSM    H2G13991   1.390   4.679   6.728 -0.9944  0.5136  1.0244
  130OSM    C3F13992   1.347   4.866   6.844  0.6213 -0.3414  0.2954
  130OSM    H3F13993   1.248   4.861   6.895 -0.2147 -0.1431 -1.2550
  130OSM    H3G13994   1.365   4.970   6.809  1.5056 -0.4694  0.3353
  130OSM    C4F13995   1.468   4.844   6.937  0.5488 -0.1070 -0.4478
  130OSM    H4F13996   1.560   4.860   6.877  0.1247 -0.8540 -1.3204
  130OSM    H4G13997   1.479   4.746   6.988  1.7738  0.6593  0.8176
  130OSM    C5F13998   1.474   4.944   7.057 -0.5390 -0.1017  0.2369
  130OSM    H5F13999   1.408   4.923   7.143  2.4489 -3.7919  1.9105
  130OSM    H5G14000   1.435   5.039   7.014 -2.9563 -1.4452 -0.7140
  130OSM    C6F14001   1.619   4.958   7.110  0.3365  0.1970 -0.2796
  130OSM    H6F14002   1.688   5.001   7.034 -1.5468  1.3949 -1.4094
  130OSM    H6G14003   1.647   4.854   7.137 -0.2125 -0.7638 -3.0980
  130OSM    C7F14004   1.610   5.047   7.235  0.0513 -0.0894  0.3018
  130OSM    H7F14005   1.565   4.983   7.314 -0.6669  0.2713  0.1953
  130OSM    H7G14006   1.547   5.136   7.212  2.9143  1.9365 -0.2290
  130OSM    C8F14007   1.742   5.107   7.288  0.4576  0.3890  0.1299
  130OSM    H8F14008   1.734   5.173   7.377 -3.7109 -1.3902  1.3403
  130OSM    H8G14009   1.799   5.155   7.205  0.6576 -0.4311 -0.2179
  130OSM    C9F14010   1.844   4.999   7.317 -0.4001 -0.3529 -1.2304
  130OSM    H9F14011   1.870   4.944   7.225  0.1151  1.2217 -2.0708
  130OSM   C10F14012   1.906   4.971   7.435 -0.3443  0.3454  0.0411
  130OSM   H10F14013   1.982   4.892   7.435  1.5225  1.9992 -2.4944
  130OSM   C11F14014   1.881   5.043   7.568 -0.0065  0.4679  0.8519
  130OSM   H11F14015   1.778   5.028   7.605  0.7802 -3.0493  2.0472
  130OSM   H11G14016   1.895   5.152   7.548  1.0105 -0.2160 -3.1368
  130OSM   C12F14017   1.963   4.990   7.689 -0.4301 -0.3311  0.8550
  130OSM   H12F14018   2.069   4.997   7.658 -1.3032  2.7774 -2.1662
  130OSM   H12G14019   1.953   4.880   7.694  0.4372 -0.5780 -1.6310
  130OSM   C13F14020   1.917   5.055   7.825  0.1378 -1.1818  0.1367
  130OSM   H13F14021   1.817   5.012   7.842 -0.7846  1.4257  2.0364
  130OSM   H13G14022   1.909   5.164   7.802 -0.0154 -1.4843 -1.3573
  130OSM   C14F14023   2.000   5.020   7.944 -0.0926 -0.3248  0.3005
  130OSM   H14F14024   2.106   5.034   7.914 -0.2616 -0.0299 -0.1674
  130OSM   H14G14025   1.989   4.913   7.973  0.3323 -0.1083  1.2647
  130OSM   C15F14026   1.947   5.114   8.056 -0.3912 -0.4178  0.9554
  130OSM   H15F14027   1.836   5.119   8.056 -0.5363 -2.5657  1.0595
  130OSM   H15G14028   1.978   5.215   8.025  1.5642 -1.1114  0.5310
  130OSM   C16F14029   2.007   5.073   8.188 -0.1155 -0.1303  0.1010
  130OSM   H16F14030   2.116   5.061   8.175  0.1476  3.0882 -1.5560
  130OSM   H16G14031   1.961   4.977   8.220 -0.3905 -0.1951 -0.4661
  130OSM   C17F14032   1.963   5.176   8.298  0.4088 -0.0135  0.3192
  130OSM   H17F14033   1.999   5.140   8.397 -0.9796 -0.3878  0.7112
  130OSM   H17G14034   1.852   5.168   8.303  0.5020 -2.8767 -0.5549
  130OSM   C18F14035   1.998   5.322   8.280 -0.3274  0.5123  0.1861
  130OSM   H18F14036   2.103   5.357   8.269  0.1993 -0.9169  0.4524
  130OSM   H18G14037   1.946   5.376   8.361 -1.4286 -3.6292  2.5253
  130OSM   H18H14038   1.959   5.352   8.180  1.6765 -2.3428 -1.6240
  131OSM      N14039   0.178   6.274   6.530 -0.2030 -0.1070 -0.1084
  131OSM    C1514040   0.324   6.249   6.520 -0.2607  0.0734 -0.3730
  131OSM   H15A14041   0.381   6.340   6.537  0.8775 -1.0196  2.1405
  131OSM   H15B14042   0.339   6.223   6.416 -1.3639  2.4710 -1.2072
  131OSM   H15C14043   0.368   6.168   6.575  2.7742  1.6085 -0.3233
  131OSM    C1414044   0.135   6.288   6.672  0.1049  0.0427 -0.4342
  131OSM   H14A14045   0.033   6.319   6.688  0.3315  1.1798 -1.1174
  131OSM   H14B14046   0.190   6.359   6.732 -1.3809  1.3204 -0.5040
  131OSM   H14C14047   0.133   6.188   6.713  0.8316  0.2069  0.0215
  131OSM    C1314048   0.150   6.408   6.473  0.7004  0.0776  0.5465
  131OSM   H13A14049   0.180   6.405   6.370 -1.0739 -1.0139  0.0157
  131OSM   H13B14050   0.186   6.493   6.529  2.1937 -0.1279 -0.0684
  131OSM   H13C14051   0.043   6.412   6.456  0.6129 -2.0279  0.3730
  131OSM    C1214052   0.099   6.162   6.456 -0.2681 -0.0528  0.6629
  131OSM   H12A14053   0.135   6.141   6.357 -1.0952  2.5932 -0.2941
  131OSM   H12B14054   0.004   6.206   6.430 -1.0629 -1.0499  1.7420
  131OSM    C1114055   0.065   6.028   6.528  0.2695  0.4403 -0.0265
  131OSM   H11A14056  -0.010   5.977   6.466 -0.3379 -1.3800  2.0700
  131OSM   H11B14057   0.014   6.049   6.625 -2.1711 -1.1555 -0.8834
  131OSM      P14058   0.247   5.885   6.413  0.1607  0.0800  0.4113
  131OSM    O1314059   0.145   5.863   6.308  0.1095 -0.0407 -0.1284
  131OSM    O1414060   0.373   5.961   6.384  0.4137  0.2395  0.2647
  131OSM    O1114061   0.297   5.745   6.455  0.1977  0.3928 -0.5794
  131OSM    O1214062   0.175   5.947   6.544 -0.4432  0.0047 -0.2062
  131OSM    C1S14063   0.369   5.720   6.572 -0.5245  0.6962 -0.3488
  131OSM    H1S14064   0.414   5.810   6.619  2.4418  0.4113 -2.3568
  131OSM    H1T14065   0.464   5.670   6.543 -0.9216  0.8069 -1.8956
  131OSM     NF14066   0.380   5.630   6.789 -0.2442  0.1161 -0.2519
  131OSM    HNF14067   0.389   5.533   6.812  0.3056 -0.6431 -3.2962
  131OSM    C2S14068   0.292   5.649   6.681 -0.1616 -0.1646 -1.1295
  131OSM    H2S14069   0.205   5.708   6.716 -0.0050  0.1319 -1.2303
  131OSM    C3S14070   0.228   5.516   6.630 -0.7866 -0.0624  0.0677
  131OSM    H3S14071   0.309   5.446   6.602 -1.9765 -2.2923  1.8337
  131OSM     O314072   0.148   5.534   6.512  0.3957 -0.0582 -0.3937
  131OSM    HO314073   0.179   5.621   6.486  0.4456  0.0162 -0.0948
  131OSM    C4S14074   0.148   5.454   6.732  1.5227  0.9012 -0.7976
  131OSM    H4S14075   0.182   5.353   6.758  0.9830  1.1462  1.0326
  131OSM    C5S14076   0.041   5.499   6.802  1.3022  0.5824 -0.7523
  131OSM    H5S14077  -0.003   5.592   6.761  0.2611 -0.6264 -2.4810
  131OSM    C6S14078  -0.032   5.439   6.922 -0.1016  0.6132  0.2295
  131OSM    H6S14079  -0.083   5.344   6.894  0.0172  0.6817 -0.2199
  131OSM    H6T14080  -0.108   5.515   6.949  1.2071  1.4321  1.8147
  131OSM    C7S14081   0.059   5.409   7.044  0.1167  0.3525  0.3071
  131OSM    H7S14082   0.135   5.486   7.066  1.2337 -0.4711 -0.5560
  131OSM    H7T14083   0.113   5.314   7.025 -2.4180 -0.9599 -0.8501
  131OSM    C8S14084  -0.040   5.387   7.161  0.1337 -0.0569  0.4453
  131OSM    H8S14085  -0.120   5.326   7.115 -1.3933  2.9241 -1.1621
  131OSM    H8T14086  -0.082   5.489   7.180  2.2432  1.5985 -2.8109
  131OSM    C9S14087   0.029   5.330   7.283  0.4217 -0.7237  1.3017
  131OSM    H9S14088   0.105   5.403   7.319  2.1552 -0.9143 -1.6490
  131OSM    H9T14089   0.091   5.244   7.251  0.3862 -0.6260  0.9584
  131OSM   C10S14090  -0.061   5.310   7.402 -0.4094  0.4258  0.0776
  131OSM   H10S14091  -0.100   5.211   7.373  2.6947 -1.2010  1.0371
  131OSM   H10T14092  -0.148   5.380   7.408 -0.9958 -0.4006  1.8781
  131OSM   C11S14093   0.011   5.299   7.534  0.3450 -0.5481 -0.1610
  131OSM   H11S14094   0.017   5.399   7.582  1.0559 -0.7394  0.1641
  131OSM   H11T14095   0.112   5.254   7.522  0.4651 -0.5014  0.5687
  131OSM   C12S14096  -0.068   5.231   7.638 -0.3969  0.0179  0.7386
  131OSM   H12S14097  -0.124   5.148   7.590 -2.0626  2.9506 -2.8992
  131OSM   H12T14098  -0.133   5.305   7.690 -2.2111 -1.1907  0.2711
  131OSM   C13S14099   0.010   5.171   7.749  0.1950 -0.2553  0.4115
  131OSM   H13S14100   0.071   5.260   7.777 -0.5327  0.3828  0.0376
  131OSM   H13T14101   0.079   5.090   7.717 -0.4732 -1.7480  2.5054
  131OSM   C14S14102  -0.089   5.129   7.857 -0.0541  0.1452  0.1451
  131OSM   H14S14103  -0.155   5.051   7.814  0.0512 -0.3743  0.9036
  131OSM   H14T14104  -0.145   5.221   7.885  0.8260  0.5882  0.4935
  131OSM   C15S14105  -0.021   5.074   7.984  0.5222 -0.1993  0.1011
  131OSM   H15S14106   0.017   5.170   8.025 -0.8226 -0.6083  2.5497
  131OSM   H15T14107   0.067   5.013   7.955  1.0506  0.2462  0.7225
  131OSM   C16S14108  -0.102   5.000   8.081 -0.2839  0.5538 -0.2036
  131OSM   H16S14109  -0.028   4.953   8.150 -0.1897  0.3144 -0.4662
  131OSM   H16T14110  -0.147   4.907   8.041  0.1917  0.5956 -0.8403
  131OSM   C17S14111  -0.216   5.078   8.156 -0.8020  0.8298  0.5636
  131OSM   H17S14112  -0.286   5.003   8.200 -0.8380  1.6395  1.9339
  131OSM   H17T14113  -0.284   5.132   8.087 -0.4817  1.7344  0.9366
  131OSM   C18S14114  -0.156   5.176   8.257 -0.1175  0.9111 -0.1209
  131OSM   H18S14115  -0.112   5.254   8.191 -0.5005 -0.1720 -1.7251
  131OSM   H18T14116  -0.088   5.127   8.331 -0.7359  0.7347  0.3400
  131OSM   H18U14117  -0.235   5.223   8.319 -0.7533 -1.5409  1.0865
  131OSM    C1F14118   0.414   5.729   6.869 -0.1765 -0.1510 -0.9433
  131OSM     OF14119   0.359   5.838   6.858  0.7686  0.2010 -0.2155
  131OSM    C2F14120   0.513   5.690   6.975 -0.2548  0.4421 -0.7388
  131OSM    H2F14121   0.605   5.750   6.953  1.1933 -1.9281 -1.5087
  131OSM    H2G14122   0.531   5.582   6.959 -0.8677 -0.2887  2.7227
  131OSM    C3F14123   0.449   5.727   7.107 -0.8093 -0.2743  0.8215
  131OSM    H3F14124   0.360   5.792   7.095 -0.1917  0.4647  0.1448
  131OSM    H3G14125   0.531   5.783   7.158  0.0121 -0.4002 -0.3125
  131OSM    C4F14126   0.432   5.604   7.197 -0.5549  0.3601  0.9045
  131OSM    H4F14127   0.526   5.548   7.211 -1.1233 -0.2741  2.4290
  131OSM    H4G14128   0.357   5.544   7.141 -0.3040  0.3550  0.5657
  131OSM    C5F14129   0.381   5.642   7.334 -0.1667  0.3734 -0.4327
  131OSM    H5F14130   0.281   5.690   7.325 -0.9689 -1.0976  0.2338
  131OSM    H5G14131   0.439   5.718   7.390 -0.2545  0.3206 -0.2690
  131OSM    C6F14132   0.369   5.524   7.426  0.2498 -0.0011 -0.7316
  131OSM    H6F14133   0.470   5.487   7.453 -1.0097 -1.9372  1.8053
  131OSM    H6G14134   0.330   5.431   7.380 -1.3803 -0.4802  1.4523
  131OSM    C7F14135   0.291   5.545   7.553  0.7709  0.7601 -0.2647
  131OSM    H7F14136   0.184   5.558   7.524  0.8081 -0.1839 -0.8712
  131OSM    H7G14137   0.328   5.635   7.607  1.3722  0.4016 -0.0712
  131OSM    C8F14138   0.295   5.428   7.651 -0.6358 -0.2232 -0.0064
  131OSM    H8F14139   0.275   5.334   7.597  1.3570 -0.1633 -0.9441
  131OSM    H8G14140   0.204   5.440   7.713 -1.0416  0.7171 -0.7528
  131OSM    C9F14141   0.413   5.409   7.743  0.0301 -0.0082  0.6490
  131OSM    H9F14142   0.459   5.507   7.766 -1.7452  0.8411  0.7951
  131OSM   C10F14143   0.446   5.295   7.810 -0.5331  0.4755  0.1922
  131OSM   H10F14144   0.546   5.283   7.853 -0.5524 -2.8654 -0.4652
  131OSM   C11F14145   0.376   5.162   7.800  0.0214  0.0779  0.0635
  131OSM   H11F14146   0.441   5.088   7.749 -0.2534  0.6719 -1.1859
  131OSM   H11G14147   0.273   5.158   7.759  0.1559 -4.1874 -0.2675
  131OSM   C12F14148   0.351   5.111   7.945  0.1100  0.0144 -0.6826
  131OSM   H12F14149   0.280   5.025   7.935  0.4300 -0.2315 -0.8821
  131OSM   H12G14150   0.305   5.192   8.004 -2.1783 -0.6851 -1.3901
  131OSM   C13F14151   0.473   5.079   8.038 -0.5175 -0.0933  0.5117
  131OSM   H13F14152   0.520   5.180   8.044 -2.5306  0.9623 -0.4755
  131OSM   H13G14153   0.534   4.999   7.990 -2.4312 -1.3168  0.0087
  131OSM   C14F14154   0.426   5.036   8.178 -0.2469  0.5185 -0.6740
  131OSM   H14F14155   0.315   5.025   8.177 -0.4209  2.0916 -1.9792
  131OSM   H14G14156   0.464   5.115   8.247  2.6980 -1.6473  0.3670
  131OSM   C15F14157   0.496   4.909   8.228 -0.1160  0.1294  0.1871
  131OSM   H15F14158   0.599   4.948   8.238  0.8297 -1.7381 -1.5014
  131OSM   H15G14159   0.473   4.833   8.150 -2.4571  0.2973  0.6163
  131OSM   C16F14160   0.447   4.866   8.368 -0.5806  0.9024  0.0736
  131OSM   H16F14161   0.340   4.895   8.378 -1.1247 -1.1870  0.9130
  131OSM   H16G14162   0.507   4.916   8.447  3.4638  0.3704 -2.4297
  131OSM   C17F14163   0.439   4.715   8.395  0.1438  0.5016  0.5169
  131OSM   H17F14164   0.397   4.663   8.306 -1.6775  1.8399  0.5455
  131OSM   H17G14165   0.363   4.700   8.474  0.3562 -0.0111  0.6274
  131OSM   C18F14166   0.567   4.649   8.447 -0.4724  0.3800 -0.0777
  131OSM   H18F14167   0.585   4.674   8.554  0.0556 -1.0541  0.1928
  131OSM   H18G14168   0.656   4.674   8.385 -1.9695 -1.0794 -3.0035
  131OSM   H18H14169   0.549   4.539   8.443 -0.6872  0.4349 -0.9333
  132OSM      N14170   3.085   5.771   6.218  0.0496 -0.2903  0.1449
  132OSM    C1514171   3.047   5.673   6.113 -0.1143  0.5747  0.5668
  132OSM   H15A14172   3.076   5.574   6.146 -0.0265 -0.5881 -2.6207
  132OSM   H15B14173   3.094   5.690   6.017  0.5265  0.8369  0.9244
  132OSM   H15C14174   2.941   5.682   6.091 -0.0952  1.4929  0.8348
  132OSM    C1414175   3.052   5.907   6.144  0.4499  0.2801  0.6559
  132OSM   H14A14176   3.087   5.907   6.042 -0.8338 -2.4785  0.1342
  132OSM   H14B14177   3.086   5.990   6.204 -2.8134 -0.0468  3.2260
  132OSM   H14C14178   2.945   5.917   6.147  0.3279 -0.9957  2.4598
  132OSM    C1314179   2.993   5.753   6.332 -0.0786 -0.5641  0.0242
  132OSM   H13A14180   2.890   5.744   6.304  0.0712  0.1474 -0.7881
  132OSM   H13B14181   3.004   5.841   6.393  1.2048  0.4174 -1.5134
  132OSM   H13C14182   3.020   5.663   6.386  0.0600 -0.3004  0.3921
  132OSM    C1214183   3.225   5.769   6.260 -0.3915 -0.0311  0.0710
  132OSM   H12A14184   3.285   5.786   6.171 -0.0147  1.6537  0.6053
  132OSM   H12B14185   3.247   5.674   6.306 -1.0893  0.1805  0.8504
  132OSM    C1114186   3.271   5.882   6.367 -0.2163 -0.3112  0.1541
  132OSM   H11A14187   3.364   5.845   6.416  0.2235 -1.0242 -1.1753
  132OSM   H11B14188   3.194   5.884   6.447 -3.6998 -1.3611 -2.9318
  132OSM      P14189   3.421   6.033   6.218 -0.3022  0.0032 -0.4872
  132OSM    O1314190   3.456   5.909   6.142  0.1781 -0.6344 -0.1494
  132OSM    O1414191   3.406   6.157   6.136 -0.0624 -0.2721 -0.0906
  132OSM    O1114192   3.533   6.059   6.328 -0.0182  0.5483  0.7032
  132OSM    O1214193   3.293   6.011   6.305  0.1295  0.4161 -0.6873
  132OSM    C1S14194   3.514   6.061   6.469 -0.7408  0.0423  0.3411
  132OSM    H1S14195   3.520   5.955   6.503 -1.8891 -0.4809 -1.0088
  132OSM    H1T14196   3.411   6.094   6.492 -0.5285  0.1339  1.2027
  132OSM     NF14197   3.594   6.143   6.685  0.0443  0.2759 -0.8591
  132OSM    HNF14198   3.566   6.218   6.744  0.7056 -0.7918  0.8710
  132OSM    C2S14199   3.609   6.160   6.544  0.3978 -0.8349  0.3223
  132OSM    H2S14200   3.715   6.142   6.516  1.1310  0.7152  1.9100
  132OSM    C3S14201   3.568   6.302   6.490 -0.2502 -0.4022 -0.7147
  132OSM    H3S14202   3.460   6.328   6.496 -0.1884 -0.0985 -0.8913
  132OSM     O314203   3.585   6.324   6.348 -0.8976  0.4894 -0.0685
  132OSM    HO314204   3.597   6.235   6.313  2.6839 -0.5810  3.2296
  132OSM    C4S14205   3.643   6.403   6.569  0.0256 -0.3456  0.5185
  132OSM    H4S14206   3.598   6.431   6.666 -0.2528  0.8541  0.0598
  132OSM    C5S14207   3.747   6.475   6.532  0.1963 -0.2755  0.0410
  132OSM    H5S14208   3.790   6.450   6.434 -2.7410  1.7599 -1.9102
  132OSM    C6S14209   3.822   6.589   6.602 -0.7811  0.4934 -0.4665
  132OSM    H6S14210   3.757   6.679   6.597 -0.5673  0.7332  0.6896
  132OSM    H6T14211   3.918   6.601   6.548 -0.4626 -0.4848 -0.1470
  132OSM    C7S14212   3.841   6.561   6.749  0.2506  0.9849 -0.1863
  132OSM    H7S14213   3.899   6.466   6.750 -0.4169  0.5749  0.3501
  132OSM    H7T14214   3.743   6.548   6.800  0.6524 -0.9035  0.1631
  132OSM    C8S14215   3.931   6.662   6.824 -0.3460 -0.3169 -0.4034
  132OSM    H8S14216   3.878   6.758   6.810  0.2507  0.2776  1.1639
  132OSM    H8T14217   4.023   6.668   6.763 -0.4267  0.3576 -0.4625
  132OSM    C9S14218   3.948   6.610   6.969 -0.1386  0.3509  0.4453
  132OSM    H9S14219   3.992   6.508   6.963  3.8168  1.9164 -1.0711
  132OSM    H9T14220   3.847   6.618   7.013  0.1469 -2.3651  1.8356
  132OSM   C10S14221   4.050   6.697   7.041  0.2978  0.0952 -0.1223
  132OSM   H10S14222   4.144   6.710   6.984  1.8972 -0.3121  2.2531
  132OSM   H10T14223   4.072   6.649   7.139  1.4450  1.4775  0.3375
  132OSM   C11S14224   4.000   6.835   7.075 -0.1174  0.3489  0.4485
  132OSM   H11S14225   3.947   6.874   6.985  2.2615  1.0606 -0.7472
  132OSM   H11T14226   4.082   6.908   7.094  1.1460 -1.0562  0.5416
  132OSM   C12S14227   3.929   6.825   7.214 -0.6968  0.2018  0.4900
  132OSM   H12S14228   3.850   6.746   7.217  0.9887 -1.6812 -1.2955
  132OSM   H12T14229   3.878   6.923   7.222 -0.1796  0.7199 -1.9054
  132OSM   C13S14230   4.027   6.811   7.333 -1.1265  0.2163 -0.0117
  132OSM   H13S14231   4.104   6.889   7.316 -0.7992 -0.4284 -1.6162
  132OSM   H13T14232   4.079   6.714   7.325  0.8695  0.9388  2.5924
  132OSM   C14S14233   3.949   6.825   7.460  0.2229  0.3490  0.2540
  132OSM   H14S14234   3.869   6.747   7.463  1.1240 -0.6614 -0.8352
  132OSM   H14T14235   3.906   6.926   7.477 -1.6664  0.0396 -2.0552
  132OSM   C15S14236   4.030   6.806   7.588 -0.0864 -0.0970  0.4871
  132OSM   H15S14237   4.110   6.882   7.593 -0.1424 -0.1223  2.1102
  132OSM   H15T14238   4.084   6.712   7.563 -0.5886  0.2669 -2.2724
  132OSM   C16S14239   3.948   6.790   7.716  0.6600 -0.5854  0.5833
  132OSM   H16S14240   3.897   6.692   7.704 -0.5366 -0.5022  3.8472
  132OSM   H16T14241   3.867   6.862   7.737 -0.1891 -1.0366 -1.0012
  132OSM   C17S14242   4.036   6.771   7.842 -0.7118  0.3389  0.2673
  132OSM   H17S14243   4.110   6.854   7.847 -0.1191 -0.2299  1.2387
  132OSM   H17T14244   4.094   6.677   7.824  1.9050  1.9124 -0.1226
  132OSM   C18S14245   3.970   6.759   7.983 -0.0827 -0.3281 -0.0578
  132OSM   H18S14246   3.902   6.672   7.990 -0.7826  0.2891  1.1927
  132OSM   H18T14247   3.911   6.852   8.000  0.1999 -0.4572  1.8465
  132OSM   H18U14248   4.045   6.750   8.065  0.0738 -1.3364 -0.3039
  132OSM    C1F14249   3.627   6.023   6.749 -0.6475  0.6428 -0.3810
  132OSM     OF14250   3.693   5.940   6.696  0.0949  0.6600 -0.5954
  132OSM    C2F14251   3.582   6.002   6.893 -0.0343  0.2743 -0.4047
  132OSM    H2F14252   3.510   6.084   6.914  1.5935  1.6592  0.0536
  132OSM    H2G14253   3.663   6.012   6.969 -1.7514  0.7862  1.4192
  132OSM    C3F14254   3.488   5.880   6.911 -0.2717 -0.0900 -0.0853
  132OSM    H3F14255   3.538   5.781   6.918 -2.3260 -1.0743  1.8063
  132OSM    H3G14256   3.437   5.860   6.815 -0.6600 -0.9471  0.2901
  132OSM    C4F14257   3.385   5.892   7.028  0.1440 -0.2301  0.1294
  132OSM    H4F14258   3.290   5.847   6.993  0.9709 -1.3816 -0.7046
  132OSM    H4G14259   3.363   6.000   7.044  0.9419  0.0495 -0.5574
  132OSM    C5F14260   3.437   5.811   7.143  0.5963 -0.0891 -0.1479
  132OSM    H5F14261   3.532   5.861   7.171 -0.4624  1.2078  1.2907
  132OSM    H5G14262   3.453   5.706   7.109 -2.1734 -0.6045 -0.0817
  132OSM    C6F14263   3.350   5.824   7.269 -0.6404 -0.6378 -0.2189
  132OSM    H6F14264   3.247   5.793   7.241 -0.5756 -0.6591 -0.4354
  132OSM    H6G14265   3.340   5.930   7.302  1.1378 -0.5425  0.1392
  132OSM    C7F14266   3.403   5.736   7.384 -0.0423  0.5150 -0.1755
  132OSM    H7F14267   3.509   5.764   7.406  0.2925 -0.8049 -0.0350
  132OSM    H7G14268   3.402   5.631   7.349  2.8633  0.9185 -1.7979
  132OSM    C8F14269   3.323   5.754   7.519  0.9378 -0.1254  0.7353
  132OSM    H8F14270   3.229   5.695   7.518  0.5095  0.4757  2.2140
  132OSM    H8G14271   3.286   5.856   7.545  1.1379 -0.4043  2.2376
  132OSM    C9F14272   3.405   5.697   7.634 -0.4100 -0.7330 -0.0734
  132OSM    H9F14273   3.384   5.590   7.651  0.2080 -0.9902 -0.8873
  132OSM   C10F14274   3.507   5.755   7.698  0.4295 -0.0409 -0.6414
  132OSM   H10F14275   3.559   5.696   7.775 -1.2048 -0.9195 -0.1570
  132OSM   C11F14276   3.550   5.898   7.681 -0.3438 -0.3649 -0.8657
  132OSM   H11F14277   3.474   5.967   7.639 -0.5089  0.9754  1.4679
  132OSM   H11G14278   3.645   5.898   7.622 -0.1613 -2.0050 -0.6239
  132OSM   C12F14279   3.573   5.956   7.831 -0.9046 -0.1189 -0.0211
  132OSM   H12F14280   3.620   6.056   7.817  0.9365 -0.9124  0.1681
  132OSM   H12G14281   3.641   5.885   7.882 -0.1070  0.2217 -0.6026
  132OSM   C13F14282   3.443   5.970   7.911 -0.1973  0.9135 -0.4755
  132OSM   H13F14283   3.399   5.870   7.931  1.1540  0.5456  0.8326
  132OSM   H13G14284   3.360   6.011   7.849 -2.2538 -0.6758  1.0686
  132OSM   C14F14285   3.449   6.042   8.045  0.7256 -0.0773  0.0930
  132OSM   H14F14286   3.341   6.055   8.067  0.7350 -1.0284  0.7667
  132OSM   H14G14287   3.493   6.143   8.039 -1.0263  0.7396  0.3584
  132OSM   C15F14288   3.518   5.953   8.154 -0.4021 -0.2834 -0.6816
  132OSM   H15F14289   3.624   5.929   8.130  0.5860  0.3088  2.5827
  132OSM   H15G14290   3.457   5.860   8.155  0.3704 -0.8288 -1.8730
  132OSM   C16F14291   3.503   6.023   8.295  0.2967  0.0899 -0.3109
  132OSM   H16F14292   3.525   6.130   8.276 -0.7236  0.9467  2.7595
  132OSM   H16G14293   3.574   5.970   8.362  1.8987 -0.3403 -2.2575
  132OSM   C17F14294   3.363   6.014   8.359  0.4282 -1.2249  0.5677
  132OSM   H17F14295   3.328   5.910   8.344 -0.9068 -0.9448  1.5923
  132OSM   H17G14296   3.290   6.085   8.315  0.6317 -1.1574  0.3359
  132OSM   C18F14297   3.358   6.053   8.502  0.2808 -0.0526  0.8097
  132OSM   H18F14298   3.256   6.085   8.533  0.1758 -0.4186  0.8417
  132OSM   H18G14299   3.433   6.131   8.528 -1.3781  2.0457 -0.4191
  132OSM   H18H14300   3.389   5.976   8.576  0.6817  0.3475  1.0620
  133SAPE     N14301   5.082   2.066  10.698  0.2809 -0.1480  0.1238
  133SAPE   HN114302   5.145   2.116  10.632 -1.8750  0.3058 -1.7046
  133SAPE   HN214303   5.092   2.120  10.786  0.6247  0.9473 -0.5666
  133SAPE   HN314304   5.111   1.970  10.727  1.3815  0.5837  1.5661
  133SAPE   C1214305   4.941   2.073  10.644  0.5143 -0.1512  0.0165
  133SAPE  H12A14306   4.916   2.178  10.621 -3.0155 -0.6251  1.0494
  133SAPE  H12B14307   4.862   2.043  10.717  1.8206  0.8589  1.9201
  133SAPE   C1114308   4.924   1.984  10.519 -0.3807 -0.4150 -0.0733
  133SAPE  H11A14309   4.996   2.003  10.436 -1.8562 -0.6807 -1.4454
  133SAPE  H11B14310   4.827   2.018  10.476  0.3612  0.1199 -1.4048
  133SAPE     P14311   5.057   1.760  10.544 -0.2155  0.3023  0.2581
  133SAPE   O1314312   5.170   1.838  10.608 -0.0002  0.2009  0.6252
  133SAPE   O1414313   5.027   1.625  10.605  0.1017 -0.1304 -0.3514
  133SAPE   O1214314   4.924   1.846  10.545 -0.0234  0.3896 -0.3257
  133SAPE   O1114315   5.075   1.748  10.383  0.1306  0.5771 -0.0623
  133SAPE    C114316   4.977   1.775  10.285 -0.1362 -0.1256  0.2154
  133SAPE    HA14317   4.874   1.760  10.324  0.2465  1.8485  2.1969
  133SAPE    HB14318   4.972   1.881  10.251  0.1400 -1.5380 -5.1637
  133SAPE    C214319   4.990   1.688  10.150  0.3843  0.2253 -0.3563
  133SAPE    HS14320   4.916   1.718  10.073  0.3615  0.7566 -0.1369
  133SAPE   O2114321   4.972   1.545  10.174  0.2434 -0.5285  0.4356
  133SAPE   C2114322   4.850   1.504  10.196  0.0891  0.2474 -0.5721
  133SAPE   O2214323   4.748   1.576  10.202 -0.4692 -0.3292 -0.1854
  133SAPE   C2214324   4.852   1.354  10.224 -0.0614 -1.1977 -0.1616
  133SAPE   H2R14325   4.926   1.337  10.306 -0.7360  2.5914  1.4718
  133SAPE   H2S14326   4.749   1.323  10.251 -0.9221  2.7241  1.9530
  133SAPE    C314327   5.123   1.717  10.079 -0.2667  0.1115  0.1572
  133SAPE    HX14328   5.204   1.681  10.147 -0.2516  0.0877  0.1267
  133SAPE    HY14329   5.131   1.827  10.078 -1.9115  0.2800 -2.3623
  133SAPE   O3114330   5.153   1.656   9.950 -0.5890 -0.1866  0.3790
  133SAPE   C3114331   5.065   1.688   9.855  0.3597 -0.5444  0.6558
  133SAPE   O3214332   4.988   1.780   9.853  0.1781  0.4244  0.3333
  133SAPE   C3214333   5.093   1.605   9.734 -0.2848  1.3399  0.0743
  133SAPE   H2X14334   5.048   1.505   9.750  1.3338 -0.1777 -3.5821
  133SAPE   H2Y14335   5.203   1.588   9.722 -0.6460  0.5953 -3.2543
  133SAPE   C2314336   4.874   1.267  10.106  0.0956 -0.0355  0.7841
  133SAPE   H3R14337   4.926   1.175  10.139  0.3443 -0.1954 -0.0332
  133SAPE   H3S14338   4.946   1.313  10.035 -0.6106 -2.0745 -1.4107
  133SAPE   C2414339   4.746   1.223  10.018  0.0494  0.0701 -0.3337
  133SAPE   H4R14340   4.697   1.314   9.978  1.8785  1.4155  0.3516
  133SAPE   H4S14341   4.670   1.169  10.078  0.3717  0.3362  0.3293
  133SAPE   C2514342   4.778   1.122   9.913  0.1045 -0.3875 -0.0794
  133SAPE   H5R14343   4.791   1.019   9.951  1.1344 -0.4153 -0.4746
  133SAPE   C2614344   4.777   1.138   9.776 -0.3645  0.0316  0.0445
  133SAPE   H6R14345   4.806   1.050   9.716  1.1739 -0.5311  1.5612
  133SAPE   C2714346   4.769   1.262   9.690  0.7110 -0.0355  0.4796
  133SAPE   H7R14347   4.846   1.243   9.612  0.4405 -1.1683  0.4666
  133SAPE   H7S14348   4.816   1.349   9.740  0.2912 -0.6111  1.9438
  133SAPE   C2814349   4.633   1.291   9.635 -0.9556 -0.3567 -0.1510
  133SAPE   H8R14350   4.549   1.281   9.705 -0.8703  0.0317  0.0072
  133SAPE   C2914351   4.591   1.329   9.515 -0.5838  0.3370  0.7811
  133SAPE   H9R14352   4.483   1.337   9.502 -0.8242 -2.1380  0.7104
  133SAPE  C21014353   4.681   1.347   9.394  0.7280 -0.0533 -0.1363
  133SAPE  H10R14354   4.790   1.355   9.417  0.7273  1.9257 -0.6689
  133SAPE  H10S14355   4.643   1.440   9.347 -2.5047 -0.8505  0.6670
  133SAPE  C21114356   4.679   1.218   9.311 -0.1722  0.0870 -0.3837
  133SAPE  H11R14357   4.626   1.130   9.349  0.0086 -0.8757 -2.2054
  133SAPE  C21214358   4.760   1.201   9.200  0.2797 -0.4174  0.0040
  133SAPE  H12R14359   4.763   1.106   9.145  1.8327  1.3184 -3.2108
  133SAPE  C21314360   4.857   1.315   9.156 -0.7025 -0.4628  0.4026
  133SAPE  H13R14361   4.950   1.277   9.109  0.4564  1.3036  1.1588
  133SAPE  H13S14362   4.890   1.370   9.247 -0.5192  0.1337 -0.0204
  133SAPE  C21414363   4.799   1.411   9.050  0.0307  0.6125 -0.2180
  133SAPE  H14R14364   4.742   1.489   9.102  1.3573  0.5874  1.3313
  133SAPE  C21514365   4.803   1.387   8.917 -0.0032  0.5132 -0.0583
  133SAPE  H15R14366   4.772   1.471   8.853 -0.2992  0.8347  0.4979
  133SAPE  C21614367   4.876   1.278   8.842  0.0993 -0.6928 -0.0745
  133SAPE  H16R14368   4.936   1.218   8.914  2.5044 -0.3209 -1.6752
  133SAPE  H16S14369   4.941   1.315   8.761 -2.0766 -0.1639 -1.6830
  133SAPE  C21714370   4.776   1.193   8.770 -0.2672  0.1172  0.3610
  133SAPE  H17R14371   4.712   1.251   8.701  2.2015 -0.5108 -2.6600
  133SAPE  H17S14372   4.703   1.144   8.839  1.8105 -0.7813  2.0294
  133SAPE  C21814373   4.837   1.086   8.681  0.1002  0.0596 -0.1306
  133SAPE  H18R14374   4.762   1.004   8.688 -1.4594  1.5367  1.2537
  133SAPE  H18S14375   4.932   1.048   8.723  0.2625  0.4690 -0.1299
  133SAPE  C21914376   4.861   1.129   8.533  1.2554 -0.1043  0.1350
  133SAPE  H19R14377   4.769   1.179   8.494  1.4082  0.6101  0.6584
  133SAPE  H19S14378   4.888   1.035   8.481  0.1738 -0.3207 -0.0746
  133SAPE  C22014379   4.990   1.221   8.509 -0.1631  0.6096  0.3764
  133SAPE  H20R14380   4.959   1.325   8.530 -1.4045 -0.0389  2.0123
  133SAPE  H20S14381   5.013   1.210   8.401 -1.5526  2.3366 -0.1477
  133SAPE  H20T14382   5.079   1.181   8.562  1.0898 -0.0445 -2.1042
  133SAPE   C3314383   5.019   1.650   9.611 -0.6465  0.0416 -1.1167
  133SAPE   H3X14384   5.043   1.757   9.592 -0.9629  0.1659 -0.8274
  133SAPE   H3Y14385   4.911   1.633   9.631 -0.3041 -0.7919  0.1428
  133SAPE   C3414386   5.069   1.567   9.496  0.5792 -0.0575  0.3411
  133SAPE   H4X14387   5.029   1.464   9.511  0.0585  0.0081 -0.5032
  133SAPE   H4Y14388   5.180   1.566   9.493  0.5953 -0.5087  0.8912
  133SAPE   C3514389   5.016   1.607   9.362 -0.4907 -0.7419 -0.1158
  133SAPE   H5X14390   4.906   1.603   9.371 -0.6921 -1.6216 -2.2857
  133SAPE   H5Y14391   5.058   1.532   9.291 -1.6324 -2.1071  0.6075
  133SAPE   C3614392   5.071   1.750   9.316 -0.0600  0.2366  0.8701
  133SAPE   H6X14393   5.177   1.764   9.345  0.0180  0.0900  0.6546
  133SAPE   H6Y14394   5.025   1.832   9.375  0.3106  1.6997 -0.7984
  133SAPE   C3714395   5.058   1.771   9.163  0.4051 -0.3758  0.7675
  133SAPE   H7X14396   4.971   1.710   9.132  0.7324 -0.5380  0.1567
  133SAPE   H7Y14397   5.151   1.741   9.109  0.4215 -1.4211  1.3407
  133SAPE   C3814398   5.047   1.919   9.118  0.7389 -0.3295 -0.4272
  133SAPE   H8X14399   5.139   1.970   9.156  0.7612  0.6561 -1.7142
  133SAPE   H8Y14400   4.970   1.979   9.171 -0.9142 -2.8240  0.1471
  133SAPE   C3914401   5.037   1.935   8.966 -0.3757 -0.0768 -0.1226
  133SAPE   H9X14402   4.940   1.887   8.938 -0.7842 -0.8442  2.4140
  133SAPE   H9Y14403   5.123   1.878   8.926 -0.1302  0.0510  0.2225
  133SAPE  C31014404   5.043   2.087   8.928 -0.0357 -0.1444 -0.3307
  133SAPE  H10X14405   5.136   2.127   8.975  0.5038 -2.1240  0.4124
  133SAPE  H10Y14406   4.955   2.145   8.961  0.6341  1.2361 -0.8831
  133SAPE  C31114407   5.041   2.115   8.777 -0.6339 -0.3849  0.2540
  133SAPE  H11X14408   5.124   2.051   8.740 -0.7756 -0.8184  0.6777
  133SAPE  H11Y14409   5.050   2.226   8.769 -0.9447 -0.3583  0.2794
  133SAPE  C31214410   4.908   2.072   8.713  0.7932 -0.0048  0.5681
  133SAPE  H12X14411   4.822   2.137   8.735 -1.6374 -2.1722 -1.7166
  133SAPE  H12Y14412   4.873   1.978   8.761 -0.5564 -0.0267 -0.4056
  133SAPE  C31314413   4.926   2.046   8.566 -0.2622  0.2290 -0.3983
  133SAPE  H13X14414   5.015   1.982   8.547  1.3409  2.0047  0.7101
  133SAPE  H13Y14415   4.951   2.140   8.512 -0.3368  0.4505 -0.0501
  133SAPE  C31414416   4.803   1.994   8.503  0.8541  1.2791  0.2114
  133SAPE  H14X14417   4.734   2.081   8.499  0.3169  0.8496  0.0210
  133SAPE  H14Y14418   4.739   1.924   8.561  0.6005 -0.6288 -2.2338
  133SAPE  C31514419   4.833   1.937   8.367 -0.4719 -0.6438 -0.0609
  133SAPE  H15X14420   4.890   2.002   8.297  0.9064  0.1910  1.7543
  133SAPE  H15Y14421   4.736   1.909   8.320 -1.0294 -0.3355  0.8856
  133SAPE  C31614422   4.913   1.808   8.374 -0.9729  0.1644  0.0255
  133SAPE  H16X14423   4.878   1.745   8.459 -0.0288  0.7341  0.8536
  133SAPE  H16Y14424   5.020   1.834   8.390 -0.9046 -0.7959  1.3619
  133SAPE  C31714425   4.892   1.728   8.245 -0.0034 -0.4559 -0.2746
  133SAPE  H17X14426   4.919   1.792   8.159  0.8464 -1.6254 -0.9175
  133SAPE  H17Y14427   4.783   1.706   8.244 -0.1099  0.0697 -0.6574
  133SAPE  C31814428   4.968   1.595   8.250  0.3298  0.1175  0.7421
  133SAPE  H18X14429   5.079   1.597   8.246  0.3850 -1.2784  1.0900
  133SAPE  H18Y14430   4.924   1.528   8.172  0.4633  1.9186 -0.9492
  133SAPE  H18Z14431   4.944   1.539   8.343  2.7125 -1.3621  0.5306
  134SAPE     N14432   0.884   0.914  10.840  0.1947 -0.0274 -0.3683
  134SAPE   HN114433   0.971   0.923  10.896  0.3958 -0.0586 -0.6747
  134SAPE   HN214434   0.828   0.997  10.866  0.1678 -0.9094  2.8033
  134SAPE   HN314435   0.829   0.831  10.871 -0.4969  0.4085 -0.3882
  134SAPE   C1214436   0.901   0.926  10.691 -0.9580  0.2841 -0.2940
  134SAPE  H12A14437   0.955   0.839  10.648  1.4701  1.7675 -0.4154
  134SAPE  H12B14438   0.971   1.008  10.665  2.1626 -1.8748  0.6103
  134SAPE   C1114439   0.764   0.942  10.627  0.1256 -0.4462  0.1717
  134SAPE  H11A14440   0.765   0.953  10.516 -0.6107  1.0087  0.2905
  134SAPE  H11B14441   0.723   1.039  10.662  1.0718  0.3732 -0.9229
  134SAPE     P14442   0.537   0.818  10.662  0.0358 -0.4074  0.1781
  134SAPE   O1314443   0.492   0.706  10.751 -0.0645 -0.0342  0.2294
  134SAPE   O1414444   0.491   0.954  10.698 -0.5772  0.3199 -0.0053
  134SAPE   O1214445   0.695   0.820  10.654 -0.1090 -0.2367 -0.4091
  134SAPE   O1114446   0.483   0.783  10.520 -0.4205 -0.0688 -0.3651
  134SAPE    C114447   0.505   0.658  10.461  0.1512 -0.0281  0.1051
  134SAPE    HA14448   0.614   0.642  10.447 -0.3786 -1.6644 -2.9741
  134SAPE    HB14449   0.475   0.569  10.521  1.5684 -0.7895 -0.2761
  134SAPE    C214450   0.440   0.659  10.320  0.3233 -0.0406 -0.2595
  134SAPE    HS14451   0.473   0.566  10.269  4.4934  0.4742  1.1005
  134SAPE   O2114452   0.486   0.774  10.249 -0.0383 -0.1388 -0.1840
  134SAPE   C2114453   0.610   0.809  10.240 -0.1734  0.3803 -0.1067
  134SAPE   O2214454   0.711   0.754  10.274  0.5002 -0.7161 -0.1012
  134SAPE   C2214455   0.615   0.950  10.171  0.0697 -0.3663  0.2849
  134SAPE   H2R14456   0.517   1.001  10.185 -0.5043 -0.7687 -1.8431
  134SAPE   H2S14457   0.687   1.007  10.233  1.9297  0.6267 -2.6027
  134SAPE    C314458   0.290   0.664  10.315 -0.1479  0.3509  0.3055
  134SAPE    HX14459   0.258   0.746  10.383 -0.8320  0.0295  0.3866
  134SAPE    HY14460   0.240   0.574  10.357 -0.9454  0.2527 -0.8121
  134SAPE   O3114461   0.243   0.681  10.179  0.1551 -0.3089  0.5299
  134SAPE   C3114462   0.241   0.578  10.104 -0.1246  0.5891  0.5255
  134SAPE   O3214463   0.266   0.463  10.138  0.1261 -0.1378  0.7355
  134SAPE   C3214464   0.202   0.616   9.962  0.4458 -0.0934  1.0654
  134SAPE   H2X14465   0.167   0.721   9.969  0.9956 -0.0177  3.5871
  134SAPE   H2Y14466   0.105   0.564   9.946  0.8106  0.0413 -2.4485
  134SAPE   C2314467   0.637   0.951  10.014 -0.3676  0.3280 -0.8934
  134SAPE   H3R14468   0.614   1.056   9.985 -3.5801 -0.5047 -1.7973
  134SAPE   H3S14469   0.574   0.877   9.960  1.6822 -0.0895 -2.8710
  134SAPE   C2414470   0.781   0.920   9.976 -0.7659 -0.2017  0.2653
  134SAPE   H4R14471   0.847   0.962  10.055  0.4011  0.4924 -1.0379
  134SAPE   H4S14472   0.793   0.982   9.885  1.6374  3.5085  2.8501
  134SAPE   C2514473   0.821   0.782   9.946  0.1370  0.6774  0.1690
  134SAPE   H5R14474   0.849   0.730  10.039 -0.5906  0.0809  0.0639
  134SAPE   C2614475   0.832   0.725   9.822 -0.3416  0.1333 -0.1681
  134SAPE   H6R14476   0.872   0.623   9.808  0.9263  0.6461 -0.4572
  134SAPE   C2714477   0.798   0.788   9.690 -0.5129  0.7839 -0.3691
  134SAPE   H7R14478   0.844   0.717   9.617 -0.5007 -1.0355  1.3207
  134SAPE   H7S14479   0.850   0.886   9.689  1.9762 -0.4501  0.5902
  134SAPE   C2814480   0.654   0.796   9.643  0.1217 -0.3995  0.2577
  134SAPE   H8R14481   0.574   0.727   9.672  0.1690 -1.0650 -1.1345
  134SAPE   C2914482   0.604   0.891   9.558 -0.2808  0.4718 -0.5546
  134SAPE   H9R14483   0.502   0.879   9.519 -1.1981  0.5617  1.6552
  134SAPE  C21014484   0.690   0.994   9.490 -0.1652 -0.1364  0.2305
  134SAPE  H10R14485   0.737   0.960   9.395  1.1935  2.3672 -0.0717
  134SAPE  H10S14486   0.781   1.021   9.547 -0.3913  0.2545  0.4091
  134SAPE  C21114487   0.621   1.130   9.464  0.2267 -0.2012 -0.1776
  134SAPE  H11R14488   0.588   1.177   9.558  0.1186  0.2558 -0.4386
  134SAPE  C21214489   0.579   1.171   9.342  0.5379 -0.7186 -0.3093
  134SAPE  H12R14490   0.534   1.271   9.331  0.5915 -0.7921 -1.2718
  134SAPE  C21314491   0.599   1.091   9.214  0.0756 -0.4154  0.4737
  134SAPE  H13R14492   0.513   1.103   9.145  0.4588  2.2889  0.3801
  134SAPE  H13S14493   0.589   0.981   9.226 -1.3353 -0.4008 -0.3286
  134SAPE  C21414494   0.726   1.120   9.139 -0.1848 -0.2684 -0.3670
  134SAPE  H14R14495   0.811   1.060   9.174 -2.0978 -2.4120  0.9498
  134SAPE  C21514496   0.732   1.211   9.037 -0.3416  0.8711 -0.7424
  134SAPE  H15R14497   0.826   1.214   8.980 -0.0565  0.4125 -0.3064
  134SAPE  C21614498   0.619   1.300   8.981  0.7710  0.4249  0.1249
  134SAPE  H16R14499   0.661   1.398   8.952  0.6706  0.3387 -0.3061
  134SAPE  H16S14500   0.533   1.322   9.048  0.7366 -1.1639  0.6595
  134SAPE  C21714501   0.563   1.232   8.849  0.2827  0.2556 -0.5360
  134SAPE  H17R14502   0.517   1.135   8.879  0.4745  0.0631 -0.8535
  134SAPE  H17S14503   0.646   1.215   8.777 -0.0622  0.7334 -1.0499
  134SAPE  C21814504   0.463   1.310   8.770  0.0186  0.2118  0.0460
  134SAPE  H18R14505   0.444   1.252   8.678  0.5024 -0.0648  0.1187
  134SAPE  H18S14506   0.508   1.408   8.743  0.7210  0.2416  1.2428
  134SAPE  C21914507   0.323   1.331   8.828  0.3302 -0.0669  0.4849
  134SAPE  H19R14508   0.259   1.402   8.772 -1.3858  0.1850  2.6293
  134SAPE  H19S14509   0.330   1.370   8.932  1.2325 -1.9374  1.1591
  134SAPE  C22014510   0.246   1.200   8.841  0.2943  0.7644 -0.0718
  134SAPE  H20R14511   0.294   1.129   8.912 -0.8191  0.4924  0.4159
  134SAPE  H20S14512   0.231   1.156   8.741  1.4453  1.9902 -0.8256
  134SAPE  H20T14513   0.149   1.216   8.891  2.2628  0.4712  4.3449
  134SAPE   C3314514   0.300   0.578   9.854 -0.5362 -0.6570 -0.1993
  134SAPE   H3X14515   0.315   0.468   9.869  2.6333 -0.1505  1.1328
  134SAPE   H3Y14516   0.394   0.634   9.867 -2.0959  2.3963 -1.1879
  134SAPE   C3414517   0.254   0.586   9.713 -0.0691  0.4689 -0.2584
  134SAPE   H4X14518   0.152   0.543   9.710  1.1045 -2.4520 -1.6504
  134SAPE   H4Y14519   0.318   0.519   9.652 -1.0387 -0.6618 -0.0593
  134SAPE   C3514520   0.246   0.731   9.667 -0.4812  0.3604  0.2582
  134SAPE   H5X14521   0.341   0.784   9.690 -0.1188 -0.7349  1.4482
  134SAPE   H5Y14522   0.163   0.784   9.720 -1.8948 -1.0226 -0.4863
  134SAPE   C3614523   0.214   0.737   9.517 -0.8822  0.7629  0.0934
  134SAPE   H6X14524   0.122   0.677   9.500  1.3069 -3.0317  0.4585
  134SAPE   H6Y14525   0.289   0.678   9.460  0.5684 -0.1015  2.7354
  134SAPE   C3714526   0.200   0.875   9.446  0.8145  0.0538 -0.1763
  134SAPE   H7X14527   0.300   0.925   9.448  1.1497 -0.5722 -0.6856
  134SAPE   H7Y14528   0.125   0.935   9.502 -1.0592 -1.6087 -0.7919
  134SAPE   C3814529   0.168   0.859   9.298 -0.1649 -0.4902  0.2833
  134SAPE   H8X14530   0.249   0.789   9.265  2.2581  2.7610 -1.2380
  134SAPE   H8Y14531   0.184   0.948   9.234  2.4814 -0.6088  0.6569
  134SAPE   C3914532   0.021   0.814   9.267 -0.1920  0.3539 -0.2952
  134SAPE   H9X14533  -0.038   0.900   9.305 -0.0620  0.6421 -0.7417
  134SAPE   H9Y14534   0.009   0.727   9.336  1.5959 -0.2285 -0.6680
  134SAPE  C31014535  -0.022   0.782   9.121  0.2050  0.2823 -0.7758
  134SAPE  H10X14536  -0.110   0.714   9.124  1.0658 -0.8491  0.3316
  134SAPE  H10Y14537   0.059   0.743   9.056  0.2780  0.1795 -0.6242
  134SAPE  C31114538  -0.057   0.910   9.046 -0.0617  0.2394  0.3672
  134SAPE  H11X14539   0.041   0.956   9.021 -0.1298  0.1716 -0.0309
  134SAPE  H11Y14540  -0.112   0.976   9.117 -0.0748 -1.2324  1.7682
  134SAPE  C31214541  -0.139   0.885   8.921  0.6080  0.2010 -0.0326
  134SAPE  H12X14542  -0.249   0.898   8.931  0.6825  1.9506 -1.1897
  134SAPE  H12Y14543  -0.136   0.780   8.884  1.3567 -0.8468  2.7198
  134SAPE  C31314544  -0.082   0.969   8.804 -0.2040  0.0081  0.2894
  134SAPE  H13X14545   0.028   0.976   8.797 -0.2060 -0.3725 -0.1814
  134SAPE  H13Y14546  -0.122   1.071   8.824  0.6057  0.3626  0.1352
  134SAPE  C31414547  -0.128   0.913   8.668 -0.6449  0.2485 -0.5717
  134SAPE  H14X14548  -0.235   0.886   8.668 -0.8026  0.7892  1.0932
  134SAPE  H14Y14549  -0.059   0.829   8.645  1.6084  1.4556  1.2992
  134SAPE  C31514550  -0.092   1.004   8.552  0.2907  0.7889  0.2568
  134SAPE  H15X14551  -0.108   0.960   8.451  2.3004 -2.9992  1.4078
  134SAPE  H15Y14552   0.016   1.022   8.567  0.1919 -0.2638  2.9282
  134SAPE  C31614553  -0.156   1.149   8.560 -0.3521 -0.1742  0.4095
  134SAPE  H16X14554  -0.135   1.185   8.663  2.1643  0.9769 -0.4256
  134SAPE  H16Y14555  -0.265   1.134   8.544  0.0460 -1.6693 -1.1772
  134SAPE  C31714556  -0.099   1.246   8.460  0.4516 -0.3136  0.3520
  134SAPE  H17X14557  -0.178   1.319   8.436 -0.5237 -1.7142 -0.8698
  134SAPE  H17Y14558  -0.081   1.188   8.367  4.3204  2.0697 -0.6326
  134SAPE  C31814559   0.029   1.314   8.502  0.5002  0.5309 -0.2429
  134SAPE  H18X14560   0.094   1.229   8.535 -1.3176 -0.8225 -0.0097
  134SAPE  H18Y14561   0.010   1.369   8.597  0.3972  0.1018 -0.0104
  134SAPE  H18Z14562   0.065   1.368   8.412 -2.6234  0.3567 -1.7402
  135SAPE     N14563   3.487   6.511  10.755  0.1995 -0.4107  0.1885
  135SAPE   HN114564   3.550   6.541  10.678 -0.3869 -1.2109 -0.6170
  135SAPE   HN214565   3.396   6.489  10.710  0.5215 -0.5398 -0.4022
  135SAPE   HN314566   3.470   6.592  10.819 -0.5891 -1.3646  1.2347
  135SAPE   C1214567   3.532   6.390  10.830 -0.1761 -0.1181 -0.1317
  135SAPE  H12A14568   3.542   6.308  10.757  0.0373  0.8907 -1.2649
  135SAPE  H12B14569   3.450   6.356  10.896  1.6622 -2.7660  0.9544
  135SAPE   C1114570   3.663   6.412  10.908 -0.0089 -0.1059  0.0582
  135SAPE  H11A14571   3.678   6.324  10.975  2.1477 -2.3283 -3.0750
  135SAPE  H11B14572   3.653   6.507  10.966 -1.5482 -1.2876  1.8489
  135SAPE     P14573   3.851   6.326  10.737  0.0213  0.0124 -0.1547
  135SAPE   O1314574   3.947   6.392  10.651 -0.8284 -0.5194  0.5584
  135SAPE   O1414575   3.894   6.215  10.822 -0.6098  0.5783 -0.6116
  135SAPE   O1214576   3.778   6.427  10.825 -0.4072  0.3700 -0.1232
  135SAPE   O1114577   3.735   6.275  10.649  0.5056 -0.4826  0.6014
  135SAPE    C114578   3.708   6.147  10.614 -0.2084  0.9990 -0.4948
  135SAPE    HA14579   3.791   6.077  10.640  1.6012  2.0599 -3.0418
  135SAPE    HB14580   3.611   6.120  10.662 -2.1039  1.3460 -3.8241
  135SAPE    C214581   3.682   6.133  10.459 -0.0089 -0.5128  0.3794
  135SAPE    HS14582   3.675   6.025  10.436  0.0363 -0.6591  1.0489
  135SAPE   O2114583   3.786   6.188  10.374  0.2091 -0.2434  0.1804
  135SAPE   C2114584   3.899   6.127  10.391  0.5458  0.4348  0.4299
  135SAPE   O2214585   3.931   6.029  10.453 -0.2347 -0.4870 -0.1471
  135SAPE   C2214586   4.004   6.181  10.291  0.6989  0.0763 -0.0367
  135SAPE   H2R14587   3.949   6.214  10.201 -0.6363 -0.3998  0.5780
  135SAPE   H2S14588   4.036   6.276  10.339 -1.6688  0.7717  0.2778
  135SAPE    C314589   3.542   6.208  10.427  0.1306 -0.2477 -0.4251
  135SAPE    HX14590   3.576   6.313  10.444  1.2233 -0.2743 -2.1704
  135SAPE    HY14591   3.466   6.183  10.504  1.8251 -1.8278  0.8091
  135SAPE   O3114592   3.499   6.187  10.291 -0.1162 -0.8951 -0.0836
  135SAPE   C3114593   3.457   6.291  10.214 -0.3320 -0.3050  0.0731
  135SAPE   O3214594   3.450   6.407  10.250 -0.0312 -0.1982 -0.1027
  135SAPE   C3214595   3.434   6.237  10.078  0.4618 -0.1541  0.6591
  135SAPE   H2X14596   3.350   6.164  10.073  1.0618 -1.0447  2.7621
  135SAPE   H2Y14597   3.523   6.179  10.047  0.2228 -0.9187  1.3829
  135SAPE   C2314598   4.123   6.085  10.273  0.1144  0.0975 -0.4717
  135SAPE   H3R14599   4.088   5.992  10.223  0.0261  0.7234 -1.5919
  135SAPE   H3S14600   4.159   6.047  10.372 -1.5048 -2.9802 -0.9322
  135SAPE   C2414601   4.239   6.140  10.185 -0.2805 -0.3319 -0.3053
  135SAPE   H4R14602   4.206   6.155  10.080 -0.4894 -1.7387 -0.4704
  135SAPE   H4S14603   4.316   6.059  10.185 -1.4564 -1.4971  0.8379
  135SAPE   C2514604   4.290   6.271  10.239 -0.0935 -0.3219  0.4607
  135SAPE   H5R14605   4.288   6.283  10.348  0.4695  6.0229  0.1699
  135SAPE   C2614606   4.332   6.379  10.174  0.0086  0.1447  1.0388
  135SAPE   H6R14607   4.345   6.474  10.227 -1.4512  2.1619 -1.9336
  135SAPE   C2714608   4.342   6.394  10.025  0.0774 -0.1001  0.6341
  135SAPE   H7R14609   4.242   6.372   9.981 -0.7579  2.2302  1.2502
  135SAPE   H7S14610   4.423   6.323   9.997 -2.2455 -2.6176 -0.1089
  135SAPE   C2814611   4.372   6.534   9.964 -0.0542 -1.1672 -0.1577
  135SAPE   H8R14612   4.382   6.623  10.027  1.5450  0.1937 -2.1620
  135SAPE   C2914613   4.371   6.562   9.831  0.0414  0.2387 -0.1466
  135SAPE   H9R14614   4.382   6.666   9.797 -0.4317  0.6655  0.9593
  135SAPE  C21014615   4.326   6.461   9.727  0.0115 -0.1280  0.4452
  135SAPE  H10R14616   4.312   6.359   9.768 -1.5244 -0.1997 -0.1882
  135SAPE  H10S14617   4.410   6.437   9.658 -0.5158  0.1833 -0.3180
  135SAPE  C21114618   4.198   6.500   9.663  0.4293 -0.0470 -0.1949
  135SAPE  H11R14619   4.108   6.502   9.726 -0.1054  2.0685 -0.9485
  135SAPE  C21214620   4.190   6.543   9.529  0.7239  0.1480 -0.7313
  135SAPE  H12R14621   4.086   6.536   9.494  0.6510 -0.3017 -0.4426
  135SAPE  C21314622   4.314   6.554   9.447  0.0448  0.4036  0.7820
  135SAPE  H13R14623   4.391   6.600   9.512 -0.3888 -0.6496  2.0949
  135SAPE  H13S14624   4.295   6.619   9.359  3.7885 -0.6372 -0.9544
  135SAPE  C21414625   4.367   6.417   9.412  0.3845  0.6342 -0.2672
  135SAPE  H14R14626   4.333   6.328   9.466 -0.0418 -0.3426 -2.0575
  135SAPE  C21514627   4.442   6.402   9.301  0.5594  0.0259  0.3200
  135SAPE  H15R14628   4.468   6.299   9.273 -2.1438 -0.9628  1.1979
  135SAPE  C21614629   4.497   6.506   9.212 -0.4835 -0.3868  0.4571
  135SAPE  H16R14630   4.591   6.542   9.258 -1.8641 -1.0432  4.1291
  135SAPE  H16S14631   4.429   6.589   9.183 -1.2966 -1.4198 -0.7260
  135SAPE  C21714632   4.544   6.446   9.078  0.4287  0.8917  0.2148
  135SAPE  H17R14633   4.461   6.399   9.022  0.3535  0.7901  0.4069
  135SAPE  H17S14634   4.622   6.367   9.084 -1.2263 -0.8981 -0.9169
  135SAPE  C21814635   4.613   6.556   9.002 -0.3862 -0.1043  0.3360
  135SAPE  H18R14636   4.712   6.590   9.039 -0.8773  3.4344 -1.1835
  135SAPE  H18S14637   4.552   6.649   8.999  0.9069  0.7542 -1.4252
  135SAPE  C21914638   4.632   6.533   8.848  0.5585  1.0582 -0.4627
  135SAPE  H19R14639   4.535   6.496   8.809  0.4971  1.5616 -0.7861
  135SAPE  H19S14640   4.707   6.453   8.828 -0.2268  1.0486 -3.9903
  135SAPE  C22014641   4.674   6.660   8.781  0.8831 -0.1381  0.2766
  135SAPE  H20R14642   4.591   6.733   8.773 -0.3636 -1.3097  1.7502
  135SAPE  H20S14643   4.718   6.634   8.683 -1.1522 -0.3135 -0.6362
  135SAPE  H20T14644   4.753   6.705   8.846  0.5949  1.7967 -0.6381
  135SAPE   C3314645   3.423   6.341   9.960 -0.6856 -0.4940 -1.0386
  135SAPE   H3X14646   3.505   6.414   9.976 -0.2688 -0.8155 -1.6645
  135SAPE   H3Y14647   3.327   6.397   9.972  0.0885  0.9284 -1.3107
  135SAPE   C3414648   3.452   6.281   9.825 -0.0415 -0.2361  0.0153
  135SAPE   H4X14649   3.430   6.173   9.836  0.5250 -0.2062  1.7746
  135SAPE   H4Y14650   3.561   6.295   9.811 -0.1112 -2.0091 -2.9183
  135SAPE   C3514651   3.369   6.351   9.714 -0.5535  1.1736  0.2224
  135SAPE   H5X14652   3.409   6.453   9.694  1.8529  0.1193 -0.6144
  135SAPE   H5Y14653   3.261   6.351   9.744 -0.4501  1.7392  0.6128
  135SAPE   C3614654   3.382   6.272   9.580  0.6266 -0.3091 -0.4877
  135SAPE   H6X14655   3.346   6.167   9.589  2.4627 -1.0803 -1.5844
  135SAPE   H6Y14656   3.489   6.262   9.552  0.7775  0.2836 -0.1353
  135SAPE   C3714657   3.311   6.337   9.456 -0.3216 -0.5838 -0.3637
  135SAPE   H7X14658   3.326   6.447   9.463 -0.6081 -0.6028  0.7583
  135SAPE   H7Y14659   3.201   6.323   9.456 -0.6583  0.9846  3.2453
  135SAPE   C3814660   3.363   6.284   9.318  0.5223  1.0680  0.1322
  135SAPE   H8X14661   3.335   6.181   9.287 -3.9087  2.2246 -0.3848
  135SAPE   H8Y14662   3.474   6.286   9.317  0.5421  0.9361  1.3151
  135SAPE   C3914663   3.322   6.376   9.199 -0.9921  0.1325 -0.3310
  135SAPE   H9X14664   3.397   6.371   9.117 -1.1554 -0.3021 -0.4543
  135SAPE   H9Y14665   3.305   6.481   9.231 -1.8089  0.4626 -1.7429
  135SAPE  C31014666   3.184   6.341   9.134 -0.0751 -0.4011 -0.3364
  135SAPE  H10X14667   3.118   6.430   9.131  1.5122  0.8585  0.5583
  135SAPE  H10Y14668   3.123   6.276   9.201  0.0852  0.7397  0.9419
  135SAPE  C31114669   3.195   6.305   8.983  0.4774 -0.0094 -0.4707
  135SAPE  H11X14670   3.223   6.199   8.968  0.0830 -0.2000  0.1189
  135SAPE  H11Y14671   3.278   6.368   8.944 -0.4515  1.8096  0.3626
  135SAPE  C31214672   3.066   6.357   8.916  0.0556  0.3409 -0.4641
  135SAPE  H12X14673   3.050   6.465   8.935 -0.6870 -0.2557  2.7653
  135SAPE  H12Y14674   2.975   6.303   8.950  0.1528  1.8464  2.4260
  135SAPE  C31314675   3.077   6.335   8.765 -0.3912  0.2394  0.3154
  135SAPE  H13X14676   3.108   6.232   8.737  1.3087  0.2970  1.8286
  135SAPE  H13Y14677   3.165   6.395   8.734 -1.7171  1.9284 -0.3334
  135SAPE  C31414678   2.966   6.383   8.670  0.0287 -0.2246  0.9240
  135SAPE  H14X14679   2.977   6.494   8.664  1.9469 -0.4651 -1.8893
  135SAPE  H14Y14680   2.865   6.351   8.705 -0.8015 -0.2242 -1.2935
  135SAPE  C31514681   2.978   6.328   8.526  0.2511 -0.2202 -0.7128
  135SAPE  H15X14682   2.951   6.221   8.538 -0.6429  0.1178  0.5202
  135SAPE  H15Y14683   3.084   6.337   8.494  1.0351 -3.8206  0.4385
  135SAPE  C31614684   2.896   6.381   8.413  0.3805  0.2409 -0.0578
  135SAPE  H16X14685   2.962   6.462   8.374  1.0951  0.6545  1.8833
  135SAPE  H16Y14686   2.806   6.433   8.451  0.5208  0.7219 -0.3753
  135SAPE  C31714687   2.854   6.270   8.302  0.1705 -0.0937 -0.7352
  135SAPE  H17X14688   2.763   6.303   8.248  0.2206 -0.6485 -1.1655
  135SAPE  H17Y14689   2.823   6.183   8.363  0.8349  0.5402  0.5531
  135SAPE  C31814690   2.968   6.236   8.210  0.1908 -0.1304  0.4751
  135SAPE  H18X14691   2.939   6.161   8.133  0.9580 -1.6131  1.5905
  135SAPE  H18Y14692   3.059   6.201   8.263  0.9997 -0.4623 -1.0592
  135SAPE  H18Z14693   3.003   6.327   8.156 -1.1715  1.6348  2.4262
  136SAPE     N14694   0.240   3.816  10.929 -0.2235 -0.5973 -0.2499
  136SAPE   HN114695   0.183   3.887  10.878  2.0996  0.4245 -1.5544
  136SAPE   HN214696   0.184   3.768  11.002 -2.6328  2.0087 -0.2054
  136SAPE   HN314697   0.311   3.874  10.977 -1.6354  0.3471  0.7690
  136SAPE   C1214698   0.293   3.712  10.834 -0.7203  0.3009 -0.2540
  136SAPE  H12A14699   0.224   3.687  10.751 -0.4578 -0.2148 -0.3238
  136SAPE  H12B14700   0.312   3.619  10.893 -1.0793 -0.6204 -1.5633
  136SAPE   C1114701   0.429   3.755  10.782 -0.3361  0.4336 -0.4819
  136SAPE  H11A14702   0.423   3.847  10.720 -1.1330  0.9609  0.3534
  136SAPE  H11B14703   0.476   3.675  10.721  0.1762  0.5964 -0.3102
  136SAPE     P14704   0.641   3.873  10.891 -0.0552 -0.1421  0.1140
  136SAPE   O1314705   0.592   3.987  10.972  0.0449 -0.0287 -0.1021
  136SAPE   O1414706   0.761   3.799  10.938 -0.0898  0.2505 -0.0551
  136SAPE   O1214707   0.518   3.776  10.890 -0.4229 -0.5941  0.6302
  136SAPE   O1114708   0.649   3.916  10.736  0.1574 -0.3425 -0.4921
  136SAPE    C114709   0.731   3.831  10.653 -0.1414  0.0223  0.0426
  136SAPE    HA14710   0.838   3.852  10.670 -0.1297  0.6023 -0.6949
  136SAPE    HB14711   0.714   3.722  10.670 -1.5986  0.3595  0.9380
  136SAPE    C214712   0.705   3.862  10.507  0.1421 -0.1972  0.1071
  136SAPE    HS14713   0.725   3.971  10.499  0.7870 -0.3952 -1.2159
  136SAPE   O2114714   0.565   3.830  10.468 -0.8817 -0.3389  0.1027
  136SAPE   C2114715   0.505   3.915  10.391  1.0107 -0.3341  0.1534
  136SAPE   O2214716   0.560   4.002  10.330  0.0713  0.0885  0.7355
  136SAPE   C2214717   0.358   3.880  10.371  0.8466 -0.6887  0.0383
  136SAPE   H2R14718   0.335   3.772  10.364 -4.9186  0.1951  0.1892
  136SAPE   H2S14719   0.308   3.882  10.470  0.8025  1.2754  0.0168
  136SAPE    C314720   0.807   3.783  10.418  0.1356  1.1306  0.1968
  136SAPE    HX14721   0.773   3.677  10.424  2.7416  0.0497 -1.9717
  136SAPE    HY14722   0.915   3.786  10.446  0.6851  0.2344 -1.6789
  136SAPE   O3114723   0.798   3.830  10.284 -0.6856 -0.2284 -0.7252
  136SAPE   C3114724   0.857   3.952  10.260 -0.5807  0.5218 -0.6484
  136SAPE   O3214725   0.934   4.012  10.334  0.2664 -0.0809  0.1176
  136SAPE   C3214726   0.811   3.990  10.118  0.0264 -0.1705  0.2062
  136SAPE   H2X14727   0.714   4.044  10.131  1.1234  1.8983  0.1845
  136SAPE   H2Y14728   0.789   3.894  10.067 -2.0252 -1.8407  3.9024
  136SAPE   C2314729   0.291   3.973  10.268 -0.1882 -0.6326  0.4729
  136SAPE   H3R14730   0.358   3.999  10.183 -0.4580  2.3748  1.0724
  136SAPE   H3S14731   0.258   4.067  10.317  0.5676  0.2723 -0.6899
  136SAPE   C2414732   0.166   3.923  10.206  0.1772 -0.1760 -0.1071
  136SAPE   H4R14733   0.128   4.002  10.138 -1.4378 -0.6571  0.1899
  136SAPE   H4S14734   0.081   3.903  10.275 -1.4530  1.8825 -1.4049
  136SAPE   C2514735   0.192   3.803  10.124 -0.0718 -0.0252 -0.1072
  136SAPE   H5R14736   0.184   3.708  10.179  0.2717 -1.1030 -1.8487
  136SAPE   C2614737   0.227   3.798   9.994 -0.5846 -0.2887 -0.1771
  136SAPE   H6R14738   0.249   3.704   9.941  2.0852  1.6671 -2.8766
  136SAPE   C2714739   0.252   3.923   9.904  0.2023 -0.3135 -0.5174
  136SAPE   H7R14740   0.348   3.918   9.849  0.6996 -0.0692  0.3131
  136SAPE   H7S14741   0.255   4.024   9.950  2.4582 -0.3751 -0.4168
  136SAPE   C2814742   0.143   3.929   9.803 -0.1146 -0.7648  0.3717
  136SAPE   H8R14743   0.042   3.923   9.846 -0.1991  1.2964  0.5827
  136SAPE   C2914744   0.166   3.967   9.675 -0.0158 -0.5178 -0.4451
  136SAPE   H9R14745   0.079   3.970   9.607  1.6111  1.3642 -2.6325
  136SAPE  C21014746   0.296   3.999   9.612 -0.4347  0.0844 -0.2048
  136SAPE  H10R14747   0.353   4.062   9.684 -1.8153  0.5426  0.5285
  136SAPE  H10S14748   0.279   4.078   9.536 -3.2220  1.0574  1.2842
  136SAPE  C21114749   0.359   3.880   9.543 -0.4160  0.5805  0.3765
  136SAPE  H11R14750   0.405   3.805   9.609  1.6429  1.2899 -0.1617
  136SAPE  C21214751   0.390   3.865   9.412  0.1162 -0.0465  0.5071
  136SAPE  H12R14752   0.447   3.780   9.371  0.9580  1.4723 -1.7047
  136SAPE  C21314753   0.365   3.978   9.310 -0.7302 -0.0824  0.0896
  136SAPE  H13R14754   0.432   3.957   9.224  0.3748  1.2549  0.5877
  136SAPE  H13S14755   0.412   4.071   9.349  2.3484 -0.9685 -1.2647
  136SAPE  C21414756   0.227   4.023   9.272  0.2279  0.2549 -0.3830
  136SAPE  H14R14757   0.150   4.027   9.350 -0.8798 -2.1015 -1.2714
  136SAPE  C21514758   0.186   4.040   9.144  0.2033  0.5164 -0.4201
  136SAPE  H15R14759   0.083   4.076   9.127 -0.1270 -1.2595 -2.7591
  136SAPE  C21614760   0.272   4.013   9.022  0.6010 -0.1546  0.2591
  136SAPE  H16R14761   0.373   3.972   9.043  0.9278  0.2456 -0.5073
  136SAPE  H16S14762   0.300   4.106   8.968 -0.5814 -0.2004 -0.4780
  136SAPE  C21714763   0.208   3.916   8.913 -0.2721 -0.3176  0.1174
  136SAPE  H17R14764   0.106   3.952   8.891  0.8095  1.0537 -3.2245
  136SAPE  H17S14765   0.211   3.814   8.958 -0.1894  0.1602  1.2304
  136SAPE  C21814766   0.286   3.905   8.792 -0.1884 -1.3232  1.0746
  136SAPE  H18R14767   0.305   4.006   8.750  0.8152 -1.0136  2.2370
  136SAPE  H18S14768   0.236   3.843   8.715  0.4804  0.1813 -0.6487
  136SAPE  C21914769   0.431   3.861   8.800  0.7540  0.1184  0.2236
  136SAPE  H19R14770   0.429   3.750   8.813  0.9861  0.3120  2.3197
  136SAPE  H19S14771   0.485   3.910   8.884  0.7627 -3.3789  2.4608
  136SAPE  C22014772   0.521   3.881   8.675  0.3638  0.3557  0.1259
  136SAPE  H20R14773   0.617   3.825   8.681  0.0336 -0.3178 -0.7327
  136SAPE  H20S14774   0.545   3.990   8.664 -3.6394  1.2357 -1.4992
  136SAPE  H20T14775   0.457   3.853   8.589  0.4069  0.2844  0.1171
  136SAPE   C3314776   0.917   4.081  10.054 -0.1977 -0.1033  0.8750
  136SAPE   H3X14777   1.011   4.022  10.050 -0.9085 -1.2895  1.2890
  136SAPE   H3Y14778   0.941   4.159  10.130 -0.6095  1.3382 -0.4203
  136SAPE   C3414779   0.894   4.130   9.907  0.2771  0.1965 -0.4067
  136SAPE   H4X14780   0.972   4.201   9.872 -0.1812  1.4312  0.9900
  136SAPE   H4Y14781   0.801   4.190   9.910  1.4409  2.1257 -1.2174
  136SAPE   C3514782   0.907   4.016   9.803 -0.7402  0.4464 -0.4082
  136SAPE   H5X14783   0.820   3.950   9.821 -0.3212  0.2362  1.0127
  136SAPE   H5Y14784   0.999   3.963   9.835  0.2280  1.8071 -0.8208
  136SAPE   C3614785   0.912   4.060   9.653 -0.0206  0.4732  0.0219
  136SAPE   H6X14786   1.004   4.122   9.647  0.0367  0.8741  3.2082
  136SAPE   H6Y14787   0.828   4.131   9.634 -0.6906  0.0984  1.4667
  136SAPE   C3714788   0.909   3.940   9.559 -0.2046 -0.2615  0.1650
  136SAPE   H7X14789   0.828   3.869   9.586 -0.5524 -0.5690 -1.5546
  136SAPE   H7Y14790   1.007   3.891   9.581 -0.5373 -0.3282  1.6031
  136SAPE   C3814791   0.890   3.977   9.412  0.2507 -0.3210  0.4472
  136SAPE   H8X14792   0.980   4.035   9.382 -0.9967  0.6446 -1.6225
  136SAPE   H8Y14793   0.797   4.037   9.402 -1.0148 -2.3040 -0.1635
  136SAPE   C3914794   0.876   3.861   9.308 -0.3252 -0.3042 -0.6252
  136SAPE   H9X14795   0.773   3.827   9.284 -0.1296 -0.8232 -0.7409
  136SAPE   H9Y14796   0.934   3.778   9.352 -0.8458 -1.1141 -1.4402
  136SAPE  C31014797   0.937   3.906   9.171  0.1259 -0.4857  0.4003
  136SAPE  H10X14798   1.040   3.946   9.191  1.4502 -2.4605 -1.9942
  136SAPE  H10Y14799   0.883   3.990   9.123  0.7854 -0.8456 -1.0100
  136SAPE  C31114800   0.936   3.805   9.068  0.4443  0.2817 -0.2268
  136SAPE  H11X14801   0.833   3.770   9.047  1.3396 -3.5270  0.9559
  136SAPE  H11Y14802   0.997   3.718   9.101  0.3565  0.8312  1.4368
  136SAPE  C31214803   0.967   3.851   8.930 -0.4181  0.2996 -1.2696
  136SAPE  H12X14804   1.076   3.873   8.931 -0.5852  1.6438  2.2354
  136SAPE  H12Y14805   0.902   3.936   8.901 -1.8591 -1.0691 -2.2406
  136SAPE  C31314806   0.942   3.732   8.830  0.7287  0.0622  0.6038
  136SAPE  H13X14807   0.849   3.682   8.864  0.5011  1.4857  2.2712
  136SAPE  H13Y14808   1.026   3.662   8.847  0.4956 -0.8141 -1.6263
  136SAPE  C31414809   0.930   3.776   8.679 -0.5303 -0.1665  0.2018
  136SAPE  H14X14810   0.841   3.841   8.666 -0.4180  0.1214  0.8497
  136SAPE  H14Y14811   0.926   3.688   8.610  1.0888  0.4289 -0.7218
  136SAPE  C31514812   1.053   3.853   8.635  0.9077  0.4769 -0.1317
  136SAPE  H15X14813   1.052   3.940   8.704 -3.2146 -0.2290  1.0171
  136SAPE  H15Y14814   1.040   3.881   8.529 -0.6633  3.1742  0.6645
  136SAPE  C31614815   1.190   3.779   8.658 -0.2895  0.3262 -0.3517
  136SAPE  H16X14816   1.184   3.672   8.630  0.2793  0.6657 -1.8213
  136SAPE  H16Y14817   1.214   3.775   8.767  1.3245  0.9302 -0.6597
  136SAPE  C31714818   1.310   3.840   8.576 -0.1517 -0.0036 -0.9752
  136SAPE  H17X14819   1.293   3.845   8.467 -0.2163  2.7262 -0.9001
  136SAPE  H17Y14820   1.393   3.771   8.602  1.9083  2.2892 -1.0390
  136SAPE  C31814821   1.343   3.982   8.632 -0.9328  0.3343  0.0608
  136SAPE  H18X14822   1.442   4.009   8.590 -1.2983  0.2983 -0.8519
  136SAPE  H18Y14823   1.354   3.974   8.742  3.1503  0.1419 -0.2120
  136SAPE  H18Z14824   1.263   4.056   8.614 -0.1532  1.7570  2.0857
  137SAPE     N14825   2.063   0.853  11.072  0.5410 -0.1646  0.5094
  137SAPE   HN114826   2.093   0.842  10.973 -1.4929 -1.3093 -0.0365
  137SAPE   HN214827   1.959   0.848  11.078  0.3568  0.3330 -1.5874
  137SAPE   HN314828   2.100   0.947  11.095  2.7463  0.3379 -3.9124
  137SAPE   C1214829   2.126   0.752  11.154  0.4936 -0.3103 -0.2832
  137SAPE  H12A14830   2.065   0.659  11.152 -0.3782  0.2346  0.3824
  137SAPE  H12B14831   2.120   0.777  11.262 -2.8609 -1.9026  0.0269
  137SAPE   C1114832   2.267   0.714  11.103  0.0445  0.6248  0.3995
  137SAPE  H11A14833   2.303   0.644  11.181  1.4368  0.5307 -0.2938
  137SAPE  H11B14834   2.334   0.802  11.092  0.5833  0.0396 -1.4396
  137SAPE     P14835   2.264   0.702  10.841 -0.2642  0.2182  0.2093
  137SAPE   O1314836   2.171   0.813  10.841  0.3534 -0.1785  0.1992
  137SAPE   O1414837   2.407   0.727  10.809  0.3728 -0.2010 -0.2405
  137SAPE   O1214838   2.262   0.634  10.985  0.2027  0.1651  0.4025
  137SAPE   O1114839   2.201   0.585  10.759 -0.1702  0.0081  0.1532
  137SAPE    C114840   2.303   0.501  10.691  0.3870 -0.1937 -0.2650
  137SAPE    HA14841   2.379   0.470  10.766 -0.5036  1.3662  1.3749
  137SAPE    HB14842   2.265   0.401  10.661  2.0073 -2.0497  3.2200
  137SAPE    C214843   2.373   0.552  10.557 -0.6056  0.1422  0.5266
  137SAPE    HS14844   2.461   0.614  10.583  0.0074 -0.6585  0.4135
  137SAPE   O2114845   2.272   0.627  10.482  0.2686 -0.0972 -0.7445
  137SAPE   C2114846   2.298   0.715  10.386 -0.2601  1.0828  1.0083
  137SAPE   O2214847   2.408   0.735  10.335  0.1907  0.1515  0.1389
  137SAPE   C2214848   2.168   0.793  10.362 -0.1745 -0.1522 -0.0143
  137SAPE   H2R14849   2.084   0.720  10.363 -0.6732  0.3088 -2.3322
  137SAPE   H2S14850   2.158   0.865  10.446  0.1085  0.0028 -0.1130
  137SAPE    C314851   2.436   0.427  10.476 -0.4780 -0.2823  0.2500
  137SAPE    HX14852   2.346   0.363  10.464 -1.3657  1.2404 -1.6242
  137SAPE    HY14853   2.518   0.378  10.534  0.5693  0.3535 -0.6605
  137SAPE   O3114854   2.476   0.456  10.339  0.2439 -0.8451  0.5219
  137SAPE   C3114855   2.607   0.500  10.333  0.4646  0.3109 -0.0857
  137SAPE   O3214856   2.674   0.529  10.431  0.3195 -0.1435  0.4367
  137SAPE   C3214857   2.656   0.488  10.190 -0.8890 -0.2482  0.1573
  137SAPE   H2X14858   2.580   0.438  10.127  0.4620  0.2489 -1.9514
  137SAPE   H2Y14859   2.757   0.441  10.181  0.0076  1.6589 -0.1055
  137SAPE   C2314860   2.170   0.857  10.222 -0.4781  0.2537 -0.6377
  137SAPE   H3R14861   2.269   0.903  10.202  1.3655 -2.1931  2.0140
  137SAPE   H3S14862   2.096   0.940  10.220 -0.6889  0.0594 -0.9558
  137SAPE   C2414863   2.140   0.770  10.096 -0.0917  0.1775  0.2644
  137SAPE   H4R14864   2.076   0.681  10.115  2.4342 -1.5917  1.0820
  137SAPE   H4S14865   2.233   0.722  10.059 -1.0508 -2.2365  0.7533
  137SAPE   C2514866   2.074   0.849   9.989 -0.6852  0.1680  0.4228
  137SAPE   H5R14867   1.965   0.852  10.003 -0.7212 -1.6274  0.7598
  137SAPE   C2614868   2.127   0.930   9.899  0.3810 -0.1732  0.6034
  137SAPE   H6R14869   2.064   0.968   9.817  1.8232  0.2986 -0.3194
  137SAPE   C2714870   2.277   0.956   9.882 -0.1878 -0.2791 -0.1096
  137SAPE   H7R14871   2.300   0.947   9.774  0.3949  0.3145 -0.0463
  137SAPE   H7S14872   2.340   0.882   9.936 -2.1716 -1.4456  0.7314
  137SAPE   C2814873   2.314   1.093   9.942  0.1408 -0.1778  0.1095
  137SAPE   H8R14874   2.232   1.166   9.948  1.8146  2.4049 -4.1071
  137SAPE   C2914875   2.437   1.123   9.980  0.2850 -0.4408 -0.0272
  137SAPE   H9R14876   2.462   1.226  10.008 -0.0863  0.1597 -1.8175
  137SAPE  C21014877   2.550   1.022   9.968  0.0999 -0.3503 -0.4458
  137SAPE  H10R14878   2.553   0.968   9.871 -0.8921 -0.5808 -0.3500
  137SAPE  H10S14879   2.531   0.943  10.043 -0.1780 -1.3401 -1.5243
  137SAPE  C21114880   2.691   1.081   9.989  0.1071  0.9499 -0.1372
  137SAPE  H11R14881   2.739   1.065  10.087  0.1979 -1.7848 -0.5383
  137SAPE  C21214882   2.758   1.144   9.896  0.3772 -0.0450 -0.4141
  137SAPE  H12R14883   2.860   1.182   9.913  0.8690  0.5257 -3.7980
  137SAPE  C21314884   2.701   1.182   9.753 -0.3879 -0.2992  0.6595
  137SAPE  H13R14885   2.592   1.157   9.748 -1.1886  2.9550 -2.3823
  137SAPE  H13S14886   2.754   1.119   9.679  0.5590  1.2979 -0.0668
  137SAPE  C21414887   2.710   1.326   9.727 -0.4715 -0.7449  0.2794
  137SAPE  H14R14888   2.671   1.390   9.808 -0.9941  2.3356 -2.1747
  137SAPE  C21514889   2.754   1.394   9.617  0.6633 -0.0169  0.6686
  137SAPE  H15R14890   2.753   1.504   9.613  0.9618 -0.0338  0.1272
  137SAPE  C21614891   2.794   1.323   9.487  0.6000 -0.5658 -0.2815
  137SAPE  H16R14892   2.776   1.214   9.493  0.7323 -0.4997  2.5751
  137SAPE  H16S14893   2.902   1.335   9.461  0.9762  0.5385  1.5803
  137SAPE  C21714894   2.708   1.376   9.370  0.5794 -0.2469 -0.3463
  137SAPE  H17R14895   2.739   1.483   9.369  0.8902 -0.3392 -0.8692
  137SAPE  H17S14896   2.600   1.371   9.393  1.2526 -2.5514  3.1960
  137SAPE  C21814897   2.735   1.300   9.239  0.5833  0.2083 -0.7873
  137SAPE  H18R14898   2.713   1.191   9.244  1.4957 -0.0032 -1.1520
  137SAPE  H18S14899   2.845   1.308   9.220  0.5656  2.2512 -0.2463
  137SAPE  C21914900   2.657   1.361   9.122  0.4211  0.3555  0.7249
  137SAPE  H19R14901   2.650   1.472   9.127  2.5476  0.5044  1.9885
  137SAPE  H19S14902   2.558   1.314   9.137  0.0788  1.1805  1.1651
  137SAPE  C22014903   2.711   1.323   8.981 -0.3209  0.2251 -0.1665
  137SAPE  H20R14904   2.744   1.217   8.980 -2.1453 -0.3831 -0.0932
  137SAPE  H20S14905   2.800   1.381   8.949 -1.2694  1.8856  0.1136
  137SAPE  H20T14906   2.635   1.319   8.900 -0.2860 -2.5474 -0.1625
  137SAPE   C3314907   2.689   0.634  10.142 -0.8982  0.7401 -0.2271
  137SAPE   H3X14908   2.767   0.675  10.210 -1.0531  1.5836 -0.5468
  137SAPE   H3Y14909   2.601   0.701  10.129 -2.2649 -0.7685  0.7926
  137SAPE   C3414910   2.765   0.615  10.011 -0.0257  0.1572 -0.7782
  137SAPE   H4X14911   2.845   0.538  10.026  0.2286  0.7436  1.1078
  137SAPE   H4Y14912   2.813   0.709   9.977 -0.1818 -0.0778 -1.6627
  137SAPE   C3514913   2.688   0.563   9.890  0.1691  0.4660  0.1026
  137SAPE   H5X14914   2.664   0.457   9.911 -1.1861  1.1450  2.2700
  137SAPE   H5Y14915   2.753   0.567   9.799  1.6087 -1.4721  0.9672
  137SAPE   C3614916   2.546   0.606   9.857  0.1148  0.0046  0.0475
  137SAPE   H6X14917   2.552   0.717   9.858  0.2508  0.0933 -2.6118
  137SAPE   H6Y14918   2.471   0.572   9.932  2.2772 -1.3793  1.7310
  137SAPE   C3714919   2.510   0.581   9.713 -0.1569  0.6129  0.1603
  137SAPE   H7X14920   2.477   0.477   9.692 -0.8252  0.4226  1.9141
  137SAPE   H7Y14921   2.600   0.596   9.650 -1.4906  1.8760 -1.5292
  137SAPE   C3814922   2.397   0.675   9.668 -0.2675  0.4480  0.1421
  137SAPE   H8X14923   2.406   0.686   9.558  1.2055  1.0213  0.2939
  137SAPE   H8Y14924   2.420   0.773   9.714  0.8124  0.7245 -0.9183
  137SAPE   C3914925   2.256   0.628   9.714 -0.5062 -0.7768  0.3740
  137SAPE   H9X14926   2.195   0.719   9.698 -1.2906 -1.3325  0.1378
  137SAPE   H9Y14927   2.252   0.617   9.825 -0.9533  2.8617  0.8383
  137SAPE  C31014928   2.214   0.501   9.639  1.1969  1.2299  0.0707
  137SAPE  H10X14929   2.264   0.414   9.686  1.0274  1.0774 -0.0278
  137SAPE  H10Y14930   2.245   0.499   9.532 -1.0655 -0.4596 -0.6279
  137SAPE  C31114931   2.062   0.482   9.648 -0.0032  0.1110  1.1243
  137SAPE  H11X14932   2.012   0.563   9.706 -0.8995  2.1207 -2.2274
  137SAPE  H11Y14933   2.042   0.383   9.694 -2.0634 -0.1052 -0.1234
  137SAPE  C31214934   1.997   0.482   9.512 -0.3185 -0.6355 -1.0833
  137SAPE  H12X14935   1.909   0.415   9.519 -0.8672  0.0837 -0.9316
  137SAPE  H12Y14936   2.060   0.436   9.433  0.4966  1.7967 -1.9268
  137SAPE  C31314937   1.969   0.621   9.448  0.7998 -0.7179  0.8117
  137SAPE  H13X14938   2.060   0.682   9.469 -1.6739  2.9936  1.6848
  137SAPE  H13Y14939   1.875   0.668   9.486  1.3107  0.6448  0.4561
  137SAPE  C31414940   1.960   0.607   9.291 -0.5239  0.4193 -0.2388
  137SAPE  H14X14941   1.855   0.594   9.258 -0.4372 -4.1156  0.6179
  137SAPE  H14Y14942   2.026   0.528   9.247  0.1737  1.2574 -0.7418
  137SAPE  C31514943   2.004   0.736   9.223  0.0042 -0.6467  0.3406
  137SAPE  H15X14944   2.107   0.757   9.261 -1.0725  3.0577  1.6073
  137SAPE  H15Y14945   1.943   0.823   9.255  2.2185  2.0970 -2.2805
  137SAPE  C31614946   1.998   0.733   9.073 -0.3341  0.7820 -0.2580
  137SAPE  H16X14947   1.905   0.674   9.054 -0.1014  0.2160  0.3097
  137SAPE  H16Y14948   2.076   0.673   9.022 -0.1388 -1.5511  2.4785
  137SAPE  C31714949   1.993   0.870   9.014 -0.2032  0.1429  0.0322
  137SAPE  H17X14950   2.077   0.929   9.057 -0.2414  1.8216 -2.0494
  137SAPE  H17Y14951   1.898   0.919   9.044 -0.4301 -0.1326 -0.2398
  137SAPE  C31814952   2.010   0.872   8.869 -0.5168  0.3598  0.4054
  137SAPE  H18X14953   2.005   0.977   8.834  0.1428 -0.0440 -1.0034
  137SAPE  H18Y14954   1.924   0.820   8.821  0.5271 -0.2930 -0.8432
  137SAPE  H18Z14955   2.105   0.833   8.827 -0.9414 -0.2237 -0.0352
  138SAPE     N14956   1.028   5.999  10.978  0.3668  1.0972  0.3628
  138SAPE   HN114957   1.046   5.974  11.078 -2.9122 -2.8266  0.2882
  138SAPE   HN214958   1.021   6.102  10.969 -2.0851  1.0158  0.5928
  138SAPE   HN314959   0.929   5.967  10.965  1.0840 -1.2732  0.2229
  138SAPE   C1214960   1.133   5.947  10.886 -0.3265 -0.2860  0.0908
  138SAPE  H12A14961   1.099   5.965  10.781 -0.2516  0.4230  0.1836
  138SAPE  H12B14962   1.133   5.836  10.885 -0.3800 -0.2828 -0.3245
  138SAPE   C1114963   1.265   6.019  10.917 -0.8791  0.1166  0.0274
  138SAPE  H11A14964   1.351   5.957  10.883 -1.0754 -0.1724  0.0543
  138SAPE  H11B14965   1.291   6.019  11.025  1.3357 -0.2714 -0.4433
  138SAPE     P14966   1.360   6.206  10.746  0.4791  0.2719  0.0729
  138SAPE   O1314967   1.286   6.325  10.699  0.6640 -0.1137  0.1373
  138SAPE   O1414968   1.503   6.211  10.761 -0.1255  0.0180 -0.1597
  138SAPE   O1214969   1.290   6.149  10.868 -0.0398  0.0108 -0.0943
  138SAPE   O1114970   1.316   6.091  10.650 -0.1094  0.3146 -0.1282
  138SAPE    C114971   1.403   6.018  10.554 -0.8109  0.5697  0.5422
  138SAPE    HA14972   1.487   5.968  10.607 -0.8262 -2.1541 -1.7572
  138SAPE    HB14973   1.352   5.928  10.513 -0.5779  1.1374 -1.0569
  138SAPE    C214974   1.432   6.114  10.440 -0.4756 -0.7619 -0.5986
  138SAPE    HS14975   1.528   6.168  10.455 -1.8497  1.7995 -0.4257
  138SAPE   O2114976   1.323   6.206  10.418 -0.0122  0.0114 -0.1266
  138SAPE   C2114977   1.351   6.321  10.359 -0.3191  0.2636 -0.0393
  138SAPE   O2214978   1.461   6.354  10.321 -0.2775 -0.0014 -0.2268
  138SAPE   C2214979   1.218   6.391  10.326  0.6349  0.1406 -0.3752
  138SAPE   H2R14980   1.142   6.314  10.303  1.0205 -0.3686  0.0351
  138SAPE   H2S14981   1.192   6.446  10.419  0.2350  0.0607 -0.4402
  138SAPE    C314982   1.459   6.033  10.311 -0.1298  0.3658  0.5548
  138SAPE    HX14983   1.529   5.953  10.345  3.7231  3.9425  1.9819
  138SAPE    HY14984   1.518   6.094  10.239 -0.6865  0.3670  0.0918
  138SAPE   O3114985   1.335   5.988  10.245 -0.3324 -0.9688 -0.0601
  138SAPE   C3114986   1.311   5.857  10.244  0.1252 -0.8910 -0.7652
  138SAPE   O3214987   1.371   5.769  10.305  0.4615 -0.2148  0.0349
  138SAPE   C3214988   1.205   5.828  10.142  0.3500  0.0323  0.2068
  138SAPE   H2X14989   1.103   5.830  10.186  0.2062 -0.9022 -0.0464
  138SAPE   H2Y14990   1.208   5.717  10.130 -0.3614  0.0985 -0.6670
  138SAPE   C2314991   1.216   6.486  10.214  0.0232 -0.0100 -0.6270
  138SAPE   H3R14992   1.283   6.573  10.234  1.7593 -1.5475  0.5659
  138SAPE   H3S14993   1.111   6.519  10.203 -0.5228 -1.6814 -0.5952
  138SAPE   C2414994   1.241   6.418  10.077  0.2075  0.8123 -0.2474
  138SAPE   H4R14995   1.172   6.453   9.998 -2.6353 -1.1873  1.1694
  138SAPE   H4S14996   1.210   6.312  10.090 -0.8552  0.8745 -2.0218
  138SAPE   C2514997   1.373   6.452  10.011 -0.2452 -0.1267 -0.4024
  138SAPE   H5R14998   1.401   6.558  10.008 -1.0576  0.1500  1.0949
  138SAPE   C2614999   1.461   6.362   9.958 -0.5307 -0.1238  0.4753
  138SAPE   H6R15000   1.555   6.395   9.911 -1.2997 -0.6237 -1.5001
  138SAPE   C2715001   1.428   6.209   9.954 -0.1417 -0.1119  0.8254
  138SAPE   H7R15002   1.338   6.194   9.891 -0.2019 -0.9475  1.0939
  138SAPE   H7S15003   1.396   6.178  10.056 -0.5846 -1.3516  0.3270
  138SAPE   C2815004   1.534   6.130   9.889 -0.0229  0.1554  0.0663
  138SAPE   H8R15005   1.625   6.115   9.948 -0.7610  1.6466  1.6824
  138SAPE   C2915006   1.526   6.071   9.769  0.5440 -0.3664  0.3115
  138SAPE   H9R15007   1.616   6.027   9.722  0.2035  0.9881 -1.7575
  138SAPE  C21015008   1.410   6.081   9.672 -0.2185 -0.0196 -0.5935
  138SAPE  H10R15009   1.314   6.099   9.725 -0.0289 -2.6312  0.8191
  138SAPE  H10S15010   1.394   5.983   9.622  2.1490  0.0764 -1.6961
  138SAPE  C21115011   1.453   6.189   9.573  0.3765  0.1571 -0.1200
  138SAPE  H11R15012   1.488   6.280   9.624  2.4533  0.7287 -2.4009
  138SAPE  C21215013   1.455   6.193   9.436 -0.4829  1.1006  0.5151
  138SAPE  H12R15014   1.498   6.283   9.389  5.0182 -0.3456  2.0749
  138SAPE  C21315015   1.407   6.077   9.336  0.2816 -0.7858  0.7500
  138SAPE  H13R15016   1.374   6.122   9.240  0.0821 -0.3671  1.0101
  138SAPE  H13S15017   1.319   6.030   9.383  1.3531 -2.5947  1.0657
  138SAPE  C21415018   1.512   5.969   9.314  1.0553  0.2335  0.3837
  138SAPE  H14R15019   1.598   5.981   9.380  1.6686  1.9926 -0.6684
  138SAPE  C21515020   1.501   5.868   9.225  0.5965 -0.3093 -0.2603
  138SAPE  H15R15021   1.585   5.798   9.219  0.0639 -1.4031  3.0017
  138SAPE  C21615022   1.383   5.839   9.137 -0.2519  0.6939 -0.6055
  138SAPE  H16R15023   1.305   5.901   9.186  0.0836  0.9638 -0.4032
  138SAPE  H16S15024   1.356   5.731   9.143  2.2731  0.0546  2.0855
  138SAPE  C21715025   1.388   5.879   8.990 -0.1910  0.1329 -0.1498
  138SAPE  H17R15026   1.403   5.988   8.977 -1.8249  0.1051 -3.0801
  138SAPE  H17S15027   1.287   5.861   8.947  0.7491  2.2745 -3.7128
  138SAPE  C21815028   1.495   5.810   8.902  0.0951  0.1032 -0.9371
  138SAPE  H18R15029   1.481   5.701   8.919  1.7797 -0.1566 -1.0192
  138SAPE  H18S15030   1.598   5.827   8.940 -0.1036 -0.0980 -0.2951
  138SAPE  C21915031   1.492   5.844   8.753  0.4440 -0.0541 -0.4162
  138SAPE  H19R15032   1.399   5.814   8.700  0.4032  2.9484 -2.3243
  138SAPE  H19S15033   1.586   5.793   8.721  0.8809  0.5111 -0.0552
  138SAPE  C22015034   1.518   5.986   8.710 -0.4370 -0.9175 -0.6294
  138SAPE  H20R15035   1.597   6.032   8.773 -0.8604  0.1220 -0.8413
  138SAPE  H20S15036   1.424   6.046   8.707  0.2415  0.2649  0.6273
  138SAPE  H20T15037   1.534   5.985   8.600 -0.2215 -0.5736 -0.6011
  138SAPE   C3315038   1.200   5.925  10.021  0.2461  0.3902 -0.0894
  138SAPE   H3X15039   1.298   5.937   9.971  0.0206 -1.8127 -1.1665
  138SAPE   H3Y15040   1.155   6.022  10.052  1.4647  1.2594 -0.9206
  138SAPE   C3415041   1.114   5.850   9.913  0.9983 -0.0522  0.5517
  138SAPE   H4X15042   1.029   5.803   9.967  1.6738 -0.5486  1.2095
  138SAPE   H4Y15043   1.182   5.769   9.880  0.4613  0.0532 -0.8590
  138SAPE   C3515044   1.078   5.928   9.784 -0.0925  0.4396  0.4050
  138SAPE   H5X15045   1.169   5.934   9.721  2.0173 -1.2901  3.0454
  138SAPE   H5Y15046   1.044   6.029   9.816 -0.5762 -0.1665  1.9351
  138SAPE   C3615047   0.959   5.861   9.714  0.1419 -0.8938 -0.5521
  138SAPE   H6X15048   0.879   5.838   9.787  0.9277  0.3064  0.7398
  138SAPE   H6Y15049   0.988   5.760   9.680  0.9297 -0.3978 -1.4245
  138SAPE   C3715050   0.892   5.943   9.600  0.5391  0.0614  0.0570
  138SAPE   H7X15051   0.886   6.046   9.641 -2.5328 -0.6489  1.7161
  138SAPE   H7Y15052   0.792   5.896   9.592  0.1884  0.9890 -1.2572
  138SAPE   C3815053   0.984   5.933   9.471 -0.6556 -0.5870  0.8734
  138SAPE   H8X15054   0.997   5.825   9.447  0.8749 -0.6435  1.8072
  138SAPE   H8Y15055   1.085   5.973   9.495 -0.0766  0.7660 -3.0624
  138SAPE   C3915056   0.913   6.005   9.351  0.3192  0.0244  0.0185
  138SAPE   H9X15057   0.871   6.104   9.379  1.1107 -0.1553  1.9737
  138SAPE   H9Y15058   0.831   5.938   9.316  1.1454 -0.8757 -0.2487
  138SAPE  C31015059   1.014   6.029   9.235  0.2688 -0.3380  0.2689
  138SAPE  H10X15060   1.044   5.928   9.199 -1.3023 -0.8743  0.3916
  138SAPE  H10Y15061   1.103   6.074   9.284 -0.7132  1.6141  0.3587
  138SAPE  C31115062   0.963   6.133   9.135  0.0202 -0.7780 -0.1902
  138SAPE  H11X15063   0.977   6.235   9.176 -0.1437 -0.2474 -1.4335
  138SAPE  H11Y15064   0.854   6.118   9.118 -0.2027 -0.2793  0.7305
  138SAPE  C31215065   1.043   6.124   8.999 -0.4851  0.1765  0.4380
  138SAPE  H12X15066   1.152   6.113   9.018 -0.7607 -2.2787  0.8968
  138SAPE  H12Y15067   1.033   6.216   8.938 -0.1827  0.7308  1.2018
  138SAPE  C31315068   0.996   6.005   8.911 -0.5617  0.0966  0.2777
  138SAPE  H13X15069   0.889   5.979   8.924 -0.4424 -0.9201 -0.6321
  138SAPE  H13Y15070   1.060   5.918   8.939 -0.7564  0.2448  1.2084
  138SAPE  C31415071   1.025   6.022   8.758 -0.1316  0.1040  0.1167
  138SAPE  H14X15072   1.133   6.015   8.734 -0.3020 -2.1690 -0.2521
  138SAPE  H14Y15073   0.986   6.118   8.718  0.6852  0.2472 -0.3719
  138SAPE  C31515074   0.965   5.906   8.680  0.3333 -0.4049  0.7630
  138SAPE  H15X15075   0.972   5.927   8.572 -0.4109 -0.1092  0.7664
  138SAPE  H15Y15076   0.857   5.897   8.703  0.4845 -0.2434  1.5854
  138SAPE  C31615077   1.043   5.776   8.690  0.3660  0.3757  0.1071
  138SAPE  H16X15078   1.044   5.746   8.797 -0.1949 -2.1735 -0.5515
  138SAPE  H16Y15079   1.150   5.792   8.664  0.7334  1.5872  2.1192
  138SAPE  C31715080   0.989   5.673   8.598  0.5345  0.1571  0.5293
  138SAPE  H17X15081   0.986   5.710   8.493  0.5465  0.4221  0.6214
  138SAPE  H17Y15082   0.886   5.643   8.625  0.7882 -0.9112  0.3797
  138SAPE  C31815083   1.081   5.551   8.598 -0.5980 -0.1642  0.2546
  138SAPE  H18X15084   1.064   5.489   8.688  0.5158 -0.1731  0.4726
  138SAPE  H18Y15085   1.187   5.583   8.600  0.5251 -3.5026  0.8721
  138SAPE  H18Z15086   1.057   5.485   8.512 -1.1393  0.2804  0.0609
  139SAPE     N15087   1.667   6.586  10.445  0.6988  0.2407 -1.4177
  139SAPE   HN115088   1.591   6.632  10.498  1.9857  0.0733  0.6607
  139SAPE   HN215089   1.732   6.665  10.429  0.5812  0.6667  0.1277
  139SAPE   HN315090   1.634   6.546  10.355 -1.4518  0.9644 -0.9947
  139SAPE   C1215091   1.726   6.479  10.530  0.2741 -0.4529  0.1662
  139SAPE  H12A15092   1.665   6.388  10.509  1.4916 -1.0831 -0.8088
  139SAPE  H12B15093   1.713   6.507  10.637  0.0596  0.2498 -0.0441
  139SAPE   C1115094   1.867   6.451  10.482 -0.0539  0.1403  0.6786
  139SAPE  H11A15095   1.858   6.393  10.387  0.5151 -0.7541  1.1674
  139SAPE  H11B15096   1.910   6.379  10.553 -0.1920 -0.2906  0.3284
  139SAPE     P15097   2.111   6.539  10.447  0.3818 -0.3193 -0.1646
  139SAPE   O1315098   2.178   6.670  10.434 -0.2272 -0.1670 -0.0041
  139SAPE   O1415099   2.168   6.444  10.538 -0.3357 -0.6900 -0.3950
  139SAPE   O1215100   1.957   6.565  10.477 -0.2643  0.3217  0.2719
  139SAPE   O1115101   2.117   6.472  10.302  0.2375 -0.2579  0.3631
  139SAPE    C115102   2.132   6.553  10.183 -0.5341  0.1532 -0.6487
  139SAPE    HA15103   2.210   6.630  10.201 -1.0771  0.7776 -0.9266
  139SAPE    HB15104   2.164   6.490  10.097 -0.4967  1.0408 -1.2967
  139SAPE    C215105   2.003   6.626  10.134  0.5108 -0.6185 -0.2456
  139SAPE    HS15106   1.916   6.581  10.187 -0.0731 -0.0575 -0.7041
  139SAPE   O2115107   1.993   6.603   9.992 -0.4317  0.4485 -0.9865
  139SAPE   C2115108   1.879   6.563   9.944 -0.3688  0.0494 -0.2071
  139SAPE   O2215109   1.777   6.554  10.008  0.0435  0.2838 -0.7107
  139SAPE   C2215110   1.897   6.549   9.795  0.0296  0.0397  0.2870
  139SAPE   H2R15111   1.905   6.649   9.746  0.3481 -0.3477 -0.4724
  139SAPE   H2S15112   1.992   6.501   9.765 -0.0788 -0.2146  0.3506
  139SAPE    C315113   1.997   6.782  10.159  0.0276  0.3967  0.4516
  139SAPE    HX15114   2.100   6.814  10.133  0.6954 -1.1378  1.1070
  139SAPE    HY15115   1.997   6.797  10.269 -1.1942 -0.2172  0.5475
  139SAPE   O3115116   1.888   6.852  10.093  0.1936 -0.1076 -0.1236
  139SAPE   C3115117   1.769   6.854  10.168  0.1247  0.3241  0.1455
  139SAPE   O3215118   1.753   6.788  10.271 -0.8508  0.7287  0.6106
  139SAPE   C3215119   1.658   6.938  10.106  0.0952  0.1162 -0.5901
  139SAPE   H2X15120   1.679   7.043  10.133  0.1527 -0.1718  0.5713
  139SAPE   H2Y15121   1.561   6.914  10.153  0.4770 -3.1035 -1.1639
  139SAPE   C2315122   1.790   6.465   9.719 -0.3093 -0.4346 -0.3512
  139SAPE   H3R15123   1.783   6.365   9.767 -1.3876 -0.2142 -0.0271
  139SAPE   H3S15124   1.831   6.440   9.619 -1.7472  1.4527 -1.4656
  139SAPE   C2415125   1.658   6.533   9.693  0.4854  0.5474 -0.2349
  139SAPE   H4R15126   1.612   6.561   9.790  1.0944 -0.2404  0.2866
  139SAPE   H4S15127   1.595   6.457   9.643  3.3076 -2.9759  1.0969
  139SAPE   C2515128   1.671   6.660   9.612  0.0104  0.1736  0.0916
  139SAPE   H5R15129   1.728   6.732   9.673  0.5272 -2.1645  2.5598
  139SAPE   C2615130   1.647   6.676   9.479  0.0117  0.2805  0.2039
  139SAPE   H6R15131   1.678   6.772   9.433  2.8083 -1.2419 -1.3574
  139SAPE   C2715132   1.601   6.566   9.380 -0.8683 -0.3578 -0.4460
  139SAPE   H7R15133   1.572   6.475   9.438  2.6852  0.2467  2.6245
  139SAPE   H7S15134   1.686   6.539   9.313 -0.4953 -0.3377  0.0207
  139SAPE   C2815135   1.496   6.617   9.278 -0.4525 -0.4485  0.2010
  139SAPE   H8R15136   1.444   6.713   9.291 -0.1362  0.0701 -2.0687
  139SAPE   C2915137   1.443   6.555   9.174  0.2360  0.5310  0.1644
  139SAPE   H9R15138   1.370   6.602   9.107  0.3869 -0.4407 -0.7154
  139SAPE  C21015139   1.485   6.415   9.132  0.0023  0.5370  0.2469
  139SAPE  H10R15140   1.391   6.355   9.139 -0.6897  1.1766 -2.4751
  139SAPE  H10S15141   1.553   6.373   9.209 -1.5668 -0.3608  1.2123
  139SAPE  C21115142   1.559   6.405   9.003  0.2392  0.1767  0.3376
  139SAPE  H11R15143   1.667   6.423   9.006 -0.1346  2.4458  2.4593
  139SAPE  C21215144   1.496   6.373   8.881  0.4231 -0.4344  0.3434
  139SAPE  H12R15145   1.548   6.384   8.786 -0.3629 -0.3831 -0.0930
  139SAPE  C21315146   1.357   6.341   8.851  0.6786  0.1471  0.7052
  139SAPE  H13R15147   1.302   6.297   8.937  0.9800  0.6607  1.1664
  139SAPE  H13S15148   1.360   6.261   8.774  0.6286 -2.0981  2.8868
  139SAPE  C21415149   1.272   6.456   8.799  0.7205  0.0168 -0.5741
  139SAPE  H14R15150   1.284   6.543   8.866 -0.1980  1.3126 -2.0184
  139SAPE  C21515151   1.205   6.476   8.683  0.6574  0.1804  0.0192
  139SAPE  H15R15152   1.148   6.570   8.672 -1.1679 -0.7354  1.2989
  139SAPE  C21615153   1.199   6.375   8.568  0.9331  0.1241  0.3315
  139SAPE  H16R15154   1.174   6.272   8.601 -0.9457  0.3012 -0.4003
  139SAPE  H16S15155   1.293   6.366   8.509  0.3650 -1.7720 -0.3350
  139SAPE  C21715156   1.086   6.393   8.461  0.4897 -0.3027 -0.3732
  139SAPE  H17R15157   0.999   6.436   8.515 -0.4638 -1.5338 -0.8852
  139SAPE  H17S15158   1.055   6.297   8.415 -0.6569 -0.2622  0.2692
  139SAPE  C21815159   1.122   6.480   8.339 -0.0983 -0.6566  1.1263
  139SAPE  H18R15160   1.227   6.462   8.309 -0.2147  0.2834  0.1087
  139SAPE  H18S15161   1.120   6.587   8.367 -0.1951 -0.5401  0.6897
  139SAPE  C21915162   1.029   6.475   8.219  0.3658 -0.1917  0.6591
  139SAPE  H19R15163   0.935   6.524   8.251  0.0097 -0.7991  0.5600
  139SAPE  H19S15164   1.007   6.372   8.184 -0.7840  0.7674 -1.6439
  139SAPE  C22015165   1.088   6.554   8.098  0.1165 -0.1847  0.0921
  139SAPE  H20R15166   1.088   6.665   8.099 -0.4723 -0.1111 -2.1336
  139SAPE  H20S15167   1.040   6.513   8.007 -1.5417  0.0196  0.8494
  139SAPE  H20T15168   1.195   6.522   8.088  0.8169  1.7354  1.0099
  139SAPE   C3315169   1.647   6.919   9.951 -0.4134 -0.3396 -0.6037
  139SAPE   H3X15170   1.549   6.871   9.928 -0.3428 -0.9076  0.1940
  139SAPE   H3Y15171   1.728   6.853   9.913 -0.1174 -1.6693  2.0521
  139SAPE   C3415172   1.662   7.053   9.881  0.6547  0.2368  0.6809
  139SAPE   H4X15173   1.755   7.099   9.918  0.7641  1.3098 -0.8438
  139SAPE   H4Y15174   1.568   7.107   9.906  0.5151 -0.5358  1.9088
  139SAPE   C3515175   1.653   7.033   9.729 -0.6340  0.3984 -0.3906
  139SAPE   H5X15176   1.570   6.963   9.708  0.2658 -0.2882 -1.8090
  139SAPE   H5Y15177   1.739   6.965   9.712 -2.6940 -3.1759  2.2326
  139SAPE   C3615178   1.640   7.156   9.645  0.0362 -0.3216  0.1521
  139SAPE   H6X15179   1.731   7.215   9.667 -0.3752  0.0988  0.7561
  139SAPE   H6Y15180   1.560   7.220   9.689  0.8286 -1.1427  3.0377
  139SAPE   C3715181   1.618   7.139   9.492  0.4331 -0.2826  0.1703
  139SAPE   H7X15182   1.517   7.100   9.465 -0.0598  0.0246  1.5082
  139SAPE   H7Y15183   1.688   7.060   9.460 -1.4810 -2.4420  1.0284
  139SAPE   C3815184   1.647   7.263   9.416 -0.4847 -0.0376 -0.5365
  139SAPE   H8X15185   1.702   7.235   9.324 -0.0131  2.0929 -0.9589
  139SAPE   H8Y15186   1.718   7.327   9.474 -0.3114  0.1362 -0.9392
  139SAPE   C3915187   1.529   7.354   9.385  0.2340 -0.6200  0.2465
  139SAPE   H9X15188   1.482   7.400   9.474 -0.9223 -2.7485  0.8049
  139SAPE   H9Y15189   1.446   7.297   9.338 -0.0618 -0.8487  1.0298
  139SAPE  C31015190   1.561   7.467   9.273  0.3200 -0.3876 -0.1888
  139SAPE  H10X15191   1.602   7.405   9.190  1.7282  0.6454 -0.3035
  139SAPE  H10Y15192   1.641   7.532   9.314  0.6230 -0.4349 -0.6881
  139SAPE  C31115193   1.448   7.565   9.235  1.1971 -0.2875 -0.4370
  139SAPE  H11X15194   1.413   7.602   9.334 -3.7600 -1.0448 -1.6687
  139SAPE  H11Y15195   1.365   7.510   9.185  0.2434  0.8846 -0.1743
  139SAPE  C31215196   1.503   7.677   9.141  0.3071 -0.1653 -0.2535
  139SAPE  H12X15197   1.534   7.629   9.046 -0.5975 -0.8658 -0.2063
  139SAPE  H12Y15198   1.600   7.709   9.183  1.7701 -2.2201 -1.8586
  139SAPE  C31315199   1.413   7.795   9.097  0.6235  0.4955 -0.8035
  139SAPE  H13X15200   1.379   7.835   9.195  2.8865 -1.1149  0.7515
  139SAPE  H13Y15201   1.322   7.761   9.043  0.0892  2.2503 -1.0719
  139SAPE  C31415202   1.474   7.906   9.008  0.3367 -0.5322  0.3366
  139SAPE  H14X15203   1.556   7.955   9.066 -0.8801  0.5218  1.2071
  139SAPE  H14Y15204   1.402   7.986   8.979 -1.1375 -2.4446 -1.5610
  139SAPE  C31515205   1.526   7.846   8.877  0.1957  0.3319 -0.5564
  139SAPE  H15X15206   1.444   7.788   8.830 -1.1119  2.1937 -0.6788
  139SAPE  H15Y15207   1.610   7.779   8.907 -0.3991 -0.3475 -0.3788
  139SAPE  C31615208   1.588   7.940   8.773  0.3781 -0.5456 -0.0011
  139SAPE  H16X15209   1.606   7.875   8.685  1.7131  0.9365 -0.8829
  139SAPE  H16Y15210   1.510   8.007   8.730 -0.8716 -1.7194  0.3864
  139SAPE  C31715211   1.717   8.011   8.822  0.1445 -0.0283  0.2544
  139SAPE  H17X15212   1.766   7.943   8.894  0.5376  0.2913  0.2923
  139SAPE  H17Y15213   1.683   8.095   8.887  0.2741 -1.0387  1.6587
  139SAPE  C31815214   1.815   8.051   8.716 -0.7235 -0.3419  0.5280
  139SAPE  H18X15215   1.774   8.125   8.643  1.0030  0.7389  0.5998
  139SAPE  H18Y15216   1.834   7.956   8.662 -1.3930  0.6034 -1.4949
  139SAPE  H18Z15217   1.914   8.086   8.752 -0.4657 -0.5254  0.0144
  140SAPE     N15218   5.835   4.610  10.730  0.2816  0.0005 -0.8459
  140SAPE   HN115219   5.935   4.627  10.705  0.4467 -0.1993 -0.3367
  140SAPE   HN215220   5.842   4.572  10.827  4.0953  2.9608  0.3137
  140SAPE   HN315221   5.803   4.529  10.673 -1.3352 -0.6563  0.8795
  140SAPE   C1215222   5.745   4.719  10.723 -0.4883 -0.4897  0.1282
  140SAPE  H12A15223   5.762   4.766  10.624  0.3757  0.1528  0.5622
  140SAPE  H12B15224   5.780   4.791  10.801  0.4657 -1.7202  0.8872
  140SAPE   C1115225   5.595   4.683  10.756 -0.0318 -0.0148  0.5796
  140SAPE  H11A15226   5.529   4.773  10.752  0.7535  0.5317 -0.4964
  140SAPE  H11B15227   5.596   4.648  10.861  1.8330 -1.0051  0.2668
  140SAPE     P15228   5.389   4.531  10.699  0.2825 -0.0123 -0.4268
  140SAPE   O1315229   5.399   4.383  10.709  0.1283 -0.1195 -0.5239
  140SAPE   O1415230   5.344   4.601  10.825  0.6099 -0.5514  0.4827
  140SAPE   O1215231   5.537   4.580  10.662 -0.0344 -0.5174 -0.6058
  140SAPE   O1115232   5.288   4.559  10.578 -0.3749 -0.3444  0.3922
  140SAPE    C115233   5.294   4.693  10.526 -0.0034 -0.1005  0.2362
  140SAPE    HA15234   5.215   4.755  10.574  1.1509  0.1094  1.9521
  140SAPE    HB15235   5.393   4.740  10.547  0.0990 -0.2007 -0.0212
  140SAPE    C215236   5.258   4.679  10.377 -0.0227 -0.0603 -0.9392
  140SAPE    HS15237   5.156   4.633  10.376 -0.7683  1.5061 -0.3385
  140SAPE   O2115238   5.358   4.599  10.311  0.3493  0.3177 -0.1925
  140SAPE   C2115239   5.308   4.497  10.248 -0.1390 -0.5527  0.5470
  140SAPE   O2215240   5.192   4.463  10.247 -0.1344  0.3720 -0.0304
  140SAPE   C2215241   5.408   4.435  10.166  0.3542 -0.7113 -0.7161
  140SAPE   H2R15242   5.463   4.520  10.121  1.1583 -0.6056  0.4358
  140SAPE   H2S15243   5.478   4.389  10.238  0.7731  1.1068  0.0969
  140SAPE    C315244   5.240   4.811  10.300  0.1184  0.7305  0.1438
  140SAPE    HX15245   5.326   4.880  10.316  0.7357 -0.5448  3.1695
  140SAPE    HY15246   5.152   4.866  10.340 -1.8622 -1.3620 -1.1288
  140SAPE   O3115247   5.229   4.802  10.156  0.1693  0.3306  0.4407
  140SAPE   C3115248   5.111   4.764  10.115  0.1082 -1.1873  0.3392
  140SAPE   O3215249   5.017   4.732  10.187 -0.1541 -0.0782 -0.2608
  140SAPE   C3215250   5.112   4.774   9.961 -0.0264  0.1141  0.0363
  140SAPE   H2X15251   5.191   4.703   9.928  0.3725  0.4055  0.3538
  140SAPE   H2Y15252   5.169   4.865   9.933  2.1675 -0.9068  0.9686
  140SAPE   C2315253   5.349   4.336  10.059  0.8621  0.2908  0.1127
  140SAPE   H3R15254   5.251   4.370  10.018  1.1794  0.2545 -0.7124
  140SAPE   H3S15255   5.321   4.243  10.113 -0.9685  0.7667  0.0726
  140SAPE   C2415256   5.435   4.305   9.937  0.3430  0.4909  0.0662
  140SAPE   H4R15257   5.525   4.249   9.971  0.5839  0.1332 -1.0984
  140SAPE   H4S15258   5.480   4.403   9.911 -2.6599  1.9549 -0.0211
  140SAPE   C2515259   5.378   4.236   9.815 -0.0380 -0.0522 -0.2111
  140SAPE   H5R15260   5.379   4.128   9.833 -0.5993 -0.1788 -0.8927
  140SAPE   C2615261   5.350   4.297   9.698 -0.0743  0.9912 -0.1423
  140SAPE   H6R15262   5.304   4.244   9.613  2.7061  0.8816 -1.6943
  140SAPE   C2715263   5.362   4.443   9.676 -0.0625 -0.4433  0.7471
  140SAPE   H7R15264   5.467   4.474   9.690 -0.0500 -1.1487  2.3777
  140SAPE   H7S15265   5.303   4.495   9.754  0.4442  2.7618 -0.8365
  140SAPE   C2815266   5.305   4.510   9.554 -0.2227  0.8072 -0.1188
  140SAPE   H8R15267   5.208   4.558   9.571  0.4345  1.8704  0.8163
  140SAPE   C2915268   5.352   4.505   9.425  0.1680  0.2559  0.2636
  140SAPE   H9R15269   5.289   4.555   9.350  0.4697  0.0375 -0.1386
  140SAPE  C21015270   5.467   4.428   9.371  0.8631  0.0451  0.3190
  140SAPE  H10R15271   5.518   4.353   9.436 -1.8983 -1.0430  1.3999
  140SAPE  H10S15272   5.544   4.497   9.331  1.4234  1.2950  3.3123
  140SAPE  C21115273   5.413   4.339   9.263  0.5555  0.3472 -0.2527
  140SAPE  H11R15274   5.348   4.260   9.303 -1.1842  2.1855  0.7209
  140SAPE  C21215275   5.418   4.361   9.130 -0.3211 -0.2119 -0.2976
  140SAPE  H12R15276   5.380   4.280   9.066  0.5777 -0.4056 -0.6004
  140SAPE  C21315277   5.482   4.475   9.064  0.0391 -0.1071  0.2382
  140SAPE  H13R15278   5.492   4.562   9.131  0.4614 -1.4522  2.0059
  140SAPE  H13S15279   5.418   4.515   8.983  0.2860  0.3867  0.2839
  140SAPE  C21415280   5.613   4.434   9.002  0.5618  0.5106 -0.0512
  140SAPE  H14R15281   5.704   4.475   9.049  0.0816 -0.3254  1.6487
  140SAPE  C21515282   5.627   4.356   8.894  0.0724  0.1282  0.7678
  140SAPE  H15R15283   5.729   4.334   8.859  0.1985  2.8175 -0.7650
  140SAPE  C21615284   5.519   4.281   8.812 -0.5966 -0.1356 -0.0903
  140SAPE  H16R15285   5.530   4.315   8.707 -0.3784 -0.3240 -0.1288
  140SAPE  H16S15286   5.416   4.293   8.851 -0.2498 -2.9302  1.9848
  140SAPE  C21715287   5.523   4.124   8.804 -0.4810  0.0627  0.1295
  140SAPE  H17R15288   5.428   4.084   8.761 -1.0180  0.2527  1.1153
  140SAPE  H17S15289   5.539   4.083   8.905 -0.4255 -0.5768 -0.1372
  140SAPE  C21815290   5.638   4.079   8.715  0.2626 -0.0647  0.0117
  140SAPE  H18R15291   5.730   4.110   8.767  0.7420  0.0354 -0.8762
  140SAPE  H18S15292   5.628   4.123   8.613 -2.5934 -1.4339 -0.4064
  140SAPE  C21915293   5.642   3.926   8.695 -0.1296  0.0430  0.2111
  140SAPE  H19R15294   5.543   3.901   8.650 -1.0240  0.3136  1.9410
  140SAPE  H19S15295   5.661   3.882   8.795  2.0726  3.3260  1.3979
  140SAPE  C22015296   5.751   3.872   8.609  0.0780 -1.2680 -0.3511
  140SAPE  H20R15297   5.855   3.874   8.649 -0.7638  0.5691  1.9081
  140SAPE  H20S15298   5.758   3.934   8.516 -2.0990 -0.9270 -0.3386
  140SAPE  H20T15299   5.717   3.770   8.580 -2.2487 -0.2438 -1.5371
  140SAPE   C3315300   4.980   4.736   9.895  0.0111  0.4702 -0.8303
  140SAPE   H3X15301   4.896   4.800   9.930  0.0545  0.7978 -1.3125
  140SAPE   H3Y15302   4.959   4.629   9.915 -1.0290  0.1929 -3.0621
  140SAPE   C3415303   4.992   4.734   9.744 -0.9368 -0.5665  0.0376
  140SAPE   H4X15304   5.057   4.651   9.708 -0.6371 -0.4456  0.2991
  140SAPE   H4Y15305   5.033   4.829   9.704  2.9658 -2.3567 -0.7113
  140SAPE   C3515306   4.859   4.700   9.677  0.2609  0.7308 -0.1822
  140SAPE   H5X15307   4.784   4.776   9.708 -0.6293 -0.1728 -0.0543
  140SAPE   H5Y15308   4.821   4.605   9.721 -1.1720  1.3875  0.0635
  140SAPE   C3615309   4.872   4.668   9.528  0.6147  0.0931  0.4216
  140SAPE   H6X15310   4.778   4.620   9.494  0.0506  1.1659  0.4268
  140SAPE   H6Y15311   4.959   4.601   9.512 -0.3187 -2.0546  3.4184
  140SAPE   C3715312   4.883   4.798   9.446  0.3184  0.2354  0.5271
  140SAPE   H7X15313   4.960   4.872   9.476  0.1895  0.0843  1.2433
  140SAPE   H7Y15314   4.791   4.859   9.459 -3.0274 -3.8574 -1.3613
  140SAPE   C3815315   4.904   4.776   9.299 -0.0663 -0.6158 -0.1343
  140SAPE   H8X15316   4.997   4.714   9.298 -0.1059 -0.7456  1.5568
  140SAPE   H8Y15317   4.913   4.866   9.235 -1.6441 -0.5925 -0.3611
  140SAPE   C3915318   4.784   4.710   9.238 -0.7837  0.5652  0.8016
  140SAPE   H9X15319   4.698   4.773   9.268 -0.9284  0.2104  1.1399
  140SAPE   H9Y15320   4.779   4.613   9.291  2.4818  0.7051  1.5850
  140SAPE  C31015321   4.792   4.704   9.086 -0.2366  0.5028 -0.4464
  140SAPE  H10X15322   4.888   4.658   9.055  1.2738  2.6214  0.8316
  140SAPE  H10Y15323   4.801   4.804   9.040 -2.7560  2.1668  2.3285
  140SAPE  C31115324   4.669   4.643   9.024 -0.0752  0.0054  0.3593
  140SAPE  H11X15325   4.587   4.651   9.098  1.2198 -3.2666  2.3621
  140SAPE  H11Y15326   4.681   4.535   8.997  0.7284 -0.1946  1.4472
  140SAPE  C31215327   4.631   4.717   8.899  0.0145 -0.3264 -0.5547
  140SAPE  H12X15328   4.720   4.761   8.849 -0.5934  1.7475  0.1198
  140SAPE  H12Y15329   4.577   4.807   8.934  0.2072 -1.0563  1.8050
  140SAPE  C31315330   4.530   4.643   8.801 -0.7672 -0.3181 -0.2008
  140SAPE  H13X15331   4.462   4.575   8.858 -0.1420 -1.4743 -0.7873
  140SAPE  H13Y15332   4.597   4.572   8.747  1.5346  0.7512  1.1119
  140SAPE  C31415333   4.460   4.732   8.705  0.1850  0.2435  0.2406
  140SAPE  H14X15334   4.536   4.782   8.641  0.7036  0.1556  0.7715
  140SAPE  H14Y15335   4.400   4.814   8.750 -0.8264 -0.0865 -0.4899
  140SAPE  C31515336   4.369   4.656   8.611  0.3275 -0.0961  0.3447
  140SAPE  H15X15337   4.282   4.618   8.669 -2.0737  5.4480  1.0592
  140SAPE  H15Y15338   4.411   4.568   8.559  2.3752  1.9998 -1.8125
  140SAPE  C31615339   4.290   4.743   8.508 -0.0010  0.5667 -0.0334
  140SAPE  H16X15340   4.241   4.668   8.443  1.7146 -0.4230 -0.2644
  140SAPE  H16Y15341   4.362   4.799   8.444  0.8785  2.0723  2.1477
  140SAPE  C31715342   4.178   4.834   8.567 -0.0154 -0.4903  0.4964
  140SAPE  H17X15343   4.229   4.911   8.629 -0.3052  0.0816  0.0331
  140SAPE  H17Y15344   4.114   4.780   8.639 -1.3111  2.6036  1.8222
  140SAPE  C31815345   4.082   4.903   8.468 -0.5473  0.5432 -0.6804
  140SAPE  H18X15346   4.027   4.985   8.519  0.8636  0.8331  0.4497
  140SAPE  H18Y15347   4.017   4.833   8.411 -1.1590  0.2011  0.4166
  140SAPE  H18Z15348   4.149   4.963   8.403  2.2714 -0.6802  0.9261
  141SAPE     N15349   4.921   6.143  10.938 -0.2908 -0.5447  0.0804
  141SAPE   HN115350   4.884   6.151  10.841 -1.3438 -0.2356  0.4927
  141SAPE   HN215351   4.914   6.046  10.973 -1.2223 -0.1584  1.0441
  141SAPE   HN315352   4.858   6.198  11.001 -0.3626 -1.4937  0.8538
  141SAPE   C1215353   5.063   6.194  10.920 -0.0831  0.1788 -0.0404
  141SAPE  H12A15354   5.112   6.131  10.843  0.2830  0.7930 -0.3197
  141SAPE  H12B15355   5.111   6.195  11.020 -0.0945 -0.6506 -0.0213
  141SAPE   C1115356   5.061   6.337  10.848 -0.2627  0.5575  0.1379
  141SAPE  H11A15357   5.154   6.359  10.792 -1.0798 -0.4978 -1.7613
  141SAPE  H11B15358   5.064   6.410  10.931  1.1208 -1.6321  2.1318
  141SAPE     P15359   4.891   6.507  10.770 -0.1875 -0.1020 -0.3049
  141SAPE   O1315360   4.827   6.542  10.900  0.0443  0.0179  0.2187
  141SAPE   O1415361   4.999   6.598  10.729  0.5269  0.1697 -0.2365
  141SAPE   O1215362   4.945   6.358  10.766 -0.2890  0.3922  0.7834
  141SAPE   O1115363   4.786   6.499  10.654 -0.1716  0.5724 -0.8210
  141SAPE    C115364   4.671   6.416  10.635  0.5798 -0.3768  0.1879
  141SAPE    HA15365   4.652   6.356  10.727  0.5971 -2.2349 -0.9825
  141SAPE    HB15366   4.585   6.484  10.620  1.5940  0.9705  0.2946
  141SAPE    C215367   4.688   6.319  10.517  0.0565  0.9140 -0.3126
  141SAPE    HS15368   4.782   6.263  10.540  0.8187  2.5075  0.6338
  141SAPE   O2115369   4.700   6.393  10.396 -0.1806  0.3384  0.3239
  141SAPE   C2115370   4.778   6.326  10.314  0.1552 -0.1514 -0.1483
  141SAPE   O2215371   4.852   6.232  10.342 -0.1203  0.1133 -0.4961
  141SAPE   C2215372   4.765   6.395  10.182  0.3368 -0.3211 -0.5260
  141SAPE   H2R15373   4.699   6.482  10.201  3.2328  1.6137  1.5422
  141SAPE   H2S15374   4.863   6.438  10.149 -0.8517  1.5644 -1.8141
  141SAPE    C315375   4.567   6.217  10.502 -0.4036 -0.6795 -0.0552
  141SAPE    HX15376   4.473   6.277  10.507  0.8822  1.3602  1.9013
  141SAPE    HY15377   4.567   6.155  10.594  0.8823  1.1798  1.2705
  141SAPE   O3115378   4.561   6.145  10.375 -0.2112 -0.0441 -0.3057
  141SAPE   C3115379   4.626   6.028  10.371 -0.4951 -0.0705  0.0773
  141SAPE   O3215380   4.691   5.976  10.459  0.2723 -0.4088 -0.2737
  141SAPE   C3215381   4.597   5.957  10.242 -0.1671 -0.1456 -0.0093
  141SAPE   H2X15382   4.556   6.029  10.168 -0.7237 -0.3886  0.0572
  141SAPE   H2Y15383   4.515   5.885  10.267 -1.4219  0.5944 -1.8290
  141SAPE   C2315384   4.719   6.296  10.076 -0.4986  0.6823 -0.7761
  141SAPE   H3R15385   4.661   6.359  10.004 -2.1105  1.6635  1.2863
  141SAPE   H3S15386   4.642   6.228  10.117  0.7006  0.1293  0.6341
  141SAPE   C2415387   4.844   6.237  10.008 -0.4901 -0.3416 -0.4812
  141SAPE   H4R15388   4.822   6.139   9.962 -2.1855 -1.0202  1.6046
  141SAPE   H4S15389   4.922   6.224  10.086 -1.6054  0.6627  0.8584
  141SAPE   C2515390   4.892   6.345   9.907  0.1645  0.4627  0.0815
  141SAPE   H5R15391   4.962   6.418   9.949  0.2455  1.1433 -1.1912
  141SAPE   C2615392   4.871   6.331   9.774  0.6173  0.9870 -0.0698
  141SAPE   H6R15393   4.908   6.411   9.709  0.8277  1.0905  0.1784
  141SAPE   C2715394   4.801   6.220   9.699 -0.3115 -0.4840 -0.1885
  141SAPE   H7R15395   4.730   6.160   9.761 -1.1283 -1.4697 -2.0004
  141SAPE   H7S15396   4.890   6.156   9.678  0.2922  0.5376 -0.8105
  141SAPE   C2815397   4.736   6.273   9.573 -0.0940 -0.2670 -0.4444
  141SAPE   H8R15398   4.636   6.318   9.583 -0.2590 -0.2814 -1.8465
  141SAPE   C2915399   4.790   6.284   9.449  0.2496 -0.5580 -0.3792
  141SAPE   H9R15400   4.738   6.327   9.362 -1.0287 -0.1878  0.5493
  141SAPE  C21015401   4.930   6.242   9.413 -0.0478  0.3797 -0.0053
  141SAPE  H10R15402   4.929   6.212   9.306 -1.3504 -1.0380  0.3682
  141SAPE  H10S15403   4.962   6.147   9.460 -1.4878 -0.4175 -0.5872
  141SAPE  C21115404   5.026   6.352   9.441 -0.7372 -0.0599 -0.0571
  141SAPE  H11R15405   5.051   6.346   9.548 -0.2534 -0.3959 -0.1864
  141SAPE  C21215406   5.083   6.443   9.356 -0.9041 -0.0059 -0.0330
  141SAPE  H12R15407   5.135   6.523   9.410 -1.8942 -2.0576  4.3873
  141SAPE  C21315408   5.052   6.461   9.213  0.3905  0.1939  0.2400
  141SAPE  H13R15409   4.964   6.401   9.182  0.1072  0.7439 -0.0396
  141SAPE  H13S15410   5.135   6.429   9.146  0.5382  2.1786 -0.6177
  141SAPE  C21415411   5.027   6.606   9.180 -0.2146 -0.0662 -1.0625
  141SAPE  H14R15412   4.971   6.661   9.258 -0.7199 -0.7477 -0.9326
  141SAPE  C21515413   5.063   6.681   9.074  0.0847  0.1535  0.0202
  141SAPE  H15R15414   5.030   6.786   9.074 -0.2923  0.1096 -2.7233
  141SAPE  C21615415   5.134   6.640   8.946 -1.0884 -0.0205 -0.3218
  141SAPE  H16R15416   5.241   6.629   8.975 -1.5822  0.8251  1.9841
  141SAPE  H16S15417   5.121   6.717   8.868  0.2183 -1.2997 -1.8946
  141SAPE  C21715418   5.095   6.505   8.875  0.7450 -0.8184 -0.0088
  141SAPE  H17R15419   4.986   6.502   8.852  0.2349  2.1080  1.5501
  141SAPE  H17S15420   5.113   6.426   8.951  0.2124 -2.4194 -1.4671
  141SAPE  C21815421   5.179   6.458   8.758  0.3277  0.3338  0.4221
  141SAPE  H18R15422   5.286   6.473   8.785  0.5596  1.2850 -0.8952
  141SAPE  H18S15423   5.161   6.532   8.677 -1.6067 -0.2549  0.2600
  141SAPE  C21915424   5.152   6.322   8.689 -0.5365  0.3928  0.7684
  141SAPE  H19R15425   5.058   6.339   8.633 -0.6686  0.2260  0.9388
  141SAPE  H19S15426   5.134   6.245   8.767 -1.0510 -0.2013  0.0820
  141SAPE  C22015427   5.274   6.293   8.598 -0.0782 -0.6946  0.9719
  141SAPE  H20R15428   5.372   6.282   8.649 -0.1108 -1.6560  0.8449
  141SAPE  H20S15429   5.285   6.368   8.516 -0.1500 -1.0019  0.6801
  141SAPE  H20T15430   5.260   6.195   8.548  1.2725 -0.6480  0.4355
  141SAPE   C3315431   4.729   5.898  10.176  0.3994  0.5481  0.1897
  141SAPE   H3X15432   4.761   5.809  10.234 -1.7918 -0.8691 -0.6389
  141SAPE   H3Y15433   4.805   5.978  10.183  0.5260  0.5789 -1.1846
  141SAPE   C3415434   4.708   5.866  10.033  0.0002  0.3427  0.0883
  141SAPE   H4X15435   4.681   5.964   9.986  0.9103  0.6960  0.2764
  141SAPE   H4Y15436   4.618   5.802  10.023 -0.2388  0.7217 -0.2622
  141SAPE   C3515437   4.828   5.804   9.956  0.5831 -0.2081 -0.4274
  141SAPE   H5X15438   4.843   5.703   9.998 -2.2826  0.3392  2.2730
  141SAPE   H5Y15439   4.920   5.861   9.978  0.0490  0.6860 -0.4267
  141SAPE   C3615440   4.812   5.810   9.804  0.4033  0.3789 -0.1744
  141SAPE   H6X15441   4.908   5.781   9.757 -0.2750 -2.2689 -0.0711
  141SAPE   H6Y15442   4.792   5.914   9.771 -1.8761  0.1108  0.2229
  141SAPE   C3715443   4.699   5.726   9.740  0.5842  1.6827 -0.5384
  141SAPE   H7X15444   4.596   5.761   9.764 -0.5330 -1.3719 -0.4527
  141SAPE   H7Y15445   4.699   5.626   9.789  0.8252  1.4655 -0.9805
  141SAPE   C3815446   4.717   5.706   9.586  0.4346  0.4640 -0.0536
  141SAPE   H8X15447   4.626   5.645   9.571 -0.9756  2.3394  0.5170
  141SAPE   H8Y15448   4.809   5.650   9.559  0.0929 -0.8389  1.3249
  141SAPE   C3915449   4.719   5.831   9.499  0.1059  0.1126 -0.6806
  141SAPE   H9X15450   4.807   5.892   9.529  0.3644 -1.2130  1.5325
  141SAPE   H9Y15451   4.631   5.894   9.521  0.7593  2.1903 -3.4504
  141SAPE  C31015452   4.728   5.793   9.349  0.1170 -0.2432  0.2943
  141SAPE  H10X15453   4.646   5.721   9.327 -0.6404  0.6762  0.0145
  141SAPE  H10Y15454   4.827   5.761   9.309 -0.6292  0.4431 -2.3644
  141SAPE  C31115455   4.704   5.923   9.267 -0.1437  0.1854 -0.0405
  141SAPE  H11X15456   4.794   5.986   9.284 -1.4924  1.9146  1.1168
  141SAPE  H11Y15457   4.615   5.973   9.312 -2.0056  0.2160 -3.4539
  141SAPE  C31215458   4.661   5.898   9.129  0.1448  0.6436 -0.9118
  141SAPE  H12X15459   4.578   5.825   9.132  0.1427  0.5884 -1.9342
  141SAPE  H12Y15460   4.745   5.843   9.082 -0.6597 -1.2590 -0.1950
  141SAPE  C31315461   4.623   6.025   9.046 -0.2657  0.1866  0.0227
  141SAPE  H13X15462   4.722   6.062   9.011  2.0770 -3.9302  1.4912
  141SAPE  H13Y15463   4.572   6.101   9.109  1.3689  1.0576  0.3666
  141SAPE  C31415464   4.536   5.974   8.930 -0.1763 -0.5579 -0.4108
  141SAPE  H14X15465   4.447   5.934   8.984  0.6950  0.6641  2.1101
  141SAPE  H14Y15466   4.587   5.901   8.865  2.0963  0.8004 -0.2765
  141SAPE  C31515467   4.479   6.099   8.856 -0.2538  0.0591  0.6097
  141SAPE  H15X15468   4.548   6.176   8.815 -1.7642  1.0892 -0.0912
  141SAPE  H15Y15469   4.411   6.151   8.926 -0.3858 -0.9480  1.2485
  141SAPE  C31615470   4.383   6.066   8.738 -0.2119 -0.2629  0.7803
  141SAPE  H16X15471   4.329   5.972   8.761 -0.7576  0.0900  0.9842
  141SAPE  H16Y15472   4.447   6.064   8.647 -0.8082  1.0273  0.3082
  141SAPE  C31715473   4.273   6.169   8.709  0.3972 -0.2714 -0.2349
  141SAPE  H17X15474   4.227   6.191   8.808  0.2881  0.6097 -0.4672
  141SAPE  H17Y15475   4.191   6.143   8.640 -0.7305 -0.9604  1.2988
  141SAPE  C31815476   4.319   6.299   8.642  0.2464 -0.7681  0.1350
  141SAPE  H18X15477   4.242   6.378   8.637  0.0821 -0.9271  0.1414
  141SAPE  H18Y15478   4.370   6.283   8.544  1.1436  1.1170  0.2579
  141SAPE  H18Z15479   4.395   6.355   8.701 -0.8419 -1.9878  2.8657
  142SAPE     N15480   0.143   1.846  10.888 -0.2675 -0.2994 -0.2101
  142SAPE   HN115481   0.130   1.790  10.801  0.4225 -0.7454 -0.0289
  142SAPE   HN215482   0.238   1.814  10.914  0.2296  0.4164 -1.0619
  142SAPE   HN315483   0.077   1.806  10.957 -0.2376 -0.7572 -0.4431
  142SAPE   C1215484   0.129   1.997  10.879  0.4910 -0.0881 -0.5975
  142SAPE  H12A15485   0.104   2.027  10.983  0.0664 -1.2747 -0.3424
  142SAPE  H12B15486   0.039   2.010  10.815  1.5162 -0.0563 -2.0904
  142SAPE   C1115487   0.252   2.056  10.823 -0.4371 -0.0085  0.3998
  142SAPE  H11A15488   0.228   2.157  10.784  1.0953  0.4066  0.4667
  142SAPE  H11B15489   0.290   1.987  10.744  0.5972 -0.9072  1.6413
  142SAPE     P15490   0.393   2.181  11.025  0.2887 -0.3487  0.7298
  142SAPE   O1315491   0.278   2.207  11.119  0.4255 -0.3362 -0.1220
  142SAPE   O1415492   0.526   2.149  11.083  0.1309  0.2842 -0.0490
  142SAPE   O1215493   0.354   2.060  10.928 -0.7083 -0.3095  0.6487
  142SAPE   O1115494   0.403   2.303  10.921  0.2391 -0.3789 -0.0839
  142SAPE    C115495   0.538   2.327  10.876 -0.2003  0.6592  0.3384
  142SAPE    HA15496   0.602   2.373  10.954 -0.4385  0.5589  0.5916
  142SAPE    HB15497   0.587   2.233  10.842 -2.0566 -0.4319  0.5704
  142SAPE    C215498   0.546   2.418  10.750 -0.8171 -0.2688  0.9360
  142SAPE    HS15499   0.649   2.453  10.730 -1.2991  1.1486  0.8158
  142SAPE   O2115500   0.468   2.537  10.752  0.3591  0.1029 -0.2673
  142SAPE   C2115501   0.479   2.614  10.868 -0.1474  0.4152  0.2785
  142SAPE   O2215502   0.581   2.617  10.932 -0.0552 -0.0410 -0.2712
  142SAPE   C2215503   0.352   2.679  10.897  0.6178  0.2718 -0.3735
  142SAPE   H2R15504   0.298   2.688  10.801  0.5794 -0.0740 -0.3867
  142SAPE   H2S15505   0.285   2.616  10.959  0.8120 -0.0805 -0.5185
  142SAPE    C315506   0.508   2.335  10.629 -0.5894 -0.1506  0.2323
  142SAPE    HX15507   0.411   2.284  10.647 -0.2938 -2.1882 -3.1076
  142SAPE    HY15508   0.589   2.261  10.614  0.4063  1.2074 -1.5837
  142SAPE   O3115509   0.511   2.413  10.509  0.0032 -0.2954  0.0503
  142SAPE   C3115510   0.400   2.461  10.464  0.0969 -0.7185  0.4361
  142SAPE   O3215511   0.295   2.473  10.522 -0.3943 -0.2031  0.4053
  142SAPE   C3215512   0.425   2.527  10.325 -0.1412  0.2516 -0.6456
  142SAPE   H2X15513   0.535   2.536  10.321 -0.0837  0.0451  0.3498
  142SAPE   H2Y15514   0.377   2.627  10.332 -2.6520 -0.9654  0.9093
  142SAPE   C2315515   0.363   2.813  10.975 -0.3236 -0.1002  0.3869
  142SAPE   H3R15516   0.405   2.805  11.078 -1.9871  1.5244  1.2543
  142SAPE   H3S15517   0.261   2.854  10.993 -1.1804 -2.1271  0.4219
  142SAPE   C2415518   0.436   2.918  10.880 -0.4236  0.9352  0.3155
  142SAPE   H4R15519   0.536   2.875  10.858 -0.6973  0.5995 -0.2999
  142SAPE   H4S15520   0.458   3.017  10.925 -1.1959 -0.1672  3.3483
  142SAPE   C2515521   0.350   2.961  10.764  0.2248 -0.9190  0.6036
  142SAPE   H5R15522   0.272   3.035  10.790  1.0466  0.5223 -0.8820
  142SAPE   C2615523   0.362   2.940  10.631 -0.2653  0.8280  0.4021
  142SAPE   H6R15524   0.289   2.967  10.553  1.2083 -0.7467 -1.6421
  142SAPE   C2715525   0.471   2.851  10.576  0.3893 -0.2910 -0.1575
  142SAPE   H7R15526   0.414   2.763  10.538  1.0952 -1.5902  1.6150
  142SAPE   H7S15527   0.537   2.803  10.652 -2.0434 -1.5913  1.2635
  142SAPE   C2815528   0.554   2.915  10.470  0.0383  0.5925 -0.5403
  142SAPE   H8R15529   0.654   2.950  10.500  0.0350  1.0279 -1.0140
  142SAPE   C2915530   0.521   2.935  10.341  0.1333 -0.3721 -0.1725
  142SAPE   H9R15531   0.607   2.977  10.286  0.2426  0.1026  0.3454
  142SAPE  C21015532   0.400   2.891  10.262  0.4601  0.9412  0.5607
  142SAPE  H10R15533   0.341   2.816  10.319 -0.8240  0.5455 -1.1856
  142SAPE  H10S15534   0.432   2.827  10.177 -0.4475  2.0256 -0.6492
  142SAPE  C21115535   0.313   3.000  10.213 -0.2901 -0.2397  0.4273
  142SAPE  H11R15536   0.277   3.067  10.292 -0.4696 -1.3070  1.2751
  142SAPE  C21215537   0.274   3.006  10.084  0.7468 -0.5093 -0.6535
  142SAPE  H12R15538   0.196   3.081  10.065 -2.1914 -3.3584 -0.6348
  142SAPE  C21315539   0.303   2.928   9.961 -0.2861  0.6517 -0.4140
  142SAPE  H13R15540   0.362   2.839   9.990 -0.2038  0.7747 -0.2035
  142SAPE  H13S15541   0.363   2.993   9.894 -0.6716  1.3589 -0.0809
  142SAPE  C21415542   0.181   2.875   9.892 -0.0150  0.5504  1.0299
  142SAPE  H14R15543   0.114   2.800   9.938  0.4425 -2.2109 -2.3325
  142SAPE  C21515544   0.163   2.896   9.761 -0.2368  1.0995 -0.0419
  142SAPE  H15R15545   0.069   2.867   9.711  1.1362 -0.3467 -1.8934
  142SAPE  C21615546   0.249   2.983   9.668 -0.0519 -0.5394 -0.0983
  142SAPE  H16R15547   0.336   2.918   9.645  0.6877 -0.6678  2.6916
  142SAPE  H16S15548   0.288   3.074   9.717 -1.5959  0.5533 -0.8106
  142SAPE  C21715549   0.183   3.030   9.534  0.0069 -0.0619 -0.0776
  142SAPE  H17R15550   0.081   3.070   9.546  0.7302  1.5944  0.9403
  142SAPE  H17S15551   0.163   2.946   9.464  0.2386  1.3699 -1.9381
  142SAPE  C21815552   0.260   3.149   9.470 -0.6207  0.5972 -0.4885
  142SAPE  H18R15553   0.365   3.118   9.452 -0.5387  1.0796 -0.8952
  142SAPE  H18S15554   0.263   3.244   9.528 -2.2230  1.5564 -1.8591
  142SAPE  C21915555   0.215   3.177   9.333  0.2069  0.1257  0.6695
  142SAPE  H19R15556   0.261   3.266   9.284 -0.8610  1.0665  1.3233
  142SAPE  H19S15557   0.111   3.214   9.344 -0.1913 -0.9054  0.4520
  142SAPE  C22015558   0.204   3.060   9.227 -0.1634  0.1508 -0.8031
  142SAPE  H20R15559   0.119   2.997   9.260  0.3534  0.8079  2.0268
  142SAPE  H20S15560   0.298   3.004   9.210  1.0912  1.7296  0.5542
  142SAPE  H20T15561   0.168   3.106   9.132  0.0960  3.7813  0.7017
  142SAPE   C3315562   0.368   2.448  10.201  0.1538  0.3739  0.3539
  142SAPE   H3X15563   0.402   2.342  10.211 -1.4154 -0.1203  0.8239
  142SAPE   H3Y15564   0.404   2.481  10.101 -0.3862 -2.0199 -0.7020
  142SAPE   C3415565   0.218   2.453  10.204 -1.3360 -0.1251  0.0092
  142SAPE   H4X15566   0.176   2.551  10.176 -1.2246  0.1806  0.8818
  142SAPE   H4Y15567   0.185   2.431  10.308  1.1138  0.9341  1.0970
  142SAPE   C3515568   0.157   2.350  10.106  0.4124 -0.1936 -0.0295
  142SAPE   H5X15569   0.047   2.366  10.106  0.6618  1.8508  1.2114
  142SAPE   H5Y15570   0.177   2.244  10.134  0.5208 -0.6068 -1.5615
  142SAPE   C3615571   0.205   2.373   9.960 -0.0636 -0.2526 -0.1069
  142SAPE   H6X15572   0.316   2.373   9.960 -0.0615 -0.2461 -0.6691
  142SAPE   H6Y15573   0.181   2.474   9.921 -1.1392 -0.6904 -0.6167
  142SAPE   C3715574   0.152   2.275   9.858 -0.2841  0.7382  1.0481
  142SAPE   H7X15575   0.041   2.273   9.865 -0.2294 -1.8353  2.0551
  142SAPE   H7Y15576   0.190   2.176   9.891  1.4252  1.2221  0.6494
  142SAPE   C3815577   0.205   2.288   9.716 -0.1785  0.0095 -0.0374
  142SAPE   H8X15578   0.316   2.285   9.722 -0.2252 -0.8712  0.7234
  142SAPE   H8Y15579   0.170   2.382   9.668 -2.9305 -1.1247 -0.4654
  142SAPE   C3915580   0.172   2.159   9.641 -0.2546 -0.1820 -0.9204
  142SAPE   H9X15581   0.063   2.138   9.654  0.1953 -0.9173  2.6402
  142SAPE   H9Y15582   0.225   2.070   9.682  0.2658  0.0775 -1.0255
  142SAPE  C31015583   0.191   2.169   9.484 -0.2504 -0.8549 -0.0809
  142SAPE  H10X15584   0.149   2.269   9.457  0.8436 -0.5107 -0.5661
  142SAPE  H10Y15585   0.117   2.092   9.451 -1.2361  0.0047  0.0695
  142SAPE  C31115586   0.328   2.156   9.427  0.0044 -0.4185  0.0272
  142SAPE  H11X15587   0.383   2.075   9.480  2.3363  0.9674 -0.1763
  142SAPE  H11Y15588   0.388   2.243   9.458 -0.5608  0.0141 -0.0709
  142SAPE  C31215589   0.325   2.131   9.278  0.0368  0.0753  0.1802
  142SAPE  H12X15590   0.261   2.044   9.253  0.3998  0.8014 -4.0005
  142SAPE  H12Y15591   0.429   2.119   9.241  0.3308  0.7193  0.7695
  142SAPE  C31315592   0.276   2.258   9.194 -1.0670 -0.8184  0.0148
  142SAPE  H13X15593   0.343   2.345   9.208 -0.8185 -0.9611 -0.2696
  142SAPE  H13Y15594   0.178   2.291   9.233 -0.1194  3.7365 -0.8608
  142SAPE  C31415595   0.261   2.234   9.039 -0.4081 -0.2882 -0.5608
  142SAPE  H14X15596   0.356   2.190   9.003  1.0223  2.8661 -0.9736
  142SAPE  H14Y15597   0.252   2.339   9.003 -0.0694 -0.8869 -2.5196
  142SAPE  C31515598   0.143   2.144   8.999 -0.2221 -0.3115 -0.4668
  142SAPE  H15X15599   0.051   2.188   9.041  0.2179 -0.9752  1.2934
  142SAPE  H15Y15600   0.160   2.045   9.047 -4.2005 -0.5217  0.8204
  142SAPE  C31615601   0.114   2.122   8.847  0.2285 -0.0888 -0.0828
  142SAPE  H16X15602   0.087   2.217   8.796 -1.4529 -0.6782 -0.3393
  142SAPE  H16Y15603   0.034   2.048   8.827  2.2476 -1.9954 -1.5018
  142SAPE  C31715604   0.237   2.075   8.762 -0.9230 -1.4056  0.4641
  142SAPE  H17X15605   0.275   1.985   8.815 -3.2277 -2.7191 -0.0105
  142SAPE  H17Y15606   0.303   2.164   8.754 -2.1857 -0.3903  0.9595
  142SAPE  C31815607   0.212   2.044   8.615  0.3990  0.3076  0.2240
  142SAPE  H18X15608   0.118   1.986   8.606 -0.0742  1.2232 -1.2750
  142SAPE  H18Y15609   0.296   1.992   8.563 -0.1611 -0.1200 -0.2749
  142SAPE  H18Z15610   0.181   2.131   8.552  0.5773  0.7493  0.7355
  143SAPE     N15611   6.497   4.346  11.069 -0.5179  0.6076  0.3239
  143SAPE   HN115612   6.516   4.245  11.054  0.0243  0.6447  0.7246
  143SAPE   HN215613   6.424   4.347  11.143 -1.8617  0.2907 -0.9656
  143SAPE   HN315614   6.462   4.378  10.977  1.6515 -1.3589 -1.3116
  143SAPE   C1215615   6.627   4.401  11.127  0.1497  0.2526  0.1943
  143SAPE  H12A15616   6.668   4.332  11.204  0.0251  0.9341  0.8858
  143SAPE  H12B15617   6.611   4.501  11.173 -1.5004  0.1545 -0.0957
  143SAPE   C1115618   6.747   4.401  11.026  0.9801  0.1205 -0.1351
  143SAPE  H11A15619   6.741   4.476  10.945  0.4319 -0.7596 -0.9284
  143SAPE  H11B15620   6.763   4.300  10.982 -0.6812 -0.6308  0.8798
  143SAPE     P15621   7.010   4.430  11.054  0.2305  0.7581  0.6671
  143SAPE   O1315622   7.079   4.550  11.108 -0.2534 -0.2375  0.3588
  143SAPE   O1415623   7.056   4.290  11.085 -0.0653 -0.3984 -0.4003
  143SAPE   O1215624   6.857   4.439  11.107 -0.0953 -0.9624  0.6596
  143SAPE   O1115625   6.996   4.448  10.898  0.5042 -0.4123 -0.0892
  143SAPE    C115626   6.991   4.577  10.826 -0.9949 -0.6254  0.3391
  143SAPE    HA15627   6.890   4.621  10.833 -0.1277  1.5937 -0.1695
  143SAPE    HB15628   7.054   4.647  10.885 -0.2257 -1.1846  0.1997
  143SAPE    C215629   7.048   4.562  10.684  0.0010  0.9974  0.5919
  143SAPE    HS15630   7.072   4.664  10.646 -0.0734  0.3078 -1.4122
  143SAPE   O2115631   6.961   4.497  10.598  0.1490 -0.7562  0.6249
  143SAPE   C2115632   6.845   4.557  10.561 -0.3644  0.4809  0.2940
  143SAPE   O2215633   6.809   4.672  10.584  0.0887  0.3436  0.3492
  143SAPE   C2215634   6.761   4.461  10.472 -0.0403  0.0080  0.1329
  143SAPE   H2R15635   6.784   4.356  10.498 -0.5818 -0.3378 -0.7436
  143SAPE   H2S15636   6.654   4.479  10.496  0.1187  0.0933  0.8070
  143SAPE    C315637   7.181   4.485  10.674 -0.1986  0.3704  0.2272
  143SAPE    HX15638   7.168   4.386  10.724 -0.4089 -0.5628 -1.5700
  143SAPE    HY15639   7.250   4.544  10.739  3.0613 -1.8621 -0.9359
  143SAPE   O3115640   7.235   4.477  10.539  0.3094  0.6949 -0.0206
  143SAPE   C3115641   7.209   4.373  10.460 -0.2632 -0.1896 -0.4413
  143SAPE   O3215642   7.153   4.271  10.497 -0.5266  0.2115 -0.0077
  143SAPE   C3215643   7.248   4.416  10.316 -0.1511  0.9947 -0.0794
  143SAPE   H2X15644   7.352   4.454  10.325  0.8489 -1.7555  1.2038
  143SAPE   H2Y15645   7.184   4.498  10.279  0.2041  1.8438  1.0970
  143SAPE   C2315646   6.765   4.504  10.321 -1.1956  0.5411 -0.0841
  143SAPE   H3R15647   6.789   4.612  10.312 -1.6665  0.5889 -1.0152
  143SAPE   H3S15648   6.663   4.481  10.282 -2.1050  2.0580  1.2757
  143SAPE   C2415649   6.868   4.422  10.240  0.0515 -0.0863 -0.4387
  143SAPE   H4R15650   6.958   4.421  10.305  0.3027 -1.6339 -0.7691
  143SAPE   H4S15651   6.897   4.495  10.161  1.6014  1.1478  1.1920
  143SAPE   C2515652   6.825   4.289  10.190 -0.1290 -0.3355  0.3627
  143SAPE   H5R15653   6.782   4.217  10.260 -0.9782  1.1585  1.4427
  143SAPE   C2615654   6.838   4.248  10.064 -0.2884 -0.2412  0.7043
  143SAPE   H6R15655   6.807   4.147  10.033 -3.5720  0.0347  2.5630
  143SAPE   C2715656   6.899   4.326   9.946  0.3874  0.2297  0.4242
  143SAPE   H7R15657   6.957   4.254   9.883 -3.0274 -2.6009  0.2201
  143SAPE   H7S15658   6.967   4.407   9.980 -0.7913  1.3540  0.1873
  143SAPE   C2815659   6.796   4.394   9.861  0.1419  0.1828  0.1274
  143SAPE   H8R15660   6.721   4.451   9.918  1.2857  1.1648  0.6913
  143SAPE   C2915661   6.774   4.388   9.731 -1.1932  0.1234  0.1051
  143SAPE   H9R15662   6.686   4.431   9.682 -0.0695  2.9750  0.3907
  143SAPE  C21015663   6.866   4.318   9.627 -0.1689  0.4233 -0.1893
  143SAPE  H10R15664   6.805   4.293   9.537 -0.0251  0.7776 -0.3887
  143SAPE  H10S15665   6.904   4.222   9.666 -2.7977 -0.3986  0.5498
  143SAPE  C21115666   6.982   4.395   9.588 -0.6668  0.2653  0.1398
  143SAPE  H11R15667   7.046   4.439   9.665 -0.1788  0.3157 -0.2922
  143SAPE  C21215668   7.022   4.426   9.460  0.5274 -0.7224  0.4600
  143SAPE  H12R15669   7.120   4.470   9.438 -0.4649  1.6177  0.3332
  143SAPE  C21315670   6.952   4.374   9.334  0.6479 -0.1139 -0.7687
  143SAPE  H13R15671   6.844   4.399   9.349  0.6560 -1.2922  1.9411
  143SAPE  H13S15672   6.969   4.264   9.332 -0.1213 -0.2589 -0.1644
  143SAPE  C21415673   7.018   4.431   9.214  0.2982 -0.0655  0.8226
  143SAPE  H14R15674   7.126   4.413   9.214  0.5408  1.2727  1.9711
  143SAPE  C21515675   6.965   4.490   9.109  0.3325 -0.5693  0.3232
  143SAPE  H15R15676   7.035   4.532   9.034 -0.3252 -0.8713 -0.4692
  143SAPE  C21615677   6.821   4.512   9.091  0.2047  0.4326  0.0489
  143SAPE  H16R15678   6.796   4.616   9.122  0.8151  0.9589 -1.1776
  143SAPE  H16S15679   6.756   4.455   9.162  2.7826 -0.2439  1.9999
  143SAPE  C21715680   6.776   4.490   8.953 -0.0527  0.4450  0.4370
  143SAPE  H17R15681   6.823   4.398   8.915  2.8309  1.5850  0.9718
  143SAPE  H17S15682   6.813   4.579   8.897 -1.1353 -0.2870 -1.5249
  143SAPE  C21815683   6.621   4.483   8.932 -0.2481  0.4853  0.3704
  143SAPE  H18R15684   6.589   4.384   8.971  0.4162  0.1046 -0.0420
  143SAPE  H18S15685   6.592   4.481   8.825  0.8173  1.9381  0.0239
  143SAPE  C21915686   6.534   4.581   9.018 -0.2418 -0.2559  0.2741
  143SAPE  H19R15687   6.586   4.675   8.989  1.2081 -1.2987 -0.6451
  143SAPE  H19S15688   6.549   4.569   9.127  0.0858 -0.4813  0.2057
  143SAPE  C22015689   6.384   4.566   8.988  0.3052  0.0363 -0.3517
  143SAPE  H20R15690   6.326   4.636   9.053  1.4999 -0.8949  1.8435
  143SAPE  H20S15691   6.352   4.462   9.013  0.9539 -0.0878 -0.0086
  143SAPE  H20T15692   6.366   4.588   8.881 -1.4158  1.7063  0.2338
  143SAPE   C3315693   7.242   4.295  10.212 -0.0994  0.0468 -0.1055
  143SAPE   H3X15694   7.136   4.272  10.191 -0.3681  1.0725  0.0312
  143SAPE   H3Y15695   7.306   4.212  10.248  2.1533  0.4158 -2.9113
  143SAPE   C3415696   7.302   4.350  10.082  0.1329 -0.0785  0.1254
  143SAPE   H4X15697   7.411   4.351  10.102  0.3091  0.2340 -0.7751
  143SAPE   H4Y15698   7.272   4.455  10.061  0.8000 -0.0335 -0.6877
  143SAPE   C3515699   7.273   4.265   9.960 -0.1743 -0.1305  0.3635
  143SAPE   H5X15700   7.167   4.248   9.932  0.1129  0.6983 -1.3391
  143SAPE   H5Y15701   7.311   4.161   9.975  2.0963  0.4054 -1.1625
  143SAPE   C3615702   7.359   4.329   9.847 -0.6730 -0.2666  0.5200
  143SAPE   H6X15703   7.466   4.330   9.879  0.6906  1.0318 -3.5460
  143SAPE   H6Y15704   7.326   4.435   9.838 -1.0288 -0.0866  3.1200
  143SAPE   C3715705   7.337   4.266   9.711 -0.0472  0.8922  0.2469
  143SAPE   H7X15706   7.234   4.284   9.672 -0.1332  1.6887  0.8206
  143SAPE   H7Y15707   7.366   4.159   9.711 -1.3201  0.5127  1.1009
  143SAPE   C3815708   7.429   4.329   9.606 -0.2037  0.0857  0.5993
  143SAPE   H8X15709   7.531   4.312   9.646 -0.3910  0.4424  1.2282
  143SAPE   H8Y15710   7.415   4.438   9.594  0.3204  0.1102  0.1399
  143SAPE   C3915711   7.414   4.263   9.470  0.4027  0.3843 -0.3016
  143SAPE   H9X15712   7.315   4.285   9.424  1.1143 -0.8538 -2.5378
  143SAPE   H9Y15713   7.429   4.155   9.488 -0.1244  0.3255 -0.1832
  143SAPE  C31015714   7.502   4.322   9.355  0.1113 -0.1376 -0.3522
  143SAPE  H10X15715   7.609   4.300   9.377  1.1824  2.1109 -2.8025
  143SAPE  H10Y15716   7.490   4.433   9.348 -0.7306 -0.0826  1.4591
  143SAPE  C31115717   7.453   4.263   9.221  0.3323  0.0744 -0.2817
  143SAPE  H11X15718   7.343   4.279   9.211 -0.2912 -3.6083 -0.6558
  143SAPE  H11Y15719   7.458   4.153   9.233  0.3051 -0.1296 -1.9828
  143SAPE  C31215720   7.521   4.304   9.091  0.1155  0.0120 -0.0150
  143SAPE  H12X15721   7.627   4.273   9.100 -0.1394 -1.0116 -0.2891
  143SAPE  H12Y15722   7.522   4.415   9.087  0.7965  0.2254  3.3573
  143SAPE  C31315723   7.469   4.254   8.965 -0.3620  0.7766  0.2932
  143SAPE  H13X15724   7.435   4.149   8.970  0.3550  0.5882  1.6771
  143SAPE  H13Y15725   7.554   4.241   8.895  0.9667  0.2519  1.9467
  143SAPE  C31415726   7.353   4.333   8.905 -0.7624 -0.2297 -0.2557
  143SAPE  H14X15727   7.395   4.435   8.904  1.4677 -1.0782 -2.0715
  143SAPE  H14Y15728   7.258   4.338   8.964 -1.4598 -0.1668 -1.3488
  143SAPE  C31515729   7.325   4.286   8.760  0.4443  0.1023  0.4028
  143SAPE  H15X15730   7.318   4.177   8.776  0.5522  0.1394  0.7146
  143SAPE  H15Y15731   7.415   4.309   8.699  1.5135  1.7004  2.4239
  143SAPE  C31615732   7.205   4.354   8.693 -0.0922 -0.4190 -0.1157
  143SAPE  H16X15733   7.199   4.335   8.583  1.7874  1.9634 -0.7077
  143SAPE  H16Y15734   7.215   4.462   8.717 -2.6011 -0.4072  1.1855
  143SAPE  C31715735   7.072   4.320   8.755 -0.2583 -0.2612 -0.0353
  143SAPE  H17X15736   7.048   4.374   8.849 -1.0303 -2.0509  0.8192
  143SAPE  H17Y15737   7.054   4.215   8.785  0.0671  0.1274  1.5993
  143SAPE  C31815738   6.970   4.358   8.650  0.2643  0.8751  0.7840
  143SAPE  H18X15739   6.987   4.467   8.638  2.9407  0.7548  2.6255
  143SAPE  H18Y15740   6.867   4.341   8.688 -0.4562 -2.1843 -2.0517
  143SAPE  H18Z15741   6.978   4.300   8.556 -3.0374  0.0476  0.8989
  144SAPE     N15742   5.735   4.023  10.739 -0.5214 -0.0714 -0.9583
  144SAPE   HN115743   5.802   4.099  10.761 -0.1094 -0.5551 -0.5014
  144SAPE   HN215744   5.638   4.055  10.759 -0.2066 -0.0682  0.6704
  144SAPE   HN315745   5.750   3.943  10.804 -0.1944  0.2115 -0.6851
  144SAPE   C1215746   5.760   3.979  10.600  0.9321 -0.0392  0.0649
  144SAPE  H12A15747   5.867   3.953  10.587  0.2530 -2.9745 -0.3544
  144SAPE  H12B15748   5.720   4.066  10.544  0.0635 -0.2965  0.2798
  144SAPE   C1115749   5.667   3.862  10.574  0.0138  0.2037 -0.1324
  144SAPE  H11A15750   5.652   3.849  10.465  0.3044 -0.0131 -0.1468
  144SAPE  H11B15751   5.568   3.884  10.619  0.5443  0.6080  0.8786
  144SAPE     P15752   5.597   3.611  10.611 -0.1797  0.3102  0.3543
  144SAPE   O1315753   5.646   3.486  10.677 -0.4583  0.5177 -0.2565
  144SAPE   O1415754   5.475   3.658  10.662 -0.5850 -0.5345  0.2045
  144SAPE   O1215755   5.701   3.732  10.636  0.7998  0.0992  0.2247
  144SAPE   O1115756   5.571   3.580  10.462  0.0427  0.5971 -0.3836
  144SAPE    C115757   5.679   3.570  10.370  0.3580  0.0285  0.3719
  144SAPE    HA15758   5.734   3.667  10.373  0.7772 -0.2138  0.8974
  144SAPE    HB15759   5.757   3.491  10.386  1.2295  0.9376  0.7339
  144SAPE    C215760   5.626   3.556  10.226 -0.3267 -0.1394  0.2437
  144SAPE    HS15761   5.701   3.599  10.156  0.3455 -3.5753 -1.3283
  144SAPE   O2115762   5.491   3.608  10.218 -0.3780 -0.5644  0.3497
  144SAPE   C2115763   5.487   3.736  10.189 -0.8348 -0.3443 -0.3385
  144SAPE   O2215764   5.584   3.814  10.171 -0.4130 -0.9518 -0.1200
  144SAPE   C2215765   5.339   3.771  10.174  0.6001  0.5548  0.4698
  144SAPE   H2R15766   5.285   3.705  10.245 -1.1649 -2.7145 -3.4533
  144SAPE   H2S15767   5.311   3.875  10.202 -1.7615  0.3602 -0.8481
  144SAPE    C315768   5.621   3.403  10.186  0.2213 -0.2112  0.1154
  144SAPE    HX15769   5.573   3.346  10.269  1.9748  1.0800  2.1135
  144SAPE    HY15770   5.727   3.370  10.184 -0.2521 -1.7667 -1.9272
  144SAPE   O3115771   5.570   3.380  10.051 -0.0726  0.4595 -0.3110
  144SAPE   C3115772   5.443   3.347  10.044 -0.7885 -0.7905 -0.1808
  144SAPE   O3215773   5.365   3.325  10.134 -0.0102 -0.7591  0.1907
  144SAPE   C3215774   5.405   3.327   9.897 -0.1942  0.2006  0.3197
  144SAPE   H2X15775   5.354   3.228   9.892 -0.0716 -0.0622  3.0353
  144SAPE   H2Y15776   5.492   3.321   9.828 -0.6566 -1.6906 -0.1593
  144SAPE   C2315777   5.277   3.731  10.039  0.2690 -0.0504  0.1440
  144SAPE   H3R15778   5.171   3.707  10.061  0.9077 -2.5567  0.7937
  144SAPE   H3S15779   5.327   3.635  10.014 -0.6764 -0.3378 -0.6884
  144SAPE   C2415780   5.283   3.833   9.911 -0.6401 -0.2207 -0.4257
  144SAPE   H4R15781   5.236   3.925   9.951 -0.1066 -0.4490  0.7805
  144SAPE   H4S15782   5.215   3.781   9.840 -1.1073 -0.0273 -0.1199
  144SAPE   C2515783   5.422   3.856   9.848  0.0257  0.6877 -0.6073
  144SAPE   H5R15784   5.508   3.875   9.913  0.8473  2.3196 -2.0668
  144SAPE   C2615785   5.452   3.874   9.723  0.8836 -0.2776  0.7991
  144SAPE   H6R15786   5.556   3.880   9.689  0.1899 -0.2073 -1.5014
  144SAPE   C2715787   5.343   3.884   9.607 -1.1126 -0.1467  0.5558
  144SAPE   H7R15788   5.249   3.916   9.657 -0.5186 -0.5819  2.0176
  144SAPE   H7S15789   5.330   3.782   9.563 -1.0938  1.3144 -3.1457
  144SAPE   C2815790   5.377   3.978   9.497 -0.8459 -0.3432  0.2745
  144SAPE   H8R15791   5.420   4.074   9.529 -1.7857 -0.1032  0.8741
  144SAPE   C2915792   5.349   3.960   9.369  1.0994  0.0913 -0.3680
  144SAPE   H9R15793   5.377   4.038   9.296 -1.4831 -0.6422 -2.2870
  144SAPE  C21015794   5.272   3.846   9.304  0.4081  0.1416  0.6628
  144SAPE  H10R15795   5.275   3.760   9.374  3.2549 -0.4206 -0.0319
  144SAPE  H10S15796   5.329   3.820   9.213  0.0321  0.5303  0.3097
  144SAPE  C21115797   5.125   3.877   9.268 -0.3520  0.3522  0.6455
  144SAPE  H11R15798   5.054   3.860   9.350 -2.8332  2.8990 -0.7704
  144SAPE  C21215799   5.079   3.930   9.149 -0.3818  0.7356  0.3056
  144SAPE  H12R15800   4.970   3.944   9.142 -0.8920 -2.8426 -0.9454
  144SAPE  C21315801   5.165   3.953   9.027  0.0129  0.4092 -0.3681
  144SAPE  H13R15802   5.269   3.975   9.061 -0.2981 -0.3614  1.1499
  144SAPE  H13S15803   5.129   4.040   8.969 -1.2004  0.3845  0.3086
  144SAPE  C21415804   5.168   3.837   8.936 -0.2708  0.5039 -0.0863
  144SAPE  H14R15805   5.246   3.761   8.944 -1.5774 -0.8699  0.0302
  144SAPE  C21515806   5.098   3.838   8.818  0.6182 -0.8170 -0.5727
  144SAPE  H15R15807   5.113   3.757   8.746  0.8547 -2.3944  1.1776
  144SAPE  C21615808   5.004   3.943   8.759  0.1717 -0.1323 -0.6724
  144SAPE  H16R15809   4.967   4.003   8.845  0.3315 -0.9580 -0.0148
  144SAPE  H16S15810   4.921   3.895   8.704  0.6816  1.8879 -3.3817
  144SAPE  C21715811   5.069   4.042   8.660  0.4326 -0.4939 -0.8956
  144SAPE  H17R15812   5.136   4.110   8.717 -1.2470  0.2636  0.2581
  144SAPE  H17S15813   4.990   4.111   8.624  2.4798  1.8050 -1.2499
  144SAPE  C21815814   5.145   3.987   8.543  0.6736 -0.1812  0.0473
  144SAPE  H18R15815   5.078   3.920   8.484 -0.6927  0.2765  1.0170
  144SAPE  H18S15816   5.222   3.920   8.586 -0.3412 -0.6131  1.2451
  144SAPE  C21915817   5.191   4.106   8.452 -0.3508 -0.5626  1.0511
  144SAPE  H19R15818   5.095   4.153   8.420  1.4718  1.7153 -1.5709
  144SAPE  H19S15819   5.239   4.068   8.360  0.5542 -0.2944  1.4009
  144SAPE  C22015820   5.287   4.209   8.507 -0.2283 -0.4815  0.3886
  144SAPE  H20R15821   5.378   4.157   8.545 -0.2905  0.5864  2.1012
  144SAPE  H20S15822   5.245   4.267   8.591  0.3958  0.0903  0.3199
  144SAPE  H20T15823   5.302   4.276   8.420 -1.4250 -1.3755 -0.5482
  144SAPE   C3315824   5.317   3.441   9.839  0.4864  0.1604  0.1697
  144SAPE   H3X15825   5.369   3.539   9.835 -1.9209  1.4907 -1.4679
  144SAPE   H3Y15826   5.224   3.466   9.895 -0.4925  0.3572 -1.4570
  144SAPE   C3415827   5.294   3.412   9.689  0.0020  0.4247 -0.4711
  144SAPE   H4X15828   5.389   3.374   9.644 -1.0271 -0.5576 -1.9138
  144SAPE   H4Y15829   5.268   3.508   9.639 -1.0032 -0.9684 -2.7682
  144SAPE   C3515830   5.178   3.316   9.659 -0.1364  0.4527  1.1368
  144SAPE   H5X15831   5.084   3.337   9.715  0.7187  1.3162  2.3188
  144SAPE   H5Y15832   5.208   3.213   9.686  0.7706 -0.2539 -2.1102
  144SAPE   C3615833   5.135   3.326   9.505 -1.0369 -0.1049 -0.6050
  144SAPE   H6X15834   5.207   3.263   9.448 -0.6877  0.1051 -0.4030
  144SAPE   H6Y15835   5.136   3.433   9.475  0.3385 -0.0376 -0.3890
  144SAPE   C3715836   5.009   3.253   9.475 -0.6091  0.0008 -0.0191
  144SAPE   H7X15837   4.922   3.305   9.521 -0.0739 -0.4777  1.6306
  144SAPE   H7Y15838   5.002   3.163   9.540 -1.5620  0.7986  1.0437
  144SAPE   C3815839   4.975   3.239   9.324  0.1068  0.1872  0.2496
  144SAPE   H8X15840   5.061   3.199   9.267 -0.4342 -0.4785 -0.1026
  144SAPE   H8Y15841   4.948   3.341   9.290 -0.7766 -0.1704 -0.1547
  144SAPE   C3915842   4.859   3.147   9.305 -0.1280  0.3616 -0.9313
  144SAPE   H9X15843   4.770   3.197   9.349  0.7275  1.5627 -0.5147
  144SAPE   H9Y15844   4.882   3.063   9.374  0.4449 -0.6429 -2.2947
  144SAPE  C31015845   4.830   3.107   9.160  0.3863  0.3048  0.2709
  144SAPE  H10X15846   4.915   3.042   9.130 -0.6183 -0.2454 -1.4960
  144SAPE  H10Y15847   4.842   3.189   9.087 -1.6055 -0.0074 -0.4780
  144SAPE  C31115848   4.690   3.048   9.132 -0.1683  0.1708  0.0759
  144SAPE  H11X15849   4.617   3.118   9.179  0.4894  0.6819  0.3610
  144SAPE  H11Y15850   4.681   2.950   9.183 -3.2735  1.1986  1.7750
  144SAPE  C31215851   4.671   3.036   8.982 -1.0725  0.1353 -0.1527
  144SAPE  H12X15852   4.738   2.958   8.942 -2.5609 -0.8064 -0.8827
  144SAPE  H12Y15853   4.703   3.128   8.928 -0.5496  0.3321  0.4690
  144SAPE  C31315854   4.534   2.994   8.940 -0.3373  0.3863 -0.2636
  144SAPE  H13X15855   4.514   3.034   8.839  0.1951  1.5495  0.0753
  144SAPE  H13Y15856   4.461   3.034   9.014  3.5237  1.8520  3.1482
  144SAPE  C31415857   4.515   2.840   8.947  0.6592  1.0921 -0.3053
  144SAPE  H14X15858   4.537   2.809   9.052  1.7162  0.0385 -0.8129
  144SAPE  H14Y15859   4.599   2.797   8.889  1.1932  0.3621  0.9556
  144SAPE  C31515860   4.372   2.785   8.920 -0.0483  0.0002  0.6972
  144SAPE  H15X15861   4.349   2.805   8.814 -1.2343 -0.2400  0.9036
  144SAPE  H15Y15862   4.300   2.848   8.976  0.7969  0.8040  0.9145
  144SAPE  C31615863   4.347   2.636   8.947 -0.4845 -0.2552 -0.6105
  144SAPE  H16X15864   4.403   2.619   9.042 -1.0005 -0.3656 -0.3171
  144SAPE  H16Y15865   4.400   2.564   8.882  1.1108  1.0691 -0.8520
  144SAPE  C31715866   4.201   2.595   8.939 -0.5754  0.4612  0.0069
  144SAPE  H17X15867   4.169   2.615   8.835 -1.5919  0.5750  0.3366
  144SAPE  H17Y15868   4.139   2.651   9.012 -2.3559 -1.1065 -0.2254
  144SAPE  C31815869   4.174   2.445   8.957 -0.5470  0.1407  0.6261
  144SAPE  H18X15870   4.080   2.413   8.906  0.4609 -1.6924 -0.2059
  144SAPE  H18Y15871   4.153   2.414   9.061 -0.5572 -1.2968  0.2234
  144SAPE  H18Z15872   4.256   2.378   8.922 -0.3404  1.0848 -0.7826
  145SAPE     N15873   0.763   3.449  11.164 -0.2566  0.1425  0.3329
  145SAPE   HN115874   0.685   3.490  11.218 -1.7440  0.4266 -1.8827
  145SAPE   HN215875   0.848   3.509  11.164  1.4707 -2.1614  0.5763
  145SAPE   HN315876   0.732   3.451  11.064 -0.4871  0.7737  0.4181
  145SAPE   C1215877   0.795   3.304  11.214 -0.0705 -0.5570  0.4101
  145SAPE  H12A15878   0.810   3.237  11.127 -0.2489  2.3335 -1.9696
  145SAPE  H12B15879   0.709   3.275  11.278 -0.7236  1.9162  0.7399
  145SAPE   C1115880   0.934   3.312  11.283  0.2474  1.2237  0.1956
  145SAPE  H11A15881   0.953   3.215  11.333  0.2470  2.0357  1.8137
  145SAPE  H11B15882   0.934   3.379  11.371  2.5543  0.0899  1.1579
  145SAPE     P15883   1.193   3.369  11.227  0.3340  0.2332  0.1088
  145SAPE   O1315884   1.225   3.513  11.233  0.2212 -0.0693 -0.6612
  145SAPE   O1415885   1.227   3.293  11.344  0.2455 -0.0120 -0.6991
  145SAPE   O1215886   1.037   3.342  11.185 -0.2580 -0.2697 -0.0071
  145SAPE   O1115887   1.284   3.303  11.111 -0.0002 -0.6401  0.3686
  145SAPE    C115888   1.248   3.177  11.046  0.1418 -0.8204 -0.7256
  145SAPE    HA15889   1.337   3.112  11.051 -0.0341 -0.9495  1.7729
  145SAPE    HB15890   1.151   3.138  11.084 -1.0846  2.7559  0.1919
  145SAPE    C215891   1.233   3.195  10.887 -0.3958  0.3551 -0.3279
  145SAPE    HS15892   1.319   3.248  10.841  1.2539 -1.0874  0.9739
  145SAPE   O2115893   1.105   3.251  10.858 -0.0742 -0.4739 -0.2647
  145SAPE   C2115894   1.111   3.384  10.860 -0.3094  0.3899  0.8176
  145SAPE   O2215895   1.216   3.453  10.864  0.1526  0.2496 -0.1083
  145SAPE   C2215896   0.970   3.446  10.856  0.6290 -0.1904 -0.5164
  145SAPE   H2R15897   0.892   3.367  10.864 -0.5574  0.8797 -1.1972
  145SAPE   H2S15898   0.968   3.514  10.944 -0.4683  1.0406 -1.4500
  145SAPE    C315899   1.239   3.053  10.815 -0.4088 -0.2041  0.6084
  145SAPE    HX15900   1.165   2.983  10.860 -0.6593 -1.4228 -1.5455
  145SAPE    HY15901   1.344   3.021  10.833  0.8247  3.5648  0.9955
  145SAPE   O3115902   1.215   3.059  10.673 -0.0362 -0.1116  0.3329
  145SAPE   C3115903   1.089   3.055  10.631  0.1421  0.3104 -0.2390
  145SAPE   O3215904   0.992   3.032  10.703 -0.0380  0.2551  0.8609
  145SAPE   C3215905   1.083   3.081  10.477  0.2477 -0.4947  0.8039
  145SAPE   H2X15906   1.150   3.003  10.436 -0.8376 -0.1134 -1.9383
  145SAPE   H2Y15907   1.129   3.178  10.450  0.4543 -0.8433 -0.1635
  145SAPE   C2315908   0.926   3.530  10.734 -0.6815  0.2619 -0.6071
  145SAPE   H3R15909   1.002   3.606  10.705 -0.2428  0.5316  1.1199
  145SAPE   H3S15910   0.833   3.583  10.763 -2.0547 -3.5272  2.9632
  145SAPE   C2415911   0.904   3.443  10.605 -0.2087 -0.0171  0.7217
  145SAPE   H4R15912   0.990   3.377  10.582 -2.3845 -2.4585 -1.0331
  145SAPE   H4S15913   0.909   3.508  10.515  0.1084 -2.2397 -0.9507
  145SAPE   C2515914   0.779   3.360  10.618 -0.4007  1.1751  0.7789
  145SAPE   H5R15915   0.769   3.300  10.710 -3.2935 -0.2750 -0.3357
  145SAPE   C2615916   0.679   3.350  10.525  0.4204 -0.0244 -0.7302
  145SAPE   H6R15917   0.602   3.272  10.538 -0.5496  1.1383  1.1465
  145SAPE   C2715918   0.671   3.426  10.393 -0.0480  0.2904 -0.4133
  145SAPE   H7R15919   0.770   3.443  10.347  1.2650  1.4371  2.5567
  145SAPE   H7S15920   0.625   3.526  10.408 -2.4985 -0.8732  0.4524
  145SAPE   C2815921   0.578   3.354  10.295  0.2051  0.7604 -0.1955
  145SAPE   H8R15922   0.507   3.281  10.337  1.1446  0.5213  1.0457
  145SAPE   C2915923   0.574   3.372  10.162  0.7156 -0.2017 -0.4448
  145SAPE   H9R15924   0.504   3.311  10.103  0.9674 -1.3923  0.4354
  145SAPE  C21015925   0.659   3.468  10.083 -0.1236  0.6237 -0.1093
  145SAPE  H10R15926   0.665   3.438   9.977  0.2175 -1.3263  0.4123
  145SAPE  H10S15927   0.764   3.468  10.120 -0.2086  0.5987  0.1369
  145SAPE  C21115928   0.601   3.613  10.087  0.1602  0.6964  0.6053
  145SAPE  H11R15929   0.608   3.662  10.186 -0.2753  2.0178  0.0033
  145SAPE  C21215930   0.562   3.686   9.979 -0.3294  0.0370  0.0031
  145SAPE  H12R15931   0.517   3.783  10.002 -1.4823 -0.5655  0.3753
  145SAPE  C21315932   0.556   3.639   9.836  0.1992 -0.1668 -0.2175
  145SAPE  H13R15933   0.480   3.701   9.785 -1.7103  0.4403  3.1032
  145SAPE  H13S15934   0.526   3.532   9.828 -0.7798  0.0970 -0.1961
  145SAPE  C21415935   0.686   3.666   9.767  0.1328  0.4467 -0.4739
  145SAPE  H14R15936   0.776   3.699   9.820  0.6780 -0.9196 -0.5132
  145SAPE  C21515937   0.710   3.634   9.645  0.4376  0.2204  1.1769
  145SAPE  H15R15938   0.810   3.647   9.602 -0.4339  2.1917 -0.3841
  145SAPE  C21615939   0.611   3.559   9.556 -0.3976  0.5500  0.4095
  145SAPE  H16R15940   0.519   3.620   9.549 -1.3469 -0.8259  0.5799
  145SAPE  H16S15941   0.573   3.463   9.597 -1.7587  1.0979  0.4787
  145SAPE  C21715942   0.666   3.543   9.414  0.1375 -0.5347  0.6437
  145SAPE  H17R15943   0.762   3.485   9.413 -0.0697 -0.8763 -0.1148
  145SAPE  H17S15944   0.700   3.646   9.391 -1.6226  0.2353  1.3395
  145SAPE  C21815945   0.568   3.498   9.305 -0.7805 -0.0107 -0.3232
  145SAPE  H18R15946   0.470   3.542   9.332 -0.1906  0.1480  1.7078
  145SAPE  H18S15947   0.564   3.387   9.312 -0.9444  0.0766  1.4864
  145SAPE  C21915948   0.607   3.551   9.168 -1.0591 -0.5660  0.2343
  145SAPE  H19R15949   0.691   3.488   9.133 -1.6225 -1.8005  1.0401
  145SAPE  H19S15950   0.641   3.656   9.179 -0.9735 -0.3208 -1.9425
  145SAPE  C22015951   0.486   3.542   9.070 -0.2708  0.7295  0.1477
  145SAPE  H20R15952   0.395   3.596   9.104 -1.8727 -1.3021 -0.6893
  145SAPE  H20S15953   0.470   3.433   9.060  0.7425  0.6860 -1.2908
  145SAPE  H20T15954   0.507   3.570   8.965 -0.9639 -4.1951 -1.5659
  145SAPE   C3315955   0.950   3.060  10.399  0.4159 -0.1209  0.0117
  145SAPE   H3X15956   0.873   3.135  10.427  0.2351  0.1052 -1.0569
  145SAPE   H3Y15957   0.919   2.954  10.411  0.7128 -0.0421  1.8646
  145SAPE   C3415958   0.957   3.079  10.251 -0.5742  0.3616  0.2529
  145SAPE   H4X15959   1.031   3.008  10.206 -1.0508  0.5721 -0.9052
  145SAPE   H4Y15960   1.000   3.179  10.233  4.0217 -1.4253 -0.2309
  145SAPE   C3515961   0.825   3.068  10.180  0.7409 -0.2678  0.7424
  145SAPE   H5X15962   0.760   3.151  10.215  1.6449  0.4828  0.6858
  145SAPE   H5Y15963   0.782   2.966  10.191  0.5519 -0.3750 -0.7207
  145SAPE   C3615964   0.842   3.093  10.030  0.7431  0.4426 -0.5461
  145SAPE   H6X15965   0.938   3.058   9.986  1.5988  0.1455  1.4501
  145SAPE   H6Y15966   0.861   3.201  10.017 -1.4672  0.9043 -0.2847
  145SAPE   C3715967   0.728   3.057   9.933  0.3659  0.5310  0.0340
  145SAPE   H7X15968   0.640   3.105   9.982  1.0556  1.0380  0.7898
  145SAPE   H7Y15969   0.727   2.946   9.933  3.2965  0.4272  0.5792
  145SAPE   C3815970   0.741   3.134   9.793 -0.6601 -0.2217 -0.5757
  145SAPE   H8X15971   0.831   3.090   9.745 -0.4990 -1.9441  1.1853
  145SAPE   H8Y15972   0.772   3.237   9.822 -2.5057  0.0972  0.4189
  145SAPE   C3915973   0.607   3.132   9.732  0.3959 -0.4348  0.0988
  145SAPE   H9X15974   0.534   3.189   9.794  1.8786 -0.2039  1.6769
  145SAPE   H9Y15975   0.568   3.028   9.727  1.4000 -0.8027 -0.3798
  145SAPE  C31015976   0.623   3.180   9.584  0.4726  1.4585 -0.1478
  145SAPE  H10X15977   0.684   3.271   9.603  0.9385  1.2889 -0.7635
  145SAPE  H10Y15978   0.523   3.209   9.545 -0.9190 -1.2542  1.1548
  145SAPE  C31115979   0.682   3.078   9.484  0.8140  0.1961 -0.0642
  145SAPE  H11X15980   0.616   2.989   9.478 -3.5030  3.0350  0.9286
  145SAPE  H11Y15981   0.770   3.039   9.540  1.1228  2.2801  1.0323
  145SAPE  C31215982   0.709   3.130   9.348  0.1844  0.2569 -0.2594
  145SAPE  H12X15983   0.768   3.224   9.357  2.6932 -1.4250  2.5614
  145SAPE  H12Y15984   0.610   3.151   9.302  0.5025 -0.1749 -1.1604
  145SAPE  C31315985   0.777   3.033   9.250 -0.3538 -0.1012  0.5763
  145SAPE  H13X15986   0.730   2.933   9.257  0.4533 -0.5412 -0.2688
  145SAPE  H13Y15987   0.884   3.023   9.277 -0.3810 -1.7310  0.1253
  145SAPE  C31415988   0.773   3.083   9.103 -0.6297  0.4089 -0.6551
  145SAPE  H14X15989   0.858   3.028   9.058 -2.2879 -3.6598  0.7109
  145SAPE  H14Y15990   0.797   3.192   9.104 -1.7786  0.6846 -1.1310
  145SAPE  C31515991   0.649   3.050   9.030 -0.4298 -0.1227  0.6373
  145SAPE  H15X15992   0.566   3.101   9.083  1.0862  0.3513  2.7237
  145SAPE  H15Y15993   0.629   2.941   9.027  1.0441 -0.3825 -1.2163
  145SAPE  C31615994   0.668   3.106   8.889 -0.5297 -0.0084 -0.3832
  145SAPE  H16X15995   0.777   3.100   8.872 -0.4942  0.1078 -0.1983
  145SAPE  H16Y15996   0.646   3.215   8.891  0.7340  0.3073  3.0842
  145SAPE  C31715997   0.584   3.034   8.782  0.5664  0.0737  0.6984
  145SAPE  H17X15998   0.475   3.049   8.792  0.6808  1.2020  0.3798
  145SAPE  H17Y15999   0.609   2.926   8.770 -0.4763 -0.0349 -0.7111
  145SAPE  C31816000   0.608   3.095   8.642 -0.0758  0.2648 -0.7547
  145SAPE  H18X16001   0.561   3.022   8.573  0.1483 -0.0899 -0.5369
  145SAPE  H18Y16002   0.715   3.107   8.615  1.1326 -0.7337  2.9200
  145SAPE  H18Z16003   0.554   3.192   8.632 -1.5616 -0.3755  0.7278
  146SAPE     N16004   0.385   5.376  11.140 -0.2200 -0.2510  0.2521
  146SAPE   HN116005   0.440   5.343  11.222  1.6050 -1.4777 -1.3946
  146SAPE   HN216006   0.406   5.314  11.059 -2.7299 -2.4480  1.1370
  146SAPE   HN316007   0.413   5.475  11.124  1.2450 -0.0367  3.2917
  146SAPE   C1216008   0.239   5.379  11.175 -0.1632 -0.5970 -0.5610
  146SAPE  H12A16009   0.188   5.423  11.087  0.2107 -1.5468 -1.2797
  146SAPE  H12B16010   0.227   5.428  11.273  0.9706 -3.4850  1.1654
  146SAPE   C1116011   0.171   5.243  11.186 -0.4539  0.0559  0.1054
  146SAPE  H11A16012   0.065   5.255  11.217 -0.1878 -0.9740  1.5603
  146SAPE  H11B16013   0.227   5.199  11.271 -1.0601 -1.5940 -0.3164
  146SAPE     P16014   0.061   5.120  10.985 -0.3165 -0.2215 -0.0391
  146SAPE   O1316015  -0.007   5.016  11.065 -0.0124  0.3722 -0.0511
  146SAPE   O1416016  -0.031   5.225  10.942 -0.2853 -0.0325 -0.0356
  146SAPE   O1216017   0.188   5.171  11.065 -0.3504 -0.1018 -0.1167
  146SAPE   O1116018   0.130   5.051  10.861 -0.3777 -0.1980 -0.5568
  146SAPE    C116019   0.253   5.117  10.814 -1.1821  0.4622  0.2788
  146SAPE    HA16020   0.222   5.210  10.761 -1.8296  0.4272  0.5821
  146SAPE    HB16021   0.328   5.146  10.890 -1.6599 -0.1473  0.9999
  146SAPE    C216022   0.305   5.022  10.701  0.2033  0.0031  0.0836
  146SAPE    HS16023   0.387   5.081  10.654 -0.7579  0.6670 -0.7992
  146SAPE   O2116024   0.212   5.007  10.598  0.1977 -1.1840  0.3386
  146SAPE   C2116025   0.174   5.108  10.527  0.2029  0.4600  0.1136
  146SAPE   O2216026   0.229   5.222  10.532  0.4595 -0.1933  0.0851
  146SAPE   C2216027   0.062   5.075  10.435 -0.5211  0.3337  0.3074
  146SAPE   H2R16028   0.050   4.965  10.424  0.8027  0.2913 -1.0303
  146SAPE   H2S16029  -0.030   5.116  10.482 -0.6047  0.6602 -0.1270
  146SAPE    C316030   0.359   4.885  10.749 -0.3757 -0.1833  0.5799
  146SAPE    HX16031   0.276   4.820  10.782  0.5599 -1.1453  1.0968
  146SAPE    HY16032   0.418   4.907  10.841  1.4223 -1.9256 -0.0901
  146SAPE   O3116033   0.439   4.822  10.651  0.0959 -0.1958  0.6400
  146SAPE   C3116034   0.559   4.873  10.614 -0.2774 -0.0351 -0.8687
  146SAPE   O3216035   0.613   4.977  10.653 -0.2446  0.2417  0.0841
  146SAPE   C3216036   0.598   4.789  10.499  0.5107  0.1110  0.3860
  146SAPE   H2X16037   0.591   4.681  10.525 -0.1000 -0.0960 -0.5801
  146SAPE   H2Y16038   0.705   4.806  10.472  0.5471 -3.4759 -2.4323
  146SAPE   C2316039   0.075   5.131  10.283 -0.2218 -0.7291  0.3592
  146SAPE   H3R16040   0.072   5.242  10.283 -1.0407 -0.7465  0.8279
  146SAPE   H3S16041  -0.010   5.092  10.222  0.7196 -0.9654 -0.8536
  146SAPE   C2416042   0.196   5.065  10.217  0.3852 -0.4819 -0.7084
  146SAPE   H4R16043   0.194   4.956  10.237  1.9157 -0.7855 -1.9964
  146SAPE   H4S16044   0.290   5.099  10.266  0.4424 -0.7136 -0.6590
  146SAPE   C2516045   0.224   5.107  10.075  0.4682 -0.6243  0.0554
  146SAPE   H5R16046   0.278   5.203  10.069  1.9363 -1.2687  1.9652
  146SAPE   C2616047   0.199   5.033   9.967  0.4158  0.0953  0.4736
  146SAPE   H6R16048   0.237   5.054   9.865  0.4737 -0.9835  0.2601
  146SAPE   C2716049   0.118   4.904   9.971  0.4624  0.4283 -0.4449
  146SAPE   H7R16050   0.085   4.871  10.071 -0.3706  0.6858 -0.6262
  146SAPE   H7S16051   0.185   4.822   9.938  0.8926  0.0825  1.2326
  146SAPE   C2816052   0.004   4.913   9.873  0.0960  0.5415  1.0203
  146SAPE   H8R16053  -0.086   4.960   9.915  0.1666  0.4032  1.3309
  146SAPE   C2916054   0.004   4.865   9.745  0.4391 -0.2575  0.5926
  146SAPE   H9R16055  -0.098   4.855   9.705 -0.3751  0.1448  2.4568
  146SAPE  C21016056   0.116   4.799   9.667  0.2991 -0.4332  0.0984
  146SAPE  H10R16057   0.148   4.703   9.713  1.8502 -0.1749 -0.3528
  146SAPE  H10S16058   0.214   4.853   9.674  0.1650 -0.0167 -1.0034
  146SAPE  C21116059   0.080   4.790   9.520  0.2963 -0.2474  0.1120
  146SAPE  H11R16060   0.032   4.697   9.487 -2.1368  0.5262  1.2153
  146SAPE  C21216061   0.085   4.890   9.432 -0.2189  0.0539  0.6095
  146SAPE  H12R16062   0.050   4.861   9.332 -1.4360 -2.8122  1.7649
  146SAPE  C21316063   0.131   5.031   9.454 -0.0616 -0.3328  0.3840
  146SAPE  H13R16064   0.241   5.026   9.437 -0.1428 -0.1934 -0.2181
  146SAPE  H13S16065   0.112   5.075   9.554  1.1751  0.3370  0.3551
  146SAPE  C21416066   0.068   5.124   9.346 -0.5613  0.0017  1.1380
  146SAPE  H14R16067   0.006   5.206   9.386  0.8146 -0.0219  3.5253
  146SAPE  C21516068   0.080   5.112   9.207 -0.4224  0.1688 -0.1427
  146SAPE  H15R16069   0.015   5.176   9.146 -2.5402 -1.9187 -0.2332
  146SAPE  C21616070   0.152   5.004   9.126 -0.3888 -0.3370  0.3476
  146SAPE  H16R16071   0.211   4.934   9.189  1.0447  1.7303  1.4052
  146SAPE  H16S16072   0.217   5.069   9.063 -1.4064  2.9066  2.4236
  146SAPE  C21716073   0.046   4.927   9.042 -0.2964  0.3532 -0.1931
  146SAPE  H17R16074  -0.012   5.004   8.987  0.1696  0.0527 -1.1357
  146SAPE  H17S16075  -0.022   4.870   9.108  2.0380 -1.0150  1.1500
  146SAPE  C21816076   0.118   4.830   8.946  0.0774 -0.0499 -0.3954
  146SAPE  H18R16077   0.040   4.769   8.897  1.5950 -2.3856 -0.0714
  146SAPE  H18S16078   0.182   4.762   9.007 -0.0841  0.0898 -0.0703
  146SAPE  C21916079   0.189   4.905   8.831 -0.2343  0.1605  0.3902
  146SAPE  H19R16080   0.274   4.971   8.860  1.1221 -0.0802 -2.6458
  146SAPE  H19S16081   0.119   4.970   8.774  1.5030  2.3206  0.5415
  146SAPE  C22016082   0.250   4.815   8.731  0.2950  0.1690  0.3908
  146SAPE  H20R16083   0.358   4.796   8.748  0.8609  0.7723 -2.0994
  146SAPE  H20S16084   0.246   4.869   8.633 -0.2353 -1.2796 -0.4140
  146SAPE  H20T16085   0.189   4.722   8.732 -0.1464  0.4461  0.0022
  146SAPE   C3316086   0.524   4.830  10.372  0.1870  0.2474 -1.0632
  146SAPE   H3X16087   0.537   4.939  10.357  0.3233  1.1071  3.8722
  146SAPE   H3Y16088   0.416   4.806  10.361  0.4635 -2.5871  1.2140
  146SAPE   C3416089   0.584   4.768  10.241 -0.1715  0.4580  0.0406
  146SAPE   H4X16090   0.595   4.659  10.264  4.3911  0.6868 -0.2381
  146SAPE   H4Y16091   0.689   4.803  10.249 -0.0228 -0.3826  3.5109
  146SAPE   C3516092   0.508   4.809  10.131  0.6385  0.6174 -0.0551
  146SAPE   H5X16093   0.490   4.919  10.128  2.4979  0.9730  0.0852
  146SAPE   H5Y16094   0.408   4.763  10.117 -0.4030  1.6623  3.0968
  146SAPE   C3616095   0.581   4.762  10.005 -0.0188  0.0130  0.1738
  146SAPE   H6X16096   0.619   4.657  10.001 -1.9256 -0.6743 -2.5550
  146SAPE   H6Y16097   0.661   4.837   9.994 -1.1695  1.1591 -0.6434
  146SAPE   C3716098   0.498   4.771   9.879 -0.5506 -0.4703  0.1590
  146SAPE   H7X16099   0.429   4.858   9.876  0.5951  0.4276 -0.8473
  146SAPE   H7Y16100   0.428   4.684   9.871  0.7248 -1.5558  0.4382
  146SAPE   C3816101   0.593   4.759   9.752  0.2748  0.3010  0.3011
  146SAPE   H8X16102   0.649   4.664   9.764 -0.3825 -0.0885  0.3637
  146SAPE   H8Y16103   0.652   4.853   9.746  0.1171  0.2970 -1.7717
  146SAPE   C3916104   0.501   4.733   9.631 -0.0243  0.5662 -0.3881
  146SAPE   H9X16105   0.424   4.813   9.634 -2.3982 -1.6097  0.8570
  146SAPE   H9Y16106   0.453   4.633   9.639  0.8378  0.0316 -1.4760
  146SAPE  C31016107   0.576   4.722   9.502 -0.5521 -0.0594  0.6566
  146SAPE  H10X16108   0.625   4.622   9.500  0.1676  0.3042 -0.1280
  146SAPE  H10Y16109   0.657   4.796   9.513  0.3976 -0.8600 -0.6857
  146SAPE  C31116110   0.476   4.760   9.391  0.0088  0.8077 -0.0957
  146SAPE  H11X16111   0.446   4.867   9.391  0.7519  1.0251 -0.8153
  146SAPE  H11Y16112   0.376   4.713   9.402 -0.2818  1.2826 -0.6418
  146SAPE  C31216113   0.509   4.720   9.247  0.1199 -0.2267 -0.1133
  146SAPE  H12X16114   0.421   4.730   9.181  1.2851  1.8071 -1.4575
  146SAPE  H12Y16115   0.536   4.613   9.244 -0.9497 -0.4869 -1.9335
  146SAPE  C31316116   0.624   4.782   9.171  0.0508 -0.3788  0.4974
  146SAPE  H13X16117   0.724   4.748   9.204  0.5418  1.4825  1.0516
  146SAPE  H13Y16118   0.618   4.893   9.176 -0.7371 -0.1644 -2.9011
  146SAPE  C31416119   0.606   4.741   9.019  0.3640  0.2187  0.3180
  146SAPE  H14X16120   0.508   4.783   8.989 -0.5873 -0.5791  2.1397
  146SAPE  H14Y16121   0.610   4.630   9.025 -0.3208  0.2375  1.4325
  146SAPE  C31516122   0.709   4.789   8.923 -0.6162  0.1399  0.0247
  146SAPE  H15X16123   0.813   4.773   8.959 -0.5352 -1.7592 -0.9265
  146SAPE  H15Y16124   0.690   4.896   8.898 -0.3544 -0.1420 -1.4553
  146SAPE  C31616125   0.701   4.705   8.797  0.0667  0.2090  0.3210
  146SAPE  H16X16126   0.603   4.727   8.750 -0.3864 -2.0692  0.0649
  146SAPE  H16Y16127   0.707   4.600   8.834 -1.6798 -0.0181  0.0140
  146SAPE  C31716128   0.827   4.734   8.705 -0.2032 -0.1765  1.0692
  146SAPE  H17X16129   0.828   4.651   8.631  0.3926  0.4966  0.3042
  146SAPE  H17Y16130   0.922   4.736   8.761  1.7555 -1.3284 -1.9419
  146SAPE  C31816131   0.825   4.860   8.618 -0.3769 -0.9920 -0.4908
  146SAPE  H18X16132   0.923   4.871   8.567 -0.1214  0.5524  0.2676
  146SAPE  H18Y16133   0.811   4.957   8.671  0.4706 -1.5114  0.7248
  146SAPE  H18Z16134   0.742   4.862   8.544  1.6592  0.2670 -2.8762
  147SAPE     N16135   4.150   1.443   6.096 -0.9886 -0.4646 -0.2958
  147SAPE   HN116136   4.177   1.386   6.013 -0.3440  0.7387 -0.9257
  147SAPE   HN216137   4.048   1.453   6.113 -0.6445  2.0727  0.5919
  147SAPE   HN316138   4.190   1.537   6.081 -0.0621 -0.5288  1.4808
  147SAPE   C1216139   4.222   1.397   6.223 -0.0922  1.0034  0.5017
  147SAPE  H12A16140   4.192   1.293   6.250 -0.7698  1.2414  0.6757
  147SAPE  H12B16141   4.183   1.461   6.304 -2.0373  1.5573 -0.7993
  147SAPE   C1116142   4.376   1.415   6.197  1.0883  0.2125 -0.2602
  147SAPE  H11A16143   4.441   1.377   6.278  0.1075 -2.0756 -0.4655
  147SAPE  H11B16144   4.393   1.524   6.187  1.8530 -0.0155 -1.7152
  147SAPE     P16145   4.427   1.188   6.068  0.2676 -0.2494 -0.4016
  147SAPE   O1316146   4.337   1.140   5.959  0.2413  0.0014 -0.8148
  147SAPE   O1416147   4.573   1.174   6.048  0.0995  0.4416  0.0699
  147SAPE   O1216148   4.402   1.345   6.079 -0.0658  0.1898 -0.0579
  147SAPE   O1116149   4.378   1.116   6.202  0.2265 -0.2763 -0.2439
  147SAPE    C116150   4.467   1.087   6.306  0.0754 -0.0660 -0.6156
  147SAPE    HA16151   4.512   0.987   6.290  1.2864  0.4664 -0.6322
  147SAPE    HB16152   4.555   1.154   6.306  0.2852 -0.2714  1.3267
  147SAPE    C216153   4.393   1.099   6.438  0.1337 -0.3662  0.3304
  147SAPE    HS16154   4.290   1.064   6.415 -0.1180  1.2361 -1.2293
  147SAPE   O2116155   4.390   1.238   6.477 -0.6206  0.3041 -0.1667
  147SAPE   C2116156   4.286   1.276   6.544 -0.3572  0.0481 -0.3395
  147SAPE   O2216157   4.184   1.212   6.550  0.1181 -0.4115  0.4383
  147SAPE   C2216158   4.304   1.412   6.616  0.2774 -0.0241  0.1395
  147SAPE   H2R16159   4.410   1.434   6.641 -0.6666  2.4790  2.4855
  147SAPE   H2S16160   4.267   1.487   6.543 -0.9581  0.5966  1.3677
  147SAPE    C316161   4.460   1.007   6.547 -0.3703  0.2899 -0.0250
  147SAPE    HX16162   4.569   1.030   6.551 -0.2158 -0.3770 -0.2840
  147SAPE    HY16163   4.448   0.900   6.520 -2.2963  0.3461  0.4676
  147SAPE   O3116164   4.414   1.030   6.679 -0.4262  0.0358  0.2416
  147SAPE   C3116165   4.297   0.964   6.704  0.0971  0.3990 -0.2257
  147SAPE   O3216166   4.226   0.912   6.618  0.2585  0.1886 -0.4404
  147SAPE   C3216167   4.274   0.951   6.859  0.0994  0.5743  0.1854
  147SAPE   H2X16168   4.315   1.047   6.898  0.1777  1.2010 -1.3293
  147SAPE   H2Y16169   4.350   0.875   6.887  1.7495  0.8853 -2.9479
  147SAPE   C2316170   4.229   1.420   6.753  0.4300  0.3404 -0.2056
  147SAPE   H3R16171   4.126   1.380   6.742  0.7526 -0.5615 -0.0224
  147SAPE   H3S16172   4.227   1.527   6.784  0.0203 -0.2258  1.8832
  147SAPE   C2416173   4.298   1.348   6.864 -0.0770 -0.3922  0.4819
  147SAPE   H4R16174   4.381   1.419   6.888 -0.8329  0.4106  0.7849
  147SAPE   H4S16175   4.343   1.256   6.822 -1.1557 -0.3038 -0.8983
  147SAPE   C2516176   4.224   1.325   6.993 -0.2093  0.0382  0.5097
  147SAPE   H5R16177   4.129   1.270   6.986 -0.5588  0.6508  0.3526
  147SAPE   C2616178   4.258   1.363   7.117 -0.0356  0.4201 -0.2061
  147SAPE   H6R16179   4.182   1.341   7.193 -0.4864 -1.9330 -1.2597
  147SAPE   C2716180   4.379   1.443   7.154 -0.3540 -0.0804 -0.2150
  147SAPE   H7R16181   4.373   1.551   7.130  0.6296  0.0510  0.0951
  147SAPE   H7S16182   4.463   1.403   7.093 -0.9694 -1.2069 -0.3439
  147SAPE   C2816183   4.418   1.438   7.303 -0.1732 -0.1931 -0.0136
  147SAPE   H8R16184   4.432   1.334   7.334 -1.2310 -0.0185  1.1639
  147SAPE   C2916185   4.420   1.538   7.391 -1.0659 -0.5301 -0.0406
  147SAPE   H9R16186   4.443   1.514   7.496  0.3560 -0.7818 -0.3858
  147SAPE  C21016187   4.375   1.680   7.371 -0.0772 -0.5250  0.2291
  147SAPE  H10R16188   4.297   1.677   7.291  0.2616 -0.8048 -0.0955
  147SAPE  H10S16189   4.454   1.751   7.337  0.7255  0.1572  3.2626
  147SAPE  C21116190   4.319   1.735   7.495  0.3584 -0.2935 -0.4168
  147SAPE  H11R16191   4.389   1.754   7.578  0.1394  0.1263 -0.3287
  147SAPE  C21216192   4.193   1.781   7.507 -0.4162  0.0790 -0.1904
  147SAPE  H12R16193   4.162   1.818   7.606 -0.2907  2.1409 -0.8700
  147SAPE  C21316194   4.080   1.768   7.405  0.4519 -0.5602  0.5019
  147SAPE  H13R16195   4.090   1.677   7.343 -2.0851 -0.2499 -0.4931
  147SAPE  H13S16196   4.103   1.850   7.334  1.7760 -0.3389  1.1483
  147SAPE  C21416197   3.936   1.777   7.452 -0.1136 -0.0330 -0.3210
  147SAPE  H14R16198   3.885   1.687   7.415  2.0794 -0.4013 -2.7108
  147SAPE  C21516199   3.878   1.886   7.511  0.0565 -0.1230  0.4578
  147SAPE  H15R16200   3.772   1.882   7.540  0.5108 -1.8476  2.0823
  147SAPE  C21616201   3.956   2.014   7.542  0.3640 -0.9907 -0.0744
  147SAPE  H16R16202   3.902   2.108   7.517  2.3206  0.5294  1.1458
  147SAPE  H16S16203   4.052   2.021   7.486  1.0586 -2.3306  0.8958
  147SAPE  C21716204   3.990   2.031   7.695 -0.1162 -0.1376  0.2179
  147SAPE  H17R16205   4.074   2.101   7.712  1.3914 -2.0134  0.9602
  147SAPE  H17S16206   4.031   1.938   7.740  2.7010  0.9499  0.1231
  147SAPE  C21816207   3.864   2.079   7.777 -0.2278  0.5319 -0.3828
  147SAPE  H18R16208   3.779   2.008   7.769  0.2999 -0.4009  1.5142
  147SAPE  H18S16209   3.846   2.181   7.739  0.4392  0.6356 -0.4435
  147SAPE  C21916210   3.872   2.089   7.929  0.2176  0.0819  0.0368
  147SAPE  H19R16211   3.952   2.163   7.948  0.6960  0.1680 -2.0885
  147SAPE  H19S16212   3.901   1.987   7.963 -0.1660  0.2873  1.0002
  147SAPE  C22016213   3.734   2.132   7.981  0.1751  0.8992  0.6483
  147SAPE  H20R16214   3.700   2.228   7.936 -0.2266 -0.2387 -1.6150
  147SAPE  H20S16215   3.740   2.139   8.092 -0.9980 -3.3475  1.1445
  147SAPE  H20T16216   3.658   2.059   7.947  1.4151 -1.4083  2.5469
  147SAPE   C3316217   4.122   0.932   6.889  0.2212 -0.1357 -0.0758
  147SAPE   H3X16218   4.072   0.852   6.829 -0.6066 -0.1568  0.6229
  147SAPE   H3Y16219   4.076   1.031   6.869 -1.1343 -0.7791 -0.2946
  147SAPE   C3416220   4.090   0.871   7.033 -0.1296  0.3772  0.8367
  147SAPE   H4X16221   4.101   0.761   7.022 -2.9063  0.0417  0.7143
  147SAPE   H4Y16222   3.981   0.886   7.046 -0.4496 -0.1619 -0.9499
  147SAPE   C3516223   4.173   0.925   7.142 -0.2096 -0.0134 -0.0271
  147SAPE   H5X16224   4.166   1.035   7.150 -0.6629 -0.0030 -0.5314
  147SAPE   H5Y16225   4.278   0.900   7.117 -0.1366  0.9422 -0.7373
  147SAPE   C3616226   4.130   0.869   7.277 -0.6407 -0.7155 -0.0342
  147SAPE   H6X16227   4.116   0.759   7.273  2.4095 -1.1734 -3.3533
  147SAPE   H6Y16228   4.035   0.922   7.302  0.0824  0.6280 -0.0234
  147SAPE   C3716229   4.231   0.902   7.391 -0.1715 -0.2806 -0.2289
  147SAPE   H7X16230   4.235   1.012   7.383  1.0092 -0.1653  1.4526
  147SAPE   H7Y16231   4.329   0.852   7.372  0.5166  0.7897  0.4188
  147SAPE   C3816232   4.181   0.852   7.534 -0.5441  0.5258  0.4582
  147SAPE   H8X16233   4.178   0.741   7.530 -1.0607  0.4789  1.7018
  147SAPE   H8Y16234   4.082   0.896   7.554 -1.6518 -2.1354  1.2935
  147SAPE   C3916235   4.282   0.899   7.641  0.1838 -0.2647  0.3333
  147SAPE   H9X16236   4.292   1.008   7.623  1.1431 -0.6121 -1.4533
  147SAPE   H9Y16237   4.375   0.839   7.629 -0.0584 -0.6116  0.1671
  147SAPE  C31016238   4.254   0.856   7.780 -1.1220  0.0170 -0.7134
  147SAPE  H10X16239   4.259   0.745   7.775 -0.5880  0.0408 -0.7611
  147SAPE  H10Y16240   4.147   0.882   7.796 -1.6970 -0.4205 -3.2689
  147SAPE  C31116241   4.343   0.911   7.888 -0.4193 -0.2948 -0.7211
  147SAPE  H11X16242   4.339   1.022   7.885  1.8307 -0.1059  0.8782
  147SAPE  H11Y16243   4.438   0.863   7.856  0.2643  0.1284  0.5946
  147SAPE  C31216244   4.307   0.857   8.024 -0.1787  0.3709 -0.0561
  147SAPE  H12X16245   4.337   0.750   8.027  2.8493  1.1259  0.3814
  147SAPE  H12Y16246   4.197   0.855   8.036 -0.0389 -1.4965  1.4365
  147SAPE  C31316247   4.357   0.937   8.149 -0.6404  0.3864  0.2977
  147SAPE  H13X16248   4.467   0.943   8.130 -0.8106  1.6831 -0.3391
  147SAPE  H13Y16249   4.342   0.865   8.233  2.1618 -1.6055 -0.7384
  147SAPE  C31416250   4.285   1.069   8.174 -0.4284  0.5627 -0.1983
  147SAPE  H14X16251   4.176   1.051   8.186 -0.0875 -0.5855  1.4468
  147SAPE  H14Y16252   4.307   1.139   8.091  0.5312  1.7086  0.9754
  147SAPE  C31516253   4.331   1.133   8.306 -0.1610 -0.0393  0.1537
  147SAPE  H15X16254   4.274   1.225   8.334 -1.3080 -0.7782  0.2870
  147SAPE  H15Y16255   4.437   1.159   8.286 -0.3372 -0.1710 -1.0450
  147SAPE  C31616256   4.315   1.044   8.429 -0.3871 -0.2163 -0.2151
  147SAPE  H16X16257   4.372   0.949   8.424 -1.3813 -0.9177  1.1034
  147SAPE  H16Y16258   4.207   1.019   8.433 -0.5293 -0.0643 -2.1921
  147SAPE  C31716259   4.363   1.124   8.546 -0.3129 -0.3008  0.3382
  147SAPE  H17X16260   4.298   1.213   8.554  0.0816 -0.0624  0.9456
  147SAPE  H17Y16261   4.466   1.165   8.536  0.5919 -2.3563  0.5897
  147SAPE  C31816262   4.353   1.044   8.680 -0.6299  0.5605 -0.7233
  147SAPE  H18X16263   4.383   1.097   8.773  0.4825 -1.6064  0.2282
  147SAPE  H18Y16264   4.419   0.956   8.665 -2.4417 -0.9429 -0.2371
  147SAPE  H18Z16265   4.250   1.006   8.696 -0.4342 -1.3651 -3.3476
  148SAPE     N16266   1.670   2.610   6.637 -0.1072 -0.1389  0.4888
  148SAPE   HN116267   1.693   2.671   6.718  0.6575 -0.0826  0.2400
  148SAPE   HN216268   1.754   2.584   6.581 -0.7753 -2.0368  0.3127
  148SAPE   HN316269   1.603   2.657   6.572 -0.6130 -0.1950  0.9677
  148SAPE   C1216270   1.605   2.478   6.671  0.8438  0.2729  0.1703
  148SAPE  H12A16271   1.673   2.427   6.742  0.4755 -0.4430  0.0144
  148SAPE  H12B16272   1.594   2.418   6.578 -1.8292  0.5452  0.2330
  148SAPE   C1116273   1.464   2.510   6.734  0.0574  0.1433 -0.1840
  148SAPE  H11A16274   1.466   2.587   6.813 -0.4677  1.3722 -1.3333
  148SAPE  H11B16275   1.434   2.408   6.770  1.3486  0.6498  2.5917
  148SAPE     P16276   1.322   2.702   6.624 -0.2248  0.2915 -0.3357
  148SAPE   O1316277   1.428   2.782   6.566  0.4922  0.6779  0.6065
  148SAPE   O1416278   1.195   2.690   6.550  0.2351  0.2896 -0.4446
  148SAPE   O1216279   1.380   2.556   6.629 -0.1815  0.8154  0.1193
  148SAPE   O1116280   1.297   2.747   6.770 -0.4560  0.1909 -0.0423
  148SAPE    C116281   1.159   2.762   6.815  0.0303  0.5059 -0.9686
  148SAPE    HA16282   1.098   2.836   6.759 -0.7036  0.0732 -0.7614
  148SAPE    HB16283   1.102   2.667   6.807  0.6303  0.1412 -0.9244
  148SAPE    C216284   1.149   2.806   6.968 -0.1821 -0.8170  0.1517
  148SAPE    HS16285   1.051   2.853   6.988 -0.3234 -1.4130  0.9313
  148SAPE   O2116286   1.255   2.892   7.014 -0.4147 -0.4647 -0.4799
  148SAPE   C2116287   1.222   2.987   7.091 -0.0669 -0.0119  0.0143
  148SAPE   O2216288   1.111   3.019   7.128  0.0736  0.3767 -0.0501
  148SAPE   C2216289   1.349   3.063   7.137 -0.6942  0.2394 -0.4830
  148SAPE   H2R16290   1.440   2.999   7.129 -1.3325 -0.8904  0.8656
  148SAPE   H2S16291   1.353   3.158   7.080  0.6681  2.3289  2.7943
  148SAPE    C316292   1.127   2.671   7.056 -0.4361 -0.2997  0.6578
  148SAPE    HX16293   1.200   2.604   7.008 -1.6489  0.6500 -2.7847
  148SAPE    HY16294   1.029   2.625   7.032 -0.2484 -0.3994  0.0829
  148SAPE   O3116295   1.140   2.695   7.193 -0.4512 -0.1699  0.0818
  148SAPE   C3116296   1.256   2.657   7.253  0.5205  0.4062 -0.7885
  148SAPE   O3216297   1.348   2.592   7.200  0.0997  0.1037 -0.5041
  148SAPE   C3216298   1.254   2.700   7.395  0.0929 -0.5156 -0.5982
  148SAPE   H2X16299   1.150   2.722   7.428  0.0791 -0.1020 -0.9113
  148SAPE   H2Y16300   1.314   2.794   7.398 -2.5518  1.2598  1.2367
  148SAPE   C2316301   1.339   3.091   7.291 -0.2623  0.0068  0.3467
  148SAPE   H3R16302   1.313   2.993   7.336 -0.3477 -0.2905 -0.3360
  148SAPE   H3S16303   1.259   3.167   7.308 -0.2402 -0.0782  0.8410
  148SAPE   C2416304   1.460   3.142   7.364 -0.2957  0.8895 -0.3593
  148SAPE   H4R16305   1.462   3.249   7.335  1.1937  0.6162 -1.3590
  148SAPE   H4S16306   1.554   3.087   7.341 -0.8428  0.1014 -0.7751
  148SAPE   C2516307   1.428   3.130   7.508  0.3650  0.0677  0.4462
  148SAPE   H5R16308   1.319   3.130   7.521  0.1552 -4.3206 -0.0928
  148SAPE   C2616309   1.511   3.127   7.614  0.2229  0.6268 -0.0672
  148SAPE   H6R16310   1.462   3.101   7.709 -0.5621 -0.2624 -0.6886
  148SAPE   C2716311   1.653   3.139   7.605 -0.5812 -0.1480 -0.5959
  148SAPE   H7R16312   1.686   3.192   7.513  5.2158  0.5590  1.4658
  148SAPE   H7S16313   1.704   3.040   7.605  0.2945  0.2711  0.7131
  148SAPE   C2816314   1.708   3.224   7.716 -0.1279 -0.0016  0.4171
  148SAPE   H8R16315   1.741   3.328   7.702 -1.0667  0.2240 -0.1603
  148SAPE   C2916316   1.721   3.181   7.845 -0.4222 -0.8036  0.5270
  148SAPE   H9R16317   1.768   3.259   7.906  0.6976 -0.6194 -0.5218
  148SAPE  C21016318   1.694   3.054   7.921 -0.1909  0.4102 -0.1107
  148SAPE  H10R16319   1.785   3.028   7.979 -0.2462  3.3317  1.4788
  148SAPE  H10S16320   1.669   2.969   7.853 -0.0422 -0.4936  0.9335
  148SAPE  C21116321   1.581   3.074   8.020  0.1729  0.1797  1.6047
  148SAPE  H11R16322   1.479   3.050   7.985  0.6604  2.1646 -1.7018
  148SAPE  C21216323   1.596   3.139   8.139 -0.3680  0.4665 -0.3748
  148SAPE  H12R16324   1.509   3.151   8.204 -0.7941 -2.1220 -0.3650
  148SAPE  C21316325   1.714   3.197   8.207 -0.6988  0.0979  0.7421
  148SAPE  H13R16326   1.689   3.297   8.247 -0.0224  0.3663  0.4991
  148SAPE  H13S16327   1.800   3.214   8.140  0.2036 -1.8465  1.3194
  148SAPE  C21416328   1.750   3.103   8.317 -0.3828  0.4069 -0.2648
  148SAPE  H14R16329   1.759   2.996   8.292 -0.8228  0.5980 -1.3320
  148SAPE  C21516330   1.781   3.132   8.444  0.0825 -0.3873 -0.5596
  148SAPE  H15R16331   1.802   3.049   8.513  2.8996  0.8937  0.2753
  148SAPE  C21616332   1.769   3.272   8.497  0.7714 -0.0756  0.1163
  148SAPE  H16R16333   1.681   3.322   8.451  2.4803  1.6476 -1.4434
  148SAPE  H16S16334   1.862   3.326   8.467  0.3550 -0.0548 -1.1627
  148SAPE  C21716335   1.766   3.265   8.651  0.5023  0.1141  0.0916
  148SAPE  H17R16336   1.862   3.228   8.693  1.7158 -0.0962 -2.6960
  148SAPE  H17S16337   1.674   3.208   8.677 -1.1331  1.6564 -2.0396
  148SAPE  C21816338   1.738   3.403   8.716 -0.3428 -0.0380  0.5138
  148SAPE  H18R16339   1.798   3.481   8.665  0.5125 -1.5983 -0.9571
  148SAPE  H18S16340   1.746   3.425   8.825 -1.6594 -0.2482  0.6702
  148SAPE  C21916341   1.589   3.453   8.700 -0.4766 -0.4171 -0.2705
  148SAPE  H19R16342   1.551   3.424   8.600 -1.6462  3.9066 -1.2999
  148SAPE  H19S16343   1.595   3.563   8.687 -2.7960 -0.2627 -0.5358
  148SAPE  C22016344   1.487   3.420   8.815  0.2805 -0.2852  0.3913
  148SAPE  H20R16345   1.484   3.311   8.835 -0.0649 -0.9754 -2.8200
  148SAPE  H20S16346   1.387   3.460   8.790  0.8773  1.0164  0.0024
  148SAPE  H20T16347   1.534   3.467   8.904 -0.2902 -0.9495  1.0544
  148SAPE   C3316348   1.319   2.603   7.493  0.3805  1.1119 -0.2128
  148SAPE   H3X16349   1.430   2.609   7.489  0.4618  0.7940  1.0055
  148SAPE   H3Y16350   1.266   2.509   7.471 -0.3441  0.8163  2.4210
  148SAPE   C3416351   1.281   2.639   7.641  0.2632 -0.8931  0.0057
  148SAPE   H4X16352   1.297   2.543   7.696 -0.7806 -0.8534  0.4080
  148SAPE   H4Y16353   1.172   2.660   7.646 -0.2626 -3.2652  0.0625
  148SAPE   C3516354   1.373   2.735   7.712  0.2374 -0.4226 -0.0354
  148SAPE   H5X16355   1.387   2.833   7.662  1.6365 -0.5022  0.1500
  148SAPE   H5Y16356   1.470   2.685   7.734 -0.5762 -1.1699  2.1674
  148SAPE   C3616357   1.308   2.768   7.847  0.6544 -0.4953 -0.0417
  148SAPE   H6X16358   1.200   2.789   7.834  1.1331  3.7455  1.2636
  148SAPE   H6Y16359   1.360   2.861   7.880 -0.3505 -0.3894  1.3424
  148SAPE   C3716360   1.307   2.666   7.959  0.2265 -0.1662 -0.0925
  148SAPE   H7X16361   1.411   2.640   7.986  0.2137  1.2068  1.4331
  148SAPE   H7Y16362   1.254   2.574   7.925  0.5109 -0.0380 -0.9141
  148SAPE   C3816363   1.237   2.725   8.088  1.1383  1.0396 -0.0377
  148SAPE   H8X16364   1.143   2.774   8.057 -0.7065 -2.2781 -0.1625
  148SAPE   H8Y16365   1.302   2.802   8.134  0.7177  1.4406 -0.1012
  148SAPE   C3916366   1.201   2.612   8.178  0.5985 -0.2213 -0.9296
  148SAPE   H9X16367   1.288   2.544   8.192  1.3868  1.1062  1.1817
  148SAPE   H9Y16368   1.127   2.543   8.132  1.5438 -0.1859 -2.5589
  148SAPE  C31016369   1.160   2.662   8.321 -0.1758 -0.4002 -0.3714
  148SAPE  H10X16370   1.165   2.773   8.313 -0.8813 -0.4773 -3.0106
  148SAPE  H10Y16371   1.227   2.628   8.402  1.1277 -0.2498 -1.3411
  148SAPE  C31116372   1.018   2.637   8.362 -0.1597  0.8354  0.2404
  148SAPE  H11X16373   0.978   2.534   8.348 -0.2960  0.5139  2.6247
  148SAPE  H11Y16374   0.951   2.703   8.303  2.2665 -0.0247 -3.8959
  148SAPE  C31216375   0.984   2.654   8.512 -0.9676  0.3054  0.4026
  148SAPE  H12X16376   1.040   2.584   8.577  0.7867  0.5283 -0.7698
  148SAPE  H12Y16377   0.878   2.626   8.529 -1.2390  1.0906  0.0437
  148SAPE  C31316378   1.012   2.799   8.572 -0.0017  0.1491  0.3689
  148SAPE  H13X16379   0.955   2.869   8.508 -1.2303 -1.1044  0.0287
  148SAPE  H13Y16380   1.119   2.827   8.564  0.0673  0.3149  1.6552
  148SAPE  C31416381   0.964   2.817   8.719 -0.2443 -0.3683 -0.0969
  148SAPE  H14X16382   0.860   2.779   8.728 -0.3938  0.1701  0.5646
  148SAPE  H14Y16383   0.961   2.925   8.745  1.3666 -0.4994  0.8000
  148SAPE  C31516384   1.060   2.727   8.808  0.2779  0.5279 -0.3693
  148SAPE  H15X16385   1.167   2.750   8.793  1.0226 -2.0692  0.3318
  148SAPE  H15Y16386   1.050   2.618   8.789  1.1603  0.3027  0.3846
  148SAPE  C31616387   1.025   2.741   8.958  0.1054 -0.1601  0.1061
  148SAPE  H16X16388   0.920   2.777   8.960  0.0153 -0.3837 -0.3983
  148SAPE  H16Y16389   1.089   2.813   9.012  1.4377 -1.0201 -0.2757
  148SAPE  C31716390   1.044   2.605   9.035  0.1518 -0.0554 -0.2412
  148SAPE  H17X16391   0.998   2.526   8.972  1.4613 -0.4444 -0.7402
  148SAPE  H17Y16392   0.978   2.633   9.119 -0.2453  0.0798 -0.5923
  148SAPE  C31816393   1.189   2.566   9.072 -0.1619 -0.5751  0.5978
  148SAPE  H18X16394   1.245   2.645   9.127  0.6040 -1.5366  1.2360
  148SAPE  H18Y16395   1.245   2.545   8.978  1.1289  0.3021  1.1426
  148SAPE  H18Z16396   1.188   2.476   9.137  0.4224 -0.0996  1.2825
  149SAPE     N16397   3.953   4.584   6.538 -0.1110  0.3239  0.2326
  149SAPE   HN116398   3.906   4.633   6.459 -0.5727  0.4587  0.5881
  149SAPE   HN216399   4.012   4.503   6.509 -0.3058  0.3557 -0.2737
  149SAPE   HN316400   3.873   4.536   6.584 -0.1067  0.3188  0.2345
  149SAPE   C1216401   4.025   4.682   6.632  0.8781 -0.2771 -0.4586
  149SAPE  H12A16402   4.105   4.736   6.577 -0.0568  0.5144 -1.0707
  149SAPE  H12B16403   4.073   4.638   6.722 -0.7003  0.5576  0.8447
  149SAPE   C1116404   3.930   4.785   6.693 -0.3750 -0.0654  0.7905
  149SAPE  H11A16405   3.982   4.856   6.760  1.2876 -1.2766  0.8271
  149SAPE  H11B16406   3.864   4.721   6.756 -0.4168 -0.9372 -0.1190
  149SAPE     P16407   3.879   4.991   6.540 -0.5572 -0.1066  0.2038
  149SAPE   O1316408   4.021   5.016   6.510 -0.1499  0.2469  0.0694
  149SAPE   O1416409   3.777   5.028   6.439 -0.1107  0.1303  0.0902
  149SAPE   O1216410   3.851   4.849   6.589  0.1387 -0.0392 -0.2178
  149SAPE   O1116411   3.851   5.073   6.672 -0.2443 -0.1692 -0.0385
  149SAPE    C116412   3.733   5.061   6.747  0.8089 -0.1990 -0.3048
  149SAPE    HA16413   3.665   5.149   6.740  0.2921 -0.6445 -1.0462
  149SAPE    HB16414   3.674   4.977   6.705  3.7289 -1.2876 -2.5858
  149SAPE    C216415   3.740   5.026   6.906 -0.2313 -0.7252  0.5196
  149SAPE    HS16416   3.757   5.124   6.956 -0.2824 -1.1174  1.3164
  149SAPE   O2116417   3.843   4.937   6.938  0.0917  0.3631 -0.3910
  149SAPE   C2116418   3.891   4.957   7.060  0.6885 -0.2456 -0.0935
  149SAPE   O2216419   3.863   5.048   7.133  0.4358 -0.3388 -0.4708
  149SAPE   C2216420   3.981   4.840   7.102 -0.2683 -0.6743  0.4258
  149SAPE   H2R16421   4.076   4.852   7.047  0.1881 -0.6389  1.2097
  149SAPE   H2S16422   3.996   4.835   7.212  0.1989 -1.3855  0.3368
  149SAPE    C316423   3.592   4.977   6.940 -0.3034  0.4972 -0.5244
  149SAPE    HX16424   3.593   4.877   6.891  0.1300  1.4709 -2.5910
  149SAPE    HY16425   3.522   5.044   6.885 -1.6135  1.5782  2.2577
  149SAPE   O3116426   3.572   4.965   7.085  0.2105  0.5567  0.4722
  149SAPE   C3116427   3.565   5.086   7.141 -0.2320 -0.0951  0.3696
  149SAPE   O3216428   3.569   5.195   7.087 -0.4089 -0.1379  0.4074
  149SAPE   C3216429   3.562   5.065   7.298 -0.6494  0.0946 -0.8387
  149SAPE   H2X16430   3.455   5.042   7.314 -0.5431 -1.6862 -2.3275
  149SAPE   H2Y16431   3.588   5.162   7.346  2.1956  0.3952 -2.7368
  149SAPE   C2316432   3.916   4.705   7.071 -0.3733  0.1451  0.0161
  149SAPE   H3R16433   3.856   4.704   6.977  0.3962 -1.2235 -0.4920
  149SAPE   H3S16434   3.845   4.678   7.151 -0.5398  1.5828  0.3870
  149SAPE   C2416435   4.024   4.597   7.055 -0.4342 -0.2906  0.6031
  149SAPE   H4R16436   4.097   4.644   6.987 -0.1316  1.0965  1.8434
  149SAPE   H4S16437   3.979   4.507   7.006  1.0464 -2.3518  2.7888
  149SAPE   C2516438   4.089   4.548   7.182 -0.8593 -0.5505  0.2001
  149SAPE   H5R16439   4.038   4.531   7.278 -0.7488 -0.2841  0.3088
  149SAPE   C2616440   4.217   4.505   7.192 -0.1581 -0.1057  0.0470
  149SAPE   H6R16441   4.241   4.455   7.287 -0.9909 -2.7860 -1.0514
  149SAPE   C2716442   4.318   4.491   7.082 -0.3313 -0.5255 -0.0254
  149SAPE   H7R16443   4.371   4.588   7.069 -0.7015 -0.5068 -1.6363
  149SAPE   H7S16444   4.273   4.474   6.982  2.0304 -0.5715 -1.1599
  149SAPE   C2816445   4.418   4.386   7.117  0.0782 -0.3320 -0.4902
  149SAPE   H8R16446   4.390   4.290   7.069 -0.0674  1.1624 -3.6430
  149SAPE   C2916447   4.517   4.403   7.201 -0.0191  0.1836 -0.9762
  149SAPE   H9R16448   4.578   4.315   7.226 -2.1349 -0.4137  2.9046
  149SAPE  C21016449   4.559   4.526   7.281 -0.3026 -0.0716 -0.2829
  149SAPE  H10R16450   4.520   4.613   7.223 -0.7853 -1.3361 -1.9739
  149SAPE  H10S16451   4.669   4.528   7.290 -0.3038 -3.3841  2.8580
  149SAPE  C21116452   4.503   4.526   7.423  0.4117 -0.0887  0.5597
  149SAPE  H11R16453   4.412   4.587   7.437  0.5910  0.6602 -1.1356
  149SAPE  C21216454   4.540   4.453   7.524 -0.4865  1.1323 -0.1242
  149SAPE  H12R16455   4.492   4.475   7.620 -4.1578 -1.0351 -1.2682
  149SAPE  C21316456   4.659   4.361   7.531  0.1525 -0.2604  0.0890
  149SAPE  H13R16457   4.690   4.325   7.430  1.1654 -2.2677  1.0500
  149SAPE  H13S16458   4.627   4.265   7.577  0.3196  0.4149  1.6701
  149SAPE  C21416459   4.767   4.436   7.595  0.7193  0.0586 -0.1221
  149SAPE  H14R16460   4.821   4.513   7.537  1.7650  0.1438  0.9483
  149SAPE  C21516461   4.820   4.421   7.714  0.4668  0.1626 -0.1845
  149SAPE  H15R16462   4.899   4.493   7.741  0.3866  0.0822  0.2841
  149SAPE  C21616463   4.771   4.326   7.817 -0.2426 -0.0540  0.7630
  149SAPE  H16R16464   4.840   4.293   7.898 -3.3362 -2.4819  2.5996
  149SAPE  H16S16465   4.738   4.231   7.771  0.8678 -1.4189  2.6217
  149SAPE  C21716466   4.643   4.381   7.893  0.9539  0.1837  0.6076
  149SAPE  H17R16467   4.555   4.382   7.826  0.4302 -0.9104  1.2518
  149SAPE  H17S16468   4.648   4.488   7.923 -1.2975  0.2600  0.8627
  149SAPE  C21816469   4.594   4.288   8.011  0.0912 -0.3398  0.2059
  149SAPE  H18R16470   4.669   4.295   8.092 -0.1571 -2.2387  0.6483
  149SAPE  H18S16471   4.572   4.184   7.977 -0.6372 -0.1165 -0.0369
  149SAPE  C21916472   4.465   4.347   8.068 -1.0472  0.8740  0.5426
  149SAPE  H19R16473   4.394   4.377   7.988 -0.1877 -0.4926 -0.8063
  149SAPE  H19S16474   4.486   4.439   8.125  0.7152 -0.3160  1.9571
  149SAPE  C22016475   4.386   4.249   8.171  0.2580 -0.4842  0.5499
  149SAPE  H20R16476   4.426   4.254   8.275  3.3724  0.9171 -0.5754
  149SAPE  H20S16477   4.395   4.147   8.128  0.0489 -0.6986  1.0112
  149SAPE  H20T16478   4.278   4.272   8.168  0.6523  1.4816 -1.0191
  149SAPE   C3316479   3.652   4.953   7.343 -0.4435 -0.1799  0.5384
  149SAPE   H3X16480   3.758   4.973   7.318 -0.7241  0.0944 -0.4974
  149SAPE   H3Y16481   3.618   4.863   7.289 -1.5839 -0.1007  1.0925
  149SAPE   C3416482   3.643   4.921   7.495  0.8521  0.2559 -0.4798
  149SAPE   H4X16483   3.676   4.816   7.501 -0.8593 -0.3179 -0.3744
  149SAPE   H4Y16484   3.537   4.934   7.527  0.9212 -0.4106  0.0275
  149SAPE   C3516485   3.730   5.011   7.588  0.7097  0.3580  0.3383
  149SAPE   H5X16486   3.725   5.120   7.566 -0.8390  0.4623  1.0932
  149SAPE   H5Y16487   3.833   4.982   7.558  0.1712  0.3440 -1.5979
  149SAPE   C3616488   3.708   4.994   7.741 -0.1603  0.6951  0.6479
  149SAPE   H6X16489   3.603   5.026   7.756 -0.0351  0.3654  2.5356
  149SAPE   H6Y16490   3.773   5.053   7.809  0.0094  1.7607 -0.4115
  149SAPE   C3716491   3.721   4.843   7.780  0.0170  0.2820  0.7583
  149SAPE   H7X16492   3.821   4.813   7.740 -1.1200 -1.4391 -0.9711
  149SAPE   H7Y16493   3.639   4.793   7.724  0.8552 -0.3135  0.0417
  149SAPE   C3816494   3.697   4.801   7.928  0.0769  0.1945 -0.3935
  149SAPE   H8X16495   3.596   4.833   7.960  0.1524  1.7078 -1.5796
  149SAPE   H8Y16496   3.762   4.865   7.992 -0.0165 -0.4053  0.3208
  149SAPE   C3916497   3.722   4.655   7.952  0.0577 -0.7465 -0.0286
  149SAPE   H9X16498   3.822   4.627   7.914  0.4867 -1.0493  1.2795
  149SAPE   H9Y16499   3.657   4.592   7.888  0.5381 -0.0265 -1.2584
  149SAPE  C31016500   3.725   4.608   8.098 -0.2111 -1.1020 -0.6981
  149SAPE  H10X16501   3.787   4.683   8.152  0.1143 -1.4772 -0.5415
  149SAPE  H10Y16502   3.773   4.508   8.107 -0.0231 -1.0251 -0.8168
  149SAPE  C31116503   3.575   4.598   8.147  0.5020  0.2475 -0.3751
  149SAPE  H11X16504   3.528   4.510   8.099  0.7934 -0.8479  1.2416
  149SAPE  H11Y16505   3.519   4.690   8.121  0.4616  0.5012  0.5541
  149SAPE  C31216506   3.564   4.594   8.303  0.7383  0.1933 -0.4564
  149SAPE  H12X16507   3.638   4.521   8.344  0.9208  2.5097  3.8757
  149SAPE  H12Y16508   3.466   4.552   8.332  1.0460 -1.0132 -1.0829
  149SAPE  C31316509   3.575   4.725   8.371  0.6656 -0.2582  0.2578
  149SAPE  H13X16510   3.498   4.799   8.341  2.9728  1.4220 -1.9492
  149SAPE  H13Y16511   3.677   4.763   8.351  0.4632  0.7973  1.1225
  149SAPE  C31416512   3.560   4.699   8.525 -0.2011  0.0123  0.0577
  149SAPE  H14X16513   3.630   4.617   8.553  1.7747  1.4121 -0.5519
  149SAPE  H14Y16514   3.454   4.666   8.530 -0.1806 -0.2203 -0.8598
  149SAPE  C31516515   3.556   4.819   8.616  0.7774 -0.7947 -0.4042
  149SAPE  H15X16516   3.526   4.778   8.715  1.4817 -1.2846 -0.3865
  149SAPE  H15Y16517   3.481   4.893   8.582  0.7654 -1.3502 -1.6058
  149SAPE  C31616518   3.681   4.907   8.613 -0.4692 -0.6300 -0.5561
  149SAPE  H16X16519   3.697   4.939   8.508 -2.1644  1.5532 -0.2414
  149SAPE  H16Y16520   3.766   4.846   8.649  1.4847  2.2059 -0.0334
  149SAPE  C31716521   3.661   5.037   8.691 -0.1237 -0.4696  0.3835
  149SAPE  H17X16522   3.637   5.011   8.797  1.6226  0.6836  1.1201
  149SAPE  H17Y16523   3.578   5.097   8.648  1.4760  1.0948 -0.6415
  149SAPE  C31816524   3.785   5.119   8.699 -0.4962  0.1741 -0.2746
  149SAPE  H18X16525   3.758   5.218   8.739 -0.1493 -0.0811  0.6128
  149SAPE  H18Y16526   3.844   5.129   8.605 -0.2730 -0.0967 -0.1676
  149SAPE  H18Z16527   3.853   5.072   8.774 -0.6333 -0.0501 -0.2899
  150SAPE     N16528   1.032   0.289   6.294 -0.1149 -0.1425  0.2180
  150SAPE   HN116529   1.047   0.385   6.256  1.0391 -0.6611 -0.6891
  150SAPE   HN216530   0.934   0.263   6.269 -0.7562  1.1526  1.2312
  150SAPE   HN316531   1.039   0.296   6.398  0.0215 -1.7551  0.3369
  150SAPE   C1216532   1.133   0.203   6.227  0.5265 -0.1493 -0.8907
  150SAPE  H12A16533   1.224   0.265   6.207 -0.8421  2.1569 -0.4013
  150SAPE  H12B16534   1.089   0.191   6.126  1.3299  0.8721 -1.3879
  150SAPE   C1116535   1.148   0.066   6.294  0.5181  0.0897  0.1168
  150SAPE  H11A16536   1.182   0.070   6.399  0.8448  0.8657 -0.0142
  150SAPE  H11B16537   1.226   0.005   6.243 -0.3916 -2.2063  1.2986
  150SAPE     P16538   1.024  -0.152   6.324 -0.2617  0.5240 -0.4756
  150SAPE   O1316539   0.897  -0.216   6.299  0.6434 -1.0137 -0.1678
  150SAPE   O1416540   1.150  -0.215   6.272  0.4576  0.0378  0.4150
  150SAPE   O1216541   1.024  -0.006   6.276  0.0806  0.2819  0.9263
  150SAPE   O1116542   1.050  -0.137   6.482 -0.0033 -0.0874 -0.3379
  150SAPE    C116543   0.961  -0.066   6.566 -0.6149 -0.5108  0.0416
  150SAPE    HA16544   1.024   0.019   6.599  0.2446 -1.5051  1.0540
  150SAPE    HB16545   0.874  -0.029   6.509  1.3576  1.9378 -1.6228
  150SAPE    C216546   0.921  -0.143   6.693 -0.0462  1.1902 -0.0199
  150SAPE    HS16547   0.865  -0.085   6.769 -1.7227  0.1078 -0.3841
  150SAPE   O2116548   1.037  -0.201   6.757  0.6618 -0.4344 -0.7681
  150SAPE   C2116549   1.086  -0.123   6.854 -0.7062 -0.5911  0.7892
  150SAPE   O2216550   1.043  -0.006   6.877  0.2959  0.1974 -0.3344
  150SAPE   C2216551   1.184  -0.206   6.938 -0.0317  0.0484  0.0942
  150SAPE   H2R16552   1.257  -0.253   6.869  1.0217  1.2693  0.3397
  150SAPE   H2S16553   1.247  -0.137   6.999 -0.0831 -1.4102  1.8764
  150SAPE    C316554   0.832  -0.263   6.649  0.1934  0.9399 -0.0308
  150SAPE    HX16555   0.889  -0.324   6.575 -0.6344  1.3166 -1.0078
  150SAPE    HY16556   0.748  -0.232   6.583 -1.7407 -2.5953  0.4638
  150SAPE   O3116557   0.779  -0.341   6.766  0.6435  0.4410  0.3024
  150SAPE   C3116558   0.841  -0.459   6.788  0.3202 -0.1983  0.0417
  150SAPE   O3216559   0.931  -0.505   6.723 -0.3895  0.0184  0.0835
  150SAPE   C3216560   0.771  -0.519   6.901  0.0115  1.0285 -0.4574
  150SAPE   H2X16561   0.661  -0.519   6.882 -0.1579  0.5188  0.4483
  150SAPE   H2Y16562   0.794  -0.452   6.987  1.1186  0.9054 -0.6440
  150SAPE   C2316563   1.113  -0.317   7.017 -0.3958  0.1805 -0.0624
  150SAPE   H3R16564   1.184  -0.377   7.079  1.5951 -0.3968 -2.6980
  150SAPE   H3S16565   1.082  -0.394   6.942 -3.6697  1.1736  0.1049
  150SAPE   C2416566   0.994  -0.277   7.102 -1.0370  0.2798  0.0006
  150SAPE   H4R16567   0.926  -0.361   7.129  1.2189 -1.9756 -0.9059
  150SAPE   H4S16568   0.935  -0.200   7.048 -0.1554  1.4442  0.6643
  150SAPE   C2516569   1.050  -0.221   7.226  0.5703 -0.1911 -0.6768
  150SAPE   H5R16570   1.090  -0.120   7.212  0.7566 -0.2445 -0.5428
  150SAPE   C2616571   1.051  -0.274   7.350  0.4976  0.1629 -0.1661
  150SAPE   H6R16572   1.087  -0.203   7.426 -1.0090 -0.4199  1.1491
  150SAPE   C2716573   1.004  -0.410   7.399  0.2939 -0.1754 -0.5457
  150SAPE   H7R16574   1.094  -0.470   7.426  0.6648  1.9219  3.7589
  150SAPE   H7S16575   0.947  -0.463   7.320  2.2614 -2.6281 -0.4400
  150SAPE   C2816576   0.901  -0.404   7.507  0.0334  0.3468  0.2225
  150SAPE   H8R16577   0.837  -0.315   7.499  0.6239  0.7249 -0.3195
  150SAPE   C2916578   0.885  -0.493   7.610  0.8455  0.2349 -0.0489
  150SAPE   H9R16579   0.812  -0.472   7.690  1.2151 -1.0535  0.6398
  150SAPE  C21016580   0.977  -0.609   7.634 -0.2568  0.2749 -0.5860
  150SAPE  H10R16581   1.050  -0.618   7.551  1.6648 -1.2110  1.1571
  150SAPE  H10S16582   0.936  -0.710   7.652  0.9257  0.0513  1.0126
  150SAPE  C21116583   1.054  -0.567   7.762 -0.3486 -0.5855 -0.4472
  150SAPE  H11R16584   1.135  -0.497   7.737 -0.8009 -0.4613 -1.6371
  150SAPE  C21216585   1.044  -0.608   7.893  0.7178  0.5974 -0.0384
  150SAPE  H12R16586   1.102  -0.559   7.972  0.7028  3.6506 -1.7683
  150SAPE  C21316587   0.944  -0.707   7.947 -0.7893 -0.4989  0.7368
  150SAPE  H13R16588   0.993  -0.761   8.031  1.7042  2.6484  1.5158
  150SAPE  H13S16589   0.928  -0.779   7.864  0.6862 -0.4006  0.3356
  150SAPE  C21416590   0.811  -0.638   7.972  0.2672 -0.5485 -0.7712
  150SAPE  H14R16591   0.757  -0.588   7.891  0.0038  0.1617 -0.1665
  150SAPE  C21516592   0.757  -0.633   8.093  0.3229 -0.7151 -0.4664
  150SAPE  H15R16593   0.658  -0.589   8.114 -0.3082 -1.2855 -2.1311
  150SAPE  C21616594   0.815  -0.692   8.222  0.3508  1.3045 -0.3969
  150SAPE  H16R16595   0.754  -0.652   8.306  0.3597 -0.2837  0.4073
  150SAPE  H16S16596   0.924  -0.675   8.239  0.2003  0.3353  2.0554
  150SAPE  C21716597   0.807  -0.844   8.234  0.0176  0.2334 -0.5136
  150SAPE  H17R16598   0.902  -0.895   8.262 -1.3654 -2.0517  0.3522
  150SAPE  H17S16599   0.772  -0.890   8.138  0.0697 -0.0193 -0.4130
  150SAPE  C21816600   0.703  -0.870   8.344  0.2852  0.0445  0.7178
  150SAPE  H18R16601   0.609  -0.815   8.323 -0.4664 -1.8696 -1.2520
  150SAPE  H18S16602   0.750  -0.843   8.442  1.6435 -3.4517  1.1734
  150SAPE  C21916603   0.670  -1.023   8.365 -0.1360  0.9251  0.0754
  150SAPE  H19R16604   0.764  -1.081   8.380 -0.4970 -0.7132 -3.1095
  150SAPE  H19S16605   0.619  -1.056   8.273  1.0538  0.1138 -0.3077
  150SAPE  C22016606   0.593  -1.038   8.499  0.2818  0.5122 -0.1683
  150SAPE  H20R16607   0.492  -0.991   8.491  0.0978  0.1374 -0.0859
  150SAPE  H20S16608   0.655  -1.003   8.584  2.0577  1.9015 -1.9389
  150SAPE  H20T16609   0.587  -1.148   8.514  0.0797  0.2754 -1.8229
  150SAPE   C3316610   0.804  -0.660   6.942  0.4871  0.8219  0.3250
  150SAPE   H3X16611   0.909  -0.681   6.912  0.0518 -2.6282  0.7765
  150SAPE   H3Y16612   0.742  -0.738   6.892  0.7653 -0.3375  1.7246
  150SAPE   C3416613   0.812  -0.685   7.096  0.2640  0.0070 -0.3768
  150SAPE   H4X16614   0.718  -0.663   7.150 -0.9974 -0.2059 -2.3812
  150SAPE   H4Y16615   0.895  -0.629   7.144  0.0550  0.3629 -0.4311
  150SAPE   C3516616   0.836  -0.840   7.124  0.2440  0.5360 -0.1420
  150SAPE   H5X16617   0.936  -0.880   7.096 -1.3397 -4.3748  0.2827
  150SAPE   H5Y16618   0.773  -0.901   7.056  0.1776  1.4339 -0.9075
  150SAPE   C3616619   0.813  -0.879   7.272 -0.2748  0.0486  0.8400
  150SAPE   H6X16620   0.710  -0.848   7.303 -0.7147 -0.3625 -0.1565
  150SAPE   H6Y16621   0.887  -0.824   7.334  0.7354 -1.4769  1.0276
  150SAPE   C3716622   0.810  -1.032   7.312  0.3446 -0.1258  0.8292
  150SAPE   H7X16623   0.907  -1.073   7.277  1.3140  1.4420  1.5366
  150SAPE   H7Y16624   0.732  -1.092   7.261 -0.5596  1.1432  0.6833
  150SAPE   C3816625   0.815  -1.041   7.462 -0.3734 -0.4320  0.1806
  150SAPE   H8X16626   0.899  -0.979   7.498 -1.2666 -0.0928  1.7858
  150SAPE   H8Y16627   0.828  -1.147   7.493 -1.4472 -0.3428  1.0034
  150SAPE   C3916628   0.700  -0.978   7.536 -0.3357  0.0836  0.5664
  150SAPE   H9X16629   0.605  -1.026   7.502  0.3535 -2.1727  1.5971
  150SAPE   H9Y16630   0.699  -0.868   7.526  0.3251  0.1154  0.8113
  150SAPE  C31016631   0.710  -0.996   7.684  0.0196 -0.5143 -0.2665
  150SAPE  H10X16632   0.628  -0.949   7.743  0.9249 -0.1401  0.7385
  150SAPE  H10Y16633   0.810  -0.957   7.714 -0.0451  1.8757 -2.8007
  150SAPE  C31116634   0.699  -1.141   7.745  0.7365  0.3975  0.1459
  150SAPE  H11X16635   0.757  -1.220   7.694 -2.1095 -1.3137 -0.6926
  150SAPE  H11Y16636   0.592  -1.167   7.732  0.6779  0.5280  0.3535
  150SAPE  C31216637   0.725  -1.149   7.900  0.2421 -0.2489 -0.0516
  150SAPE  H12X16638   0.658  -1.080   7.956 -0.3450 -0.5329 -0.3942
  150SAPE  H12Y16639   0.829  -1.119   7.928  0.2679 -0.6076  0.2408
  150SAPE  C31316640   0.704  -1.285   7.956  0.3657 -0.4707  0.6398
  150SAPE  H13X16641   0.770  -1.353   7.898 -0.3636 -0.1381 -0.6452
  150SAPE  H13Y16642   0.599  -1.317   7.944 -1.0549  2.1672  4.3253
  150SAPE  C31416643   0.743  -1.304   8.106  0.3812  0.1776 -0.2194
  150SAPE  H14X16644   0.677  -1.241   8.170  2.6069  2.3910  0.0639
  150SAPE  H14Y16645   0.843  -1.257   8.117 -0.0148  0.6118  2.0252
  150SAPE  C31516646   0.741  -1.437   8.167 -0.1674 -0.4974  0.1643
  150SAPE  H15X16647   0.820  -1.503   8.127  0.7850  0.9696 -0.4674
  150SAPE  H15Y16648   0.650  -1.494   8.137 -0.4897  0.1381 -0.0916
  150SAPE  C31616649   0.753  -1.430   8.322  0.3088 -0.1777 -0.1621
  150SAPE  H16X16650   0.667  -1.377   8.369  0.0013 -0.9499  0.1690
  150SAPE  H16Y16651   0.835  -1.358   8.342 -1.1367  1.5235 -0.1460
  150SAPE  C31716652   0.766  -1.563   8.403  0.5219  0.2548 -1.1052
  150SAPE  H17X16653   0.864  -1.607   8.375  0.3825  0.5290 -2.0477
  150SAPE  H17Y16654   0.683  -1.629   8.370  0.4711 -0.1844 -0.1310
  150SAPE  C31816655   0.756  -1.546   8.552  0.6214  0.2005  0.0414
  150SAPE  H18X16656   0.656  -1.518   8.594  0.4956 -0.7184  0.3891
  150SAPE  H18Y16657   0.835  -1.479   8.592  1.5931 -0.2459 -1.1042
  150SAPE  H18Z16658   0.779  -1.642   8.603 -0.7701  1.2237  2.8353
  151SAPE     N16659   4.531   4.290   6.151  0.4159 -0.2963  0.5038
  151SAPE   HN116660   4.442   4.264   6.104 -0.0143  2.0869 -0.1207
  151SAPE   HN216661   4.567   4.357   6.080  2.9920 -1.4180  0.6400
  151SAPE   HN316662   4.595   4.210   6.136  0.0205 -0.1167 -2.8247
  151SAPE   C1216663   4.511   4.339   6.291  0.5176  0.2315 -0.5153
  151SAPE  H12A16664   4.483   4.445   6.274 -2.8283 -0.4218  0.2412
  151SAPE  H12B16665   4.600   4.307   6.349 -0.5446 -2.6395 -0.3362
  151SAPE   C1116666   4.391   4.267   6.356  0.4016  0.5625 -0.5690
  151SAPE  H11A16667   4.397   4.294   6.464  0.2110 -0.9614 -0.1510
  151SAPE  H11B16668   4.410   4.158   6.353 -0.3423  0.4299 -0.9237
  151SAPE     P16669   4.126   4.268   6.361  0.0889  0.0286  0.0369
  151SAPE   O1316670   4.108   4.364   6.472  0.3001 -0.1170  0.3366
  151SAPE   O1416671   4.028   4.271   6.257  0.4644  0.3565 -0.2975
  151SAPE   O1216672   4.264   4.296   6.288 -0.1565  0.0161  0.1681
  151SAPE   O1116673   4.154   4.130   6.419  0.2644  0.6366  0.6200
  151SAPE    C116674   4.053   4.029   6.404  0.1655  0.2172  0.9432
  151SAPE    HA16675   3.994   4.024   6.310  1.2163 -0.7102  0.2971
  151SAPE    HB16676   4.105   3.931   6.414 -1.3014 -0.7592 -0.6456
  151SAPE    C216677   3.951   4.032   6.522  1.1300 -0.6824  0.1854
  151SAPE    HS16678   3.886   4.120   6.507  1.3352 -0.6420 -0.5146
  151SAPE   O2116679   4.028   4.053   6.643  0.3917  0.1189  0.3994
  151SAPE   C2116680   3.972   4.126   6.737 -0.3651 -0.6461  0.0337
  151SAPE   O2216681   3.865   4.188   6.736 -0.7433 -0.0546 -0.2756
  151SAPE   C2216682   4.068   4.141   6.855 -0.3223 -0.2275  0.2598
  151SAPE   H2R16683   4.156   4.074   6.842 -0.2533 -0.7685  3.0441
  151SAPE   H2S16684   4.107   4.244   6.874 -0.8643  0.0756 -0.2223
  151SAPE    C316685   3.866   3.899   6.528  0.5304  0.3125 -0.3728
  151SAPE    HX16686   3.937   3.813   6.529 -0.9745 -0.9762  0.0370
  151SAPE    HY16687   3.794   3.888   6.445  0.6328 -0.7441 -0.3434
  151SAPE   O3116688   3.797   3.885   6.653  0.4023 -0.2752 -0.0763
  151SAPE   C3116689   3.717   3.781   6.664 -0.2204  0.3188  0.0176
  151SAPE   O3216690   3.708   3.693   6.578 -0.6516  0.0639  0.2337
  151SAPE   C3216691   3.659   3.774   6.793 -0.0624 -0.4762  0.1539
  151SAPE   H2X16692   3.587   3.690   6.795  0.4161 -0.8723  1.6004
  151SAPE   H2Y16693   3.609   3.867   6.828  1.1204  0.7178 -1.2212
  151SAPE   C2316694   4.006   4.103   6.990  0.0198  0.3743 -0.3976
  151SAPE   H3R16695   3.965   4.000   6.992  1.0209 -0.0247 -0.2227
  151SAPE   H3S16696   3.924   4.175   7.013 -0.1134  0.1115 -0.0445
  151SAPE   C2416697   4.105   4.120   7.107 -0.5186  0.3037  0.0824
  151SAPE   H4R16698   4.149   4.222   7.100  0.7618 -0.1883  0.6284
  151SAPE   H4S16699   4.182   4.042   7.092  0.3281  0.5945  2.4773
  151SAPE   C2516700   4.033   4.113   7.241  0.2455 -0.1032  0.1574
  151SAPE   H5R16701   3.925   4.130   7.227  0.4134  0.0527 -1.1015
  151SAPE   C2616702   4.089   4.103   7.365  0.2390 -0.1541  0.8662
  151SAPE   H6R16703   4.016   4.088   7.447 -0.3475  0.9381  0.5526
  151SAPE   C2716704   4.232   4.097   7.379  0.4391 -0.6149  0.5638
  151SAPE   H7R16705   4.288   4.112   7.284  1.6235  1.0745  1.4768
  151SAPE   H7S16706   4.248   3.990   7.402 -3.7729 -1.5806 -0.3207
  151SAPE   C2816707   4.269   4.199   7.484  0.6410  0.2559  0.6741
  151SAPE   H8R16708   4.251   4.304   7.457  0.7886 -0.3152 -1.8541
  151SAPE   C2916709   4.339   4.177   7.596 -0.2423  0.4744  0.3838
  151SAPE   H9R16710   4.375   4.267   7.647 -2.3335  0.8196  1.3662
  151SAPE  C21016711   4.390   4.041   7.649 -0.3205  0.0239 -0.0501
  151SAPE  H10R16712   4.340   3.971   7.580 -0.3281  1.6425 -1.7686
  151SAPE  H10S16713   4.356   4.011   7.750 -0.5000 -1.9264 -0.6635
  151SAPE  C21116714   4.542   4.019   7.639 -0.7266  0.2918  0.2044
  151SAPE  H11R16715   4.591   4.058   7.549 -4.8816  1.1050 -1.9437
  151SAPE  C21216716   4.611   3.966   7.748 -0.7362  0.3331  0.3537
  151SAPE  H12R16717   4.719   3.946   7.741 -0.8764  0.1217 -2.0812
  151SAPE  C21316718   4.547   3.906   7.874  0.1044  0.0830  0.0504
  151SAPE  H13R16719   4.512   3.804   7.847 -1.2523  0.2614  1.0317
  151SAPE  H13S16720   4.457   3.956   7.915  0.7990 -0.9389  3.1594
  151SAPE  C21416721   4.648   3.875   7.982 -0.3251 -0.4588  0.6637
  151SAPE  H14R16722   4.746   3.848   7.940  0.0647 -0.1922  1.3831
  151SAPE  C21516723   4.635   3.861   8.112 -0.1167  0.1192  0.3343
  151SAPE  H15R16724   4.733   3.861   8.163 -0.1917  0.3770  0.4803
  151SAPE  C21616725   4.511   3.868   8.197  0.0437 -0.8930  0.2920
  151SAPE  H16R16726   4.426   3.897   8.133  0.9327 -3.1425 -2.1043
  151SAPE  H16S16727   4.516   3.953   8.269  0.7777  0.9820 -1.8633
  151SAPE  C21716728   4.471   3.751   8.282  0.2580  0.8380 -0.1139
  151SAPE  H17R16729   4.390   3.778   8.353 -0.9055  0.6263 -1.3295
  151SAPE  H17S16730   4.557   3.711   8.341  0.3042  0.5004 -0.4081
  151SAPE  C21816731   4.417   3.636   8.190 -0.2270 -0.1524 -0.0115
  151SAPE  H18R16732   4.505   3.596   8.136 -0.6574 -1.8616  0.4993
  151SAPE  H18S16733   4.341   3.673   8.118  0.4394  0.6259 -0.3352
  151SAPE  C21916734   4.350   3.529   8.267  0.7814 -0.2035  0.1569
  151SAPE  H19R16735   4.275   3.570   8.338  1.7073 -0.4113  1.2990
  151SAPE  H19S16736   4.417   3.470   8.334 -0.5191 -3.3052 -1.0688
  151SAPE  C22016737   4.283   3.427   8.174 -0.2456 -0.0225 -0.2382
  151SAPE  H20R16738   4.197   3.475   8.123  1.5074  3.3505 -0.3127
  151SAPE  H20S16739   4.366   3.402   8.105 -0.7578  1.2980 -1.3764
  151SAPE  H20T16740   4.244   3.344   8.237 -0.3452  2.1951  2.8789
  151SAPE   C3316741   3.764   3.750   6.905 -0.4183  0.8315 -0.0436
  151SAPE   H3X16742   3.827   3.840   6.918 -1.3727  1.6008 -0.6003
  151SAPE   H3Y16743   3.837   3.670   6.878 -1.7097 -1.2709  2.2163
  151SAPE   C3416744   3.696   3.721   7.041  0.0506  0.1008  0.2178
  151SAPE   H4X16745   3.670   3.613   7.048  1.5538 -0.3658 -0.9396
  151SAPE   H4Y16746   3.613   3.794   7.052  0.3282  0.3890  0.4130
  151SAPE   C3516747   3.790   3.750   7.156 -0.3350 -0.7522 -0.1261
  151SAPE   H5X16748   3.832   3.848   7.126 -1.7669 -0.2755 -0.6713
  151SAPE   H5Y16749   3.860   3.664   7.167  0.8246  0.3890  2.1297
  151SAPE   C3616750   3.724   3.772   7.299  0.6223  0.5692 -0.7090
  151SAPE   H6X16751   3.672   3.681   7.336  1.1179  0.5638 -0.0091
  151SAPE   H6Y16752   3.647   3.852   7.297 -0.7484 -0.7120 -1.2201
  151SAPE   C3716753   3.829   3.807   7.407  0.4099 -0.9097 -0.0627
  151SAPE   H7X16754   3.885   3.893   7.366 -0.1356  0.6809  2.2723
  151SAPE   H7Y16755   3.899   3.721   7.402 -0.2235 -1.4341 -0.1026
  151SAPE   C3816756   3.786   3.838   7.550 -0.7456  0.7155  0.1376
  151SAPE   H8X16757   3.730   3.932   7.569  2.5357  2.4858  2.0753
  151SAPE   H8Y16758   3.876   3.829   7.615 -0.5430 -1.0717 -0.3165
  151SAPE   C3916759   3.689   3.736   7.615  0.1973  0.1558 -0.2586
  151SAPE   H9X16760   3.734   3.638   7.587 -0.2014  0.2938 -1.4332
  151SAPE   H9Y16761   3.586   3.723   7.574 -0.3602 -0.6048  1.2938
  151SAPE  C31016762   3.673   3.764   7.769 -0.5651 -0.2346  0.1936
  151SAPE  H10X16763   3.601   3.849   7.768 -1.2313 -0.7027 -3.1728
  151SAPE  H10Y16764   3.768   3.803   7.811 -0.5844 -0.9526  0.9084
  151SAPE  C31116765   3.596   3.653   7.842 -0.1867 -0.3722 -0.0564
  151SAPE  H11X16766   3.642   3.552   7.843 -1.5185 -0.9957  0.4821
  151SAPE  H11Y16767   3.496   3.630   7.799  0.2196 -1.7603 -0.3156
  151SAPE  C31216768   3.572   3.690   7.992 -0.7582  0.3345 -0.5751
  151SAPE  H12X16769   3.526   3.790   7.999 -0.6967  0.2363  2.8703
  151SAPE  H12Y16770   3.671   3.702   8.041 -0.4161  2.8691 -1.7623
  151SAPE  C31316771   3.498   3.578   8.075 -0.7049  0.2500  0.9030
  151SAPE  H13X16772   3.553   3.482   8.065 -1.3067 -0.2625  2.3104
  151SAPE  H13Y16773   3.395   3.555   8.041  0.1356  0.1138 -1.7643
  151SAPE  C31416774   3.507   3.623   8.224  0.5415 -0.1846  0.5845
  151SAPE  H14X16775   3.451   3.719   8.238 -0.7256 -0.8700  0.3727
  151SAPE  H14Y16776   3.615   3.632   8.247  0.4262  0.4339  0.9343
  151SAPE  C31516777   3.473   3.511   8.323  0.2075  0.1423 -0.2703
  151SAPE  H15X16778   3.475   3.556   8.424  0.9281 -1.2316  0.3498
  151SAPE  H15Y16779   3.553   3.436   8.308 -0.1935 -0.2686 -0.3859
  151SAPE  C31616780   3.324   3.465   8.304 -0.0992  0.9795 -0.6200
  151SAPE  H16X16781   3.302   3.405   8.213  0.0418  2.1347 -1.4430
  151SAPE  H16Y16782   3.272   3.562   8.288 -3.4357 -0.9221 -2.6048
  151SAPE  C31716783   3.279   3.389   8.431 -0.1805 -0.7329  0.3131
  151SAPE  H17X16784   3.302   3.453   8.519 -0.2591  0.3320 -0.4229
  151SAPE  H17Y16785   3.340   3.297   8.440  2.2882  0.5494 -1.9830
  151SAPE  C31816786   3.128   3.350   8.433  0.4950 -0.5182 -0.4848
  151SAPE  H18X16787   3.108   3.273   8.510  1.4440  1.1194  1.5090
  151SAPE  H18Y16788   3.100   3.316   8.331 -1.4171 -1.0938  0.1890
  151SAPE  H18Z16789   3.064   3.438   8.459  0.0335 -0.4859 -1.6638
  152SAPE     N16790   2.884   4.918   6.366 -0.3535  0.3241 -0.2196
  152SAPE   HN116791   2.982   4.927   6.398 -0.3572 -2.5543  0.8990
  152SAPE   HN216792   2.820   5.000   6.359 -1.0913 -0.1550  0.6287
  152SAPE   HN316793   2.840   4.841   6.421  1.0440 -0.3345  0.0037
  152SAPE   C1216794   2.906   4.861   6.226 -0.3284 -0.2021 -0.0577
  152SAPE  H12A16795   2.907   4.750   6.237 -2.4348 -0.2638 -0.0865
  152SAPE  H12B16796   2.998   4.908   6.183  1.0316 -2.3813  0.3063
  152SAPE   C1116797   2.780   4.902   6.143  0.5242  0.1821 -0.7047
  152SAPE  H11A16798   2.785   4.850   6.045 -2.6348 -0.5985 -0.5541
  152SAPE  H11B16799   2.779   5.013   6.135  2.2709  0.4127  1.2888
  152SAPE     P16800   2.532   4.800   6.155 -0.2577  0.0721  0.2697
  152SAPE   O1316801   2.417   4.878   6.207 -0.0366 -0.4410 -0.7942
  152SAPE   O1416802   2.545   4.792   6.005  0.3618  0.2861  0.3810
  152SAPE   O1216803   2.662   4.859   6.219 -0.4624 -0.0759 -0.0573
  152SAPE   O1116804   2.516   4.652   6.203 -0.1371  0.4140 -0.0068
  152SAPE    C116805   2.580   4.589   6.310  0.1533 -0.2158  0.7748
  152SAPE    HA16806   2.575   4.479   6.298 -2.4100 -0.3549  2.4570
  152SAPE    HB16807   2.688   4.616   6.310  0.5197 -1.5948  0.1789
  152SAPE    C216808   2.512   4.618   6.451 -0.4344  0.5566  0.2251
  152SAPE    HS16809   2.402   4.616   6.435 -0.5708  2.1230  0.7608
  152SAPE   O2116810   2.561   4.750   6.478  0.0628 -0.4837 -0.2943
  152SAPE   C2116811   2.482   4.828   6.557 -0.2124 -0.2020  0.1285
  152SAPE   O2216812   2.393   4.784   6.625  0.2457  0.2595  0.3940
  152SAPE   C2216813   2.510   4.978   6.555 -0.8214  0.2106  0.3617
  152SAPE   H2R16814   2.619   4.981   6.577 -0.7662 -0.5892  0.2362
  152SAPE   H2S16815   2.494   5.013   6.451  1.4972  0.7050  0.1229
  152SAPE    C316816   2.555   4.509   6.560 -0.3461 -0.0685  0.2362
  152SAPE    HX16817   2.652   4.548   6.598 -1.3369  1.7399  1.0337
  152SAPE    HY16818   2.560   4.407   6.517  0.4544 -0.4381  1.1873
  152SAPE   O3116819   2.467   4.504   6.671  0.6445 -0.0924  0.3246
  152SAPE   C3116820   2.509   4.456   6.785  0.0694 -0.1396  0.0125
  152SAPE   O3216821   2.622   4.427   6.810 -0.3056 -0.1445  0.0503
  152SAPE   C3216822   2.394   4.434   6.877  0.2053 -0.1315 -0.7324
  152SAPE   H2X16823   2.324   4.365   6.826  0.3033 -1.6665  1.1257
  152SAPE   H2Y16824   2.346   4.532   6.902  0.3149 -0.6894  2.0145
  152SAPE   C2316825   2.441   5.069   6.653 -0.3164 -0.5539  0.6430
  152SAPE   H3R16826   2.494   5.167   6.648  0.0652 -0.8316 -1.8477
  152SAPE   H3S16827   2.448   5.027   6.755  0.5565  0.8582  1.2007
  152SAPE   C2416828   2.290   5.089   6.615 -0.1746  0.0023  0.5519
  152SAPE   H4R16829   2.243   4.990   6.596  1.5037 -0.7494  0.1492
  152SAPE   H4S16830   2.289   5.143   6.517  1.0518 -2.4729 -0.9161
  152SAPE   C2516831   2.212   5.159   6.722  0.6860  0.6257  0.1874
  152SAPE   H5R16832   2.185   5.257   6.681 -1.4150  0.0895  0.1815
  152SAPE   C2616833   2.171   5.107   6.836  0.0155  0.3609 -0.6746
  152SAPE   H6R16834   2.123   5.176   6.907 -0.3620 -0.0135 -0.5626
  152SAPE   C2716835   2.212   4.971   6.887  0.6674  0.0336  0.8399
  152SAPE   H7R16836   2.321   4.977   6.911  2.0938 -3.2272 -3.3377
  152SAPE   H7S16837   2.206   4.894   6.807  1.9097 -0.0469  0.8027
  152SAPE   C2816838   2.124   4.922   6.995  0.0039  0.4172 -0.0710
  152SAPE   H8R16839   2.018   4.951   6.990 -0.4427 -1.0083  0.6852
  152SAPE   C2916840   2.178   4.878   7.106  0.3595 -0.1706 -0.6753
  152SAPE   H9R16841   2.111   4.876   7.193 -0.6535  2.8864 -1.2645
  152SAPE  C21016842   2.323   4.849   7.133  0.9344 -0.1348  0.8202
  152SAPE  H10R16843   2.376   4.943   7.108 -1.1045  0.5059 -1.5093
  152SAPE  H10S16844   2.357   4.766   7.067 -0.2602 -0.1583  0.2086
  152SAPE  C21116845   2.357   4.803   7.272 -0.6781  0.4444 -0.1049
  152SAPE  H11R16846   2.398   4.701   7.280  0.6033  0.9702  0.4066
  152SAPE  C21216847   2.345   4.873   7.385 -0.6318  0.3067  0.2426
  152SAPE  H12R16848   2.348   4.822   7.482  0.8730  2.7172  1.5605
  152SAPE  C21316849   2.295   5.016   7.382  0.4420  0.3742  0.0893
  152SAPE  H13R16850   2.190   5.013   7.419  0.1161 -1.9766 -0.8760
  152SAPE  H13S16851   2.290   5.065   7.282  0.5711  0.0674 -0.0680
  152SAPE  C21416852   2.367   5.091   7.495  0.6157 -1.2524 -0.1919
  152SAPE  H14R16853   2.469   5.052   7.507  0.7473 -1.5687 -2.0132
  152SAPE  C21516854   2.311   5.187   7.571  0.1271  0.5157 -0.4194
  152SAPE  H15R16855   2.374   5.234   7.648  0.8180 -1.3532  0.2211
  152SAPE  C21616856   2.178   5.249   7.554  0.3885  0.3276  0.0529
  152SAPE  H16R16857   2.115   5.203   7.633  0.1326  0.7054  0.0703
  152SAPE  H16S16858   2.130   5.238   7.454  0.0809  0.4356  0.1894
  152SAPE  C21716859   2.178   5.407   7.577  0.0634  0.3007 -0.3902
  152SAPE  H17R16860   2.071   5.427   7.597 -0.7766 -2.8269 -1.1224
  152SAPE  H17S16861   2.217   5.449   7.482  1.3031  0.4887  0.1747
  152SAPE  C21816862   2.248   5.459   7.707  0.2006 -0.0298  0.2534
  152SAPE  H18R16863   2.229   5.563   7.741 -1.6509 -0.9306  2.2309
  152SAPE  H18S16864   2.358   5.452   7.702  0.3046 -0.8695  2.4425
  152SAPE  C21916865   2.212   5.377   7.832 -0.1878  0.3944  0.9298
  152SAPE  H19R16866   2.199   5.268   7.811 -0.8977  0.3046  1.7430
  152SAPE  H19S16867   2.108   5.401   7.862 -0.8555  2.3308 -2.4560
  152SAPE  C22016868   2.301   5.406   7.954 -0.8857  0.4589 -0.4817
  152SAPE  H20R16869   2.410   5.384   7.944 -0.9380 -0.5602  0.8382
  152SAPE  H20S16870   2.280   5.340   8.041  1.8078  2.2330  1.7212
  152SAPE  H20T16871   2.287   5.510   7.992  1.2210  0.8487 -0.6618
  152SAPE   C3316872   2.442   4.359   7.004 -0.7232 -0.2294  0.3125
  152SAPE   H3X16873   2.498   4.438   7.059  1.0709  0.1935 -1.9956
  152SAPE   H3Y16874   2.511   4.274   6.986 -2.0382 -1.6914  1.7441
  152SAPE   C3416875   2.324   4.301   7.085  0.3706  0.2007 -0.0104
  152SAPE   H4X16876   2.323   4.190   7.081  0.2068  0.2174 -0.4779
  152SAPE   H4Y16877   2.232   4.341   7.039 -0.4168 -1.8543 -0.3336
  152SAPE   C3516878   2.316   4.339   7.236  0.2947  0.2133  0.4974
  152SAPE   H5X16879   2.220   4.311   7.284  0.6819  1.5301  2.1453
  152SAPE   H5Y16880   2.317   4.449   7.252 -1.5612 -0.2027  4.9446
  152SAPE   C3616881   2.426   4.281   7.322 -0.1435  0.3508 -0.1314
  152SAPE   H6X16882   2.517   4.332   7.284  0.4379  1.5756  2.6322
  152SAPE   H6Y16883   2.446   4.175   7.295  1.5582  0.3040  1.1323
  152SAPE   C3716884   2.414   4.299   7.471  0.0983 -1.1741 -0.0874
  152SAPE   H7X16885   2.324   4.250   7.514  0.5792 -1.1114  1.0299
  152SAPE   H7Y16886   2.385   4.404   7.492 -0.1698 -1.9372  4.4123
  152SAPE   C3816887   2.544   4.270   7.547 -0.4434 -0.2335  0.4920
  152SAPE   H8X16888   2.634   4.328   7.516  0.8748 -0.4513  3.5080
  152SAPE   H8Y16889   2.581   4.167   7.530 -0.2914 -0.0546 -0.2781
  152SAPE   C3916890   2.522   4.290   7.694 -0.4647  0.6445 -0.6107
  152SAPE   H9X16891   2.440   4.223   7.728  0.0358  0.2120 -0.2592
  152SAPE   H9Y16892   2.500   4.397   7.714 -3.0663  0.2285 -0.8879
  152SAPE  C31016893   2.641   4.246   7.777 -0.1163  0.3103 -0.4402
  152SAPE  H10X16894   2.731   4.310   7.760 -1.6290  3.0742  1.2105
  152SAPE  H10Y16895   2.677   4.143   7.753  0.9051  0.2491  1.1365
  152SAPE  C31116896   2.599   4.258   7.926  0.5900  0.8283 -0.0303
  152SAPE  H11X16897   2.499   4.215   7.949  0.4199  1.5759  0.6388
  152SAPE  H11Y16898   2.603   4.365   7.954  1.2338  0.6555  0.5417
  152SAPE  C31216899   2.706   4.180   8.007  0.0539 -0.0953 -0.3862
  152SAPE  H12X16900   2.804   4.228   7.985  0.1346 -0.6392 -1.2533
  152SAPE  H12Y16901   2.715   4.075   7.973 -3.6306 -0.5791 -0.2514
  152SAPE  C31316902   2.663   4.193   8.156 -0.7395 -0.2108 -0.9439
  152SAPE  H13X16903   2.568   4.138   8.170  0.5267 -2.3891 -0.4160
  152SAPE  H13Y16904   2.652   4.299   8.187 -1.9282 -0.7582  0.6060
  152SAPE  C31416905   2.774   4.141   8.250 -0.3525 -0.6725  0.6351
  152SAPE  H14X16906   2.852   4.220   8.243 -0.5252 -0.2470  2.8634
  152SAPE  H14Y16907   2.822   4.050   8.210  1.1293  1.3137 -2.4967
  152SAPE  C31516908   2.720   4.139   8.393 -0.1302 -0.6494 -0.1314
  152SAPE  H15X16909   2.706   4.030   8.411 -0.0314 -0.7326 -0.5503
  152SAPE  H15Y16910   2.620   4.183   8.409 -0.9401 -2.2637 -0.5609
  152SAPE  C31616911   2.823   4.189   8.493 -0.8328 -0.5394 -0.1246
  152SAPE  H16X16912   2.850   4.291   8.457 -0.7131 -1.3545 -2.5384
  152SAPE  H16Y16913   2.915   4.129   8.479  0.2489  1.3899 -1.9859
  152SAPE  C31716914   2.772   4.194   8.638  0.6177 -0.4375 -0.6893
  152SAPE  H17X16915   2.740   4.096   8.680  2.0862  0.2350  2.2590
  152SAPE  H17Y16916   2.677   4.252   8.643  0.2735 -1.0887  1.4415
  152SAPE  C31816917   2.877   4.249   8.739  0.4747 -0.9070  0.3106
  152SAPE  H18X16918   2.892   4.359   8.732 -2.3919 -0.3400  1.6670
  152SAPE  H18Y16919   2.973   4.192   8.735  1.8582  1.3305 -3.0771
  152SAPE  H18Z16920   2.833   4.234   8.839  0.8799 -2.3751  0.2881
  153SAPE     N16921   4.146   2.931   6.178 -0.7466  0.2982 -0.2369
  153SAPE   HN116922   4.098   2.972   6.261  0.7898  1.5313  0.0999
  153SAPE   HN216923   4.147   2.829   6.198  0.7816  0.2410 -0.4624
  153SAPE   HN316924   4.245   2.963   6.174 -0.8467  0.4540 -2.1757
  153SAPE   C1216925   4.074   2.979   6.059  0.0287 -1.0071  0.0322
  153SAPE  H12A16926   3.973   2.932   6.061 -0.7061  0.4960 -0.4803
  153SAPE  H12B16927   4.126   2.950   5.965  0.8647  0.5941 -0.0316
  153SAPE   C1116928   4.051   3.130   6.051 -0.1867  0.3379 -0.6600
  153SAPE  H11A16929   4.026   3.141   5.944 -0.9516 -1.3388 -0.6829
  153SAPE  H11B16930   4.143   3.185   6.081 -0.7615  0.2809  1.3578
  153SAPE     P16931   3.896   3.286   6.204  0.3223 -0.2644 -0.3500
  153SAPE   O1316932   3.936   3.408   6.123  0.5774  0.8123 -0.3718
  153SAPE   O1416933   3.752   3.272   6.236 -0.2322  0.3762 -0.0919
  153SAPE   O1216934   3.943   3.152   6.136  0.5961 -0.0869  0.0555
  153SAPE   O1116935   3.975   3.276   6.341  0.0792  0.7660  0.0612
  153SAPE    C116936   4.095   3.350   6.348 -0.0617  0.0906 -0.4231
  153SAPE    HA16937   4.185   3.289   6.326 -0.6945 -1.8060  1.9114
  153SAPE    HB16938   4.093   3.439   6.282  0.1648  0.6924  0.3669
  153SAPE    C216939   4.130   3.407   6.488 -0.1203 -0.5830 -0.0447
  153SAPE    HS16940   4.222   3.467   6.473 -0.1829 -0.2778  0.7162
  153SAPE   O2116941   4.141   3.302   6.573  0.5719  0.3619 -0.0037
  153SAPE   C2116942   4.216   3.325   6.671  0.1239 -0.1348  0.0273
  153SAPE   O2216943   4.289   3.424   6.678  0.1026 -0.1406  0.1039
  153SAPE   C2216944   4.188   3.227   6.780 -0.2219  0.5323 -0.0050
  153SAPE   H2R16945   4.100   3.265   6.837 -0.7896  1.0609 -1.2015
  153SAPE   H2S16946   4.149   3.136   6.731 -0.0680  0.6671 -0.3838
  153SAPE    C316947   4.023   3.497   6.542  0.6541  0.1897  0.3180
  153SAPE    HX16948   3.930   3.438   6.558  0.8249 -0.2306 -0.1917
  153SAPE    HY16949   4.004   3.570   6.460  1.2204  0.7826  0.7051
  153SAPE   O3116950   4.045   3.559   6.665  0.0584  0.1315 -0.1766
  153SAPE   C3116951   4.135   3.653   6.655  0.0436  0.0139 -0.0485
  153SAPE   O3216952   4.189   3.689   6.550  0.3120 -0.1689 -0.3405
  153SAPE   C3216953   4.162   3.712   6.791 -0.3478 -0.1763  0.7960
  153SAPE   H2X16954   4.100   3.804   6.792 -3.2585 -1.9280 -1.6622
  153SAPE   H2Y16955   4.268   3.745   6.791 -0.2133 -0.2562  4.2953
  153SAPE   C2316956   4.318   3.190   6.857  0.2261  1.0909 -0.1352
  153SAPE   H3R16957   4.354   3.277   6.916  0.2057  0.4230  0.8982
  153SAPE   H3S16958   4.398   3.156   6.789  0.7068  0.0359  0.9176
  153SAPE   C2416959   4.290   3.075   6.957 -0.1755  0.1594 -0.1848
  153SAPE   H4R16960   4.390   3.061   7.004 -0.7142  1.1107  1.3218
  153SAPE   H4S16961   4.260   2.984   6.902  1.5424 -0.9216  0.5870
  153SAPE   C2516962   4.190   3.113   7.060  0.3092 -0.1534 -0.5301
  153SAPE   H5R16963   4.089   3.125   7.017  0.0401  1.3959  0.4110
  153SAPE   C2616964   4.225   3.139   7.188  0.2549 -1.2095 -0.1310
  153SAPE   H6R16965   4.146   3.150   7.263  0.3970  1.1013 -0.2527
  153SAPE   C2716966   4.363   3.140   7.249 -0.1488  0.7685 -0.3865
  153SAPE   H7R16967   4.443   3.155   7.174  1.2358 -2.3945  0.3062
  153SAPE   H7S16968   4.389   3.046   7.301  1.2141  1.2141 -0.2387
  153SAPE   C2816969   4.387   3.241   7.355 -0.4416 -0.4407 -0.5187
  153SAPE   H8R16970   4.429   3.335   7.317 -0.6307 -0.0410  0.2510
  153SAPE   C2916971   4.357   3.235   7.487  0.8713 -0.3534 -0.0030
  153SAPE   H9R16972   4.355   3.327   7.546  1.4524 -0.6478  0.4780
  153SAPE  C21016973   4.290   3.119   7.558 -0.5166 -0.0058 -0.2369
  153SAPE  H10R16974   4.257   3.044   7.483  0.4662  0.8284 -1.5605
  153SAPE  H10S16975   4.194   3.154   7.602  0.7210  1.1129  1.6795
  153SAPE  C21116976   4.378   3.073   7.677 -0.2601 -1.0956 -0.8253
  153SAPE  H11R16977   4.486   3.072   7.656  0.1156  0.2518  0.8583
  153SAPE  C21216978   4.344   3.044   7.807 -0.7179 -0.8734  0.3845
  153SAPE  H12R16979   4.422   2.998   7.869  1.0694 -0.1171 -1.2002
  153SAPE  C21316980   4.201   3.036   7.851 -0.3844 -0.3460  0.9890
  153SAPE  H13R16981   4.145   2.943   7.828 -0.4355 -0.6451  2.2356
  153SAPE  H13S16982   4.141   3.111   7.796  2.9003  1.7754 -0.0140
  153SAPE  C21416983   4.214   3.070   7.991  0.4336  0.0246  0.0419
  153SAPE  H14R16984   4.213   3.178   8.013 -0.0270  0.0049  0.1448
  153SAPE  C21516985   4.205   2.987   8.090  0.0449 -0.3591 -0.1055
  153SAPE  H15R16986   4.225   3.010   8.196  0.0596 -1.4767  0.1516
  153SAPE  C21616987   4.188   2.833   8.077 -0.8155  0.6268  0.0638
  153SAPE  H16R16988   4.286   2.786   8.103  0.4232  3.1068  0.1686
  153SAPE  H16S16989   4.179   2.808   7.969  0.6909 -1.2180  0.2951
  153SAPE  C21716990   4.060   2.780   8.142  0.6473 -0.3552  0.3172
  153SAPE  H17R16991   4.099   2.762   8.244  1.9458  1.0885  0.1160
  153SAPE  H17S16992   4.043   2.678   8.103  0.1580 -0.6065  1.1753
  153SAPE  C21816993   3.926   2.861   8.136 -0.6534  0.0673  0.4701
  153SAPE  H18R16994   3.941   2.967   8.166 -0.8619  0.4128 -0.6190
  153SAPE  H18S16995   3.846   2.812   8.196  0.1004 -0.5727  0.9766
  153SAPE  C21916996   3.865   2.885   7.999  0.2044 -0.1959  0.6280
  153SAPE  H19R16997   3.844   2.789   7.947  3.7175 -0.3226 -0.8653
  153SAPE  H19S16998   3.923   2.944   7.925  0.3301 -1.1630 -0.0705
  153SAPE  C22016999   3.729   2.957   8.017  0.0466  0.2391 -0.2413
  153SAPE  H20R17000   3.655   2.887   8.063  0.1280 -0.1283 -0.6620
  153SAPE  H20S17001   3.699   2.977   7.912  0.3997 -1.4780 -0.7010
  153SAPE  H20T17002   3.735   3.045   8.085  1.9748 -1.1100  1.4437
  153SAPE   C3317003   4.127   3.631   6.918  0.5451  0.9657 -0.1938
  153SAPE   H3X17004   4.123   3.524   6.888 -1.3716  0.9168  0.0713
  153SAPE   H3Y17005   4.030   3.673   6.952  1.9705  2.9355  1.7400
  153SAPE   C3417006   4.217   3.650   7.038  0.1250 -0.8221 -0.3297
  153SAPE   H4X17007   4.222   3.760   7.050  0.9101 -0.4485 -3.3628
  153SAPE   H4Y17008   4.322   3.625   7.012  0.6013  0.6475  0.1096
  153SAPE   C3517009   4.168   3.580   7.168 -0.1099  0.7350 -0.0589
  153SAPE   H5X17010   4.188   3.471   7.155 -0.1354  0.7768 -0.4827
  153SAPE   H5Y17011   4.058   3.579   7.186 -0.0273 -2.4728  0.9143
  153SAPE   C3617012   4.227   3.642   7.295  0.2338  0.2866 -0.3603
  153SAPE   H6X17013   4.202   3.750   7.284  2.4643  0.9620  0.5552
  153SAPE   H6Y17014   4.335   3.618   7.298  0.4503  1.2491  0.0970
  153SAPE   C3717015   4.179   3.586   7.429 -0.3685 -0.2225  0.6951
  153SAPE   H7X17016   4.205   3.478   7.431  2.1047  0.3203  0.7168
  153SAPE   H7Y17017   4.069   3.597   7.440 -0.1464  1.2806  1.6609
  153SAPE   C3817018   4.235   3.656   7.551  0.4530 -0.6758 -0.3967
  153SAPE   H8X17019   4.229   3.766   7.540  1.1987 -0.5659  0.1758
  153SAPE   H8Y17020   4.345   3.638   7.547  0.3024 -2.3832  1.5149
  153SAPE   C3917021   4.163   3.620   7.685 -0.2056 -0.2064  0.0588
  153SAPE   H9X17022   4.196   3.516   7.706 -1.8595 -1.0955 -1.5308
  153SAPE   H9Y17023   4.053   3.627   7.673 -0.3433  4.4560  1.8173
  153SAPE  C31017024   4.206   3.707   7.800 -0.2187  1.2914  0.1012
  153SAPE  H10X17025   4.304   3.756   7.781 -0.4334  1.3120 -1.0624
  153SAPE  H10Y17026   4.212   3.636   7.885 -1.6791 -1.0290 -1.6048
  153SAPE  C31117027   4.110   3.826   7.833  0.5294 -0.5079 -0.5947
  153SAPE  H11X17028   4.006   3.787   7.835 -0.1528  1.1919 -1.2616
  153SAPE  H11Y17029   4.093   3.889   7.744  1.4231 -0.6068 -0.8481
  153SAPE  C31217030   4.145   3.901   7.972  0.6672 -0.5424 -0.2266
  153SAPE  H12X17031   4.254   3.920   7.976  0.6236 -0.3972  2.7658
  153SAPE  H12Y17032   4.137   3.820   8.047 -1.8694 -0.1764  0.0140
  153SAPE  C31317033   4.075   4.031   8.007 -0.2019 -0.1139  0.0157
  153SAPE  H13X17034   4.097   4.071   8.108 -0.2854  1.0202 -0.3999
  153SAPE  H13Y17035   3.967   4.010   8.020 -0.2636  0.1089 -0.1313
  153SAPE  C31417036   4.103   4.138   7.904  0.0014  0.2918  0.0572
  153SAPE  H14X17037   4.058   4.118   7.805  3.6253 -4.7906 -0.9749
  153SAPE  H14Y17038   4.213   4.130   7.888  0.0614 -0.4894  0.7852
  153SAPE  C31517039   4.080   4.278   7.957  0.6423  0.3021 -0.8027
  153SAPE  H15X17040   4.129   4.279   8.057 -0.7913  1.4305 -0.0742
  153SAPE  H15Y17041   3.970   4.285   7.970  0.8189 -0.9407  1.8003
  153SAPE  C31617042   4.132   4.380   7.849 -0.1789 -0.7896  0.0004
  153SAPE  H16X17043   4.226   4.346   7.800  0.0672 -2.6517  1.6314
  153SAPE  H16Y17044   4.151   4.474   7.905 -0.8244 -0.9112  0.4311
  153SAPE  C31717045   4.035   4.417   7.737 -0.6810  0.0977  0.0084
  153SAPE  H17X17046   3.939   4.448   7.782 -0.5193  0.9017 -0.1781
  153SAPE  H17Y17047   4.009   4.326   7.678  1.5239 -0.0462 -0.8294
  153SAPE  C31817048   4.096   4.505   7.630  0.3550 -0.1492 -0.0815
  153SAPE  H18X17049   4.130   4.599   7.678 -0.0592 -0.8959  1.7636
  153SAPE  H18Y17050   4.019   4.534   7.556  3.1386 -0.7164 -3.4791
  153SAPE  H18Z17051   4.184   4.460   7.579 -0.3519 -0.2360 -1.2588
  154SAPE     N17052   3.936   0.818   6.245 -0.5711  0.4555  0.5980
  154SAPE   HN117053   4.008   0.747   6.268  0.0959  1.1321  0.6531
  154SAPE   HN217054   3.941   0.888   6.322 -0.0921  1.7944 -0.6059
  154SAPE   HN317055   3.838   0.788   6.231 -0.3856 -0.1393  0.5291
  154SAPE   C1217056   3.974   0.886   6.122  1.0748  0.2152 -0.0525
  154SAPE  H12A17057   3.890   0.899   6.050 -0.0457  0.5318  1.2788
  154SAPE  H12B17058   4.045   0.818   6.071  0.3031 -0.9862  0.4106
  154SAPE   C1117059   4.042   1.021   6.140 -0.1121  0.1778 -0.1519
  154SAPE  H11A17060   4.069   1.061   6.040  0.0810  0.4690  0.0150
  154SAPE  H11B17061   4.134   0.997   6.197  0.0798 -0.7104 -0.8375
  154SAPE     P17062   3.870   1.218   6.163  0.1942 -0.0840  0.1682
  154SAPE   O1317063   3.914   1.358   6.173 -0.1397 -0.2994 -0.2463
  154SAPE   O1417064   3.837   1.174   6.027  0.0170 -0.1175  0.0454
  154SAPE   O1217065   3.967   1.109   6.226 -0.1423 -0.1348  1.0394
  154SAPE   O1117066   3.737   1.198   6.251 -0.4086 -0.3206 -0.7035
  154SAPE    C117067   3.679   1.076   6.300 -0.4795 -1.0229 -0.3146
  154SAPE    HA17068   3.634   1.014   6.219 -2.3914 -1.4218  0.9796
  154SAPE    HB17069   3.760   1.013   6.342  1.2129  1.8172  0.9688
  154SAPE    C217070   3.589   1.087   6.424  0.0720  0.8169 -0.1109
  154SAPE    HS17071   3.556   1.193   6.431 -1.4559  0.5604 -2.3356
  154SAPE   O2117072   3.669   1.053   6.539 -0.4564  0.3716 -0.1240
  154SAPE   C2117073   3.739   1.156   6.586  0.4544 -0.0120 -0.2079
  154SAPE   O2217074   3.743   1.269   6.545  0.4407 -0.0411  0.7807
  154SAPE   C2217075   3.834   1.111   6.703  0.4751  1.3668 -0.3137
  154SAPE   H2R17076   3.815   1.002   6.716  2.6274  1.0651  0.6121
  154SAPE   H2S17077   3.940   1.139   6.689  0.7000  1.3398  1.1783
  154SAPE    C317078   3.474   0.990   6.419  0.3083  0.4087  0.7063
  154SAPE    HX17079   3.515   0.887   6.407 -1.2965 -0.2798  0.8489
  154SAPE    HY17080   3.413   0.997   6.327  0.7147  1.0561  0.4779
  154SAPE   O3117081   3.396   0.983   6.545  0.2739 -0.5189  0.0858
  154SAPE   C3117082   3.319   1.091   6.561  0.2482 -0.2111  0.1237
  154SAPE   O3217083   3.309   1.190   6.489 -0.2121  0.4094  0.3055
  154SAPE   C3217084   3.238   1.059   6.688 -0.3358 -0.2335  0.0029
  154SAPE   H2X17085   3.278   0.967   6.734  0.8198 -0.2018 -0.8993
  154SAPE   H2Y17086   3.138   1.040   6.644  0.2174 -1.2597 -0.8398
  154SAPE   C2317087   3.778   1.161   6.834 -0.1341 -1.1943 -0.7689
  154SAPE   H3R17088   3.799   1.087   6.914 -0.8868 -1.6768 -1.0045
  154SAPE   H3S17089   3.668   1.171   6.838  0.0300  0.9590 -0.4018
  154SAPE   C2417090   3.843   1.299   6.863 -0.3269 -0.4967 -0.7040
  154SAPE   H4R17091   3.806   1.371   6.787 -0.5690  0.5770  0.4031
  154SAPE   H4S17092   3.952   1.286   6.853 -0.0535 -1.3953  2.4395
  154SAPE   C2517093   3.816   1.366   7.005  0.1500 -0.2047  0.2158
  154SAPE   H5R17094   3.782   1.470   6.995  0.7976 -0.0085 -0.0378
  154SAPE   C2617095   3.826   1.320   7.133  0.1194 -0.3835  0.0262
  154SAPE   H6R17096   3.808   1.392   7.214  0.4220 -1.2468  0.8787
  154SAPE   C2717097   3.879   1.185   7.171  0.2122  0.0441 -0.2878
  154SAPE   H7R17098   3.989   1.187   7.152  0.2814  1.3010  0.1826
  154SAPE   H7S17099   3.853   1.103   7.100  0.9356 -0.3069 -0.1641
  154SAPE   C2817100   3.829   1.130   7.303  0.3322  0.3230  0.2998
  154SAPE   H8R17101   3.749   1.057   7.286 -0.4008  1.5741 -2.1932
  154SAPE   C2917102   3.884   1.150   7.425 -0.0962  0.6089  0.1205
  154SAPE   H9R17103   3.849   1.096   7.515 -0.5715  3.0961  1.5270
  154SAPE  C21017104   4.005   1.233   7.470 -0.3150 -0.0883 -0.2341
  154SAPE  H10R17105   3.979   1.340   7.456 -2.5007 -0.6392 -0.7988
  154SAPE  H10S17106   4.074   1.225   7.383 -1.4432 -2.0122 -1.0334
  154SAPE  C21117107   4.079   1.204   7.593  0.2867  0.6789 -0.1585
  154SAPE  H11R17108   4.139   1.113   7.577 -1.2432 -0.0705 -2.0350
  154SAPE  C21217109   4.081   1.270   7.710  0.0054 -0.1801  0.1481
  154SAPE  H12R17110   4.147   1.239   7.793 -0.9738  2.1411  1.9271
  154SAPE  C21317111   4.004   1.403   7.741  0.1616 -0.0108  0.0994
  154SAPE  H13R17112   3.964   1.400   7.845 -1.3434  1.3283 -0.3990
  154SAPE  H13S17113   3.920   1.402   7.668  1.6999 -3.0448 -1.8363
  154SAPE  C21417114   4.102   1.517   7.716  0.1417 -0.9660 -0.2492
  154SAPE  H14R17115   4.142   1.541   7.616  0.1096  1.7698  0.3070
  154SAPE  C21517116   4.165   1.578   7.813  0.0751 -0.1441  0.7562
  154SAPE  H15R17117   4.231   1.662   7.787  1.3583 -0.5268  2.5768
  154SAPE  C21617118   4.159   1.552   7.966  0.1889 -0.2573  0.0846
  154SAPE  H16R17119   4.242   1.484   7.998  0.5576 -0.4743 -1.2590
  154SAPE  H16S17120   4.063   1.508   7.999  1.4126 -0.8940  3.1805
  154SAPE  C21717121   4.204   1.680   8.042 -0.3009  0.4740  0.1601
  154SAPE  H17R17122   4.304   1.719   8.013  0.6171 -0.6800  1.6027
  154SAPE  H17S17123   4.203   1.652   8.149  2.5070  3.6665  1.1920
  154SAPE  C21817124   4.113   1.801   8.047  0.1756 -0.4781  0.0238
  154SAPE  H18R17125   4.011   1.758   8.036  0.8310 -4.0579  4.9060
  154SAPE  H18S17126   4.122   1.865   7.956  0.8870 -1.6395 -0.7605
  154SAPE  C21917127   4.123   1.884   8.170  0.4446  0.0705  0.1800
  154SAPE  H19R17128   4.095   1.813   8.251 -0.2628  1.0204  0.7883
  154SAPE  H19S17129   4.050   1.967   8.171  0.1427 -0.1894  1.8174
  154SAPE  C22017130   4.259   1.936   8.200 -0.5367 -0.7493 -0.7104
  154SAPE  H20R17131   4.261   1.990   8.297 -1.0106  0.0604 -1.1386
  154SAPE  H20S17132   4.298   2.009   8.126 -1.6256 -0.4438 -0.9955
  154SAPE  H20T17133   4.333   1.853   8.203  0.9725  0.5893  0.7911
  154SAPE   C3317134   3.239   1.164   6.800  0.0035  0.4148 -0.5871
  154SAPE   H3X17135   3.171   1.128   6.879  1.4432 -1.4205 -0.0990
  154SAPE   H3Y17136   3.200   1.253   6.746 -1.2143  0.7085  0.7177
  154SAPE   C3417137   3.383   1.183   6.847 -0.2414 -0.2774  0.4839
  154SAPE   H4X17138   3.455   1.206   6.766  0.4716 -0.0957  1.1600
  154SAPE   H4Y17139   3.417   1.105   6.919  0.6530  1.3913  1.9423
  154SAPE   C3517140   3.381   1.306   6.943  0.5749 -0.2589  1.2393
  154SAPE   H5X17141   3.325   1.386   6.889 -0.8912 -0.7325  2.0285
  154SAPE   H5Y17142   3.483   1.344   6.970 -0.5651  1.1674  3.8954
  154SAPE   C3617143   3.299   1.284   7.079 -0.4136 -0.1164  0.2268
  154SAPE   H6X17144   3.197   1.254   7.046  0.2714  0.9738 -3.4381
  154SAPE   H6Y17145   3.300   1.383   7.129  0.5191  0.8039 -1.5026
  154SAPE   C3717146   3.365   1.175   7.169  0.2375 -0.1876 -0.4460
  154SAPE   H7X17147   3.475   1.190   7.171  0.0553  1.3093  1.0031
  154SAPE   H7Y17148   3.344   1.072   7.135 -3.9245  1.4545 -3.7069
  154SAPE   C3817149   3.341   1.213   7.318 -0.6625  1.3732 -0.3312
  154SAPE   H8X17150   3.231   1.206   7.336 -0.4793 -1.7329  0.1178
  154SAPE   H8Y17151   3.372   1.318   7.332  1.3384  0.8912 -0.7698
  154SAPE   C3917152   3.406   1.102   7.409 -0.0033 -0.2296 -0.8453
  154SAPE   H9X17153   3.508   1.073   7.376 -0.7949 -0.2149 -3.5062
  154SAPE   H9Y17154   3.341   1.014   7.389 -0.9079 -0.1250  1.3252
  154SAPE  C31017155   3.417   1.136   7.560  0.2961 -0.5079  0.4912
  154SAPE  H10X17156   3.474   1.227   7.584  1.7998 -1.4802  0.7273
  154SAPE  H10Y17157   3.465   1.048   7.608 -0.7039 -0.2280  2.0897
  154SAPE  C31117158   3.280   1.159   7.625 -0.0997  0.4316 -0.0977
  154SAPE  H11X17159   3.210   1.079   7.595 -1.8531  1.4473  1.1202
  154SAPE  H11Y17160   3.233   1.255   7.596 -1.7659 -0.0529  0.8889
  154SAPE  C31217161   3.295   1.144   7.774 -0.4446 -0.2911 -1.1676
  154SAPE  H12X17162   3.387   1.084   7.793  0.2784  0.8056 -1.0761
  154SAPE  H12Y17163   3.203   1.103   7.821 -0.2670  0.4418 -0.1239
  154SAPE  C31317164   3.317   1.276   7.842  0.0703  0.1725 -0.3323
  154SAPE  H13X17165   3.228   1.341   7.829 -0.3283 -0.0890  0.9232
  154SAPE  H13Y17166   3.404   1.336   7.809  0.2868  0.6745  1.0805
  154SAPE  C31417167   3.331   1.276   7.999  0.5401  0.5229 -0.0407
  154SAPE  H14X17168   3.232   1.257   8.047  1.3893 -1.5043  1.0535
  154SAPE  H14Y17169   3.367   1.379   8.018 -1.7033  1.2474  0.6238
  154SAPE  C31517170   3.409   1.159   8.063  0.4881 -0.5689  0.3210
  154SAPE  H15X17171   3.503   1.144   8.006  0.4819  1.4083 -0.3002
  154SAPE  H15Y17172   3.356   1.064   8.046  2.0508 -1.3446 -0.4311
  154SAPE  C31617173   3.443   1.191   8.211  0.3800  0.5934 -0.6374
  154SAPE  H16X17174   3.515   1.275   8.219  2.5694 -1.2407 -0.0094
  154SAPE  H16Y17175   3.506   1.108   8.249  0.3077  0.7068 -0.2593
  154SAPE  C31717176   3.318   1.201   8.309  0.1201  0.0959  1.1178
  154SAPE  H17X17177   3.254   1.286   8.279  0.9559  0.3658  0.0118
  154SAPE  H17Y17178   3.367   1.226   8.406 -0.2366  1.4625  0.9679
  154SAPE  C31817179   3.229   1.071   8.307 -1.2114  0.0409 -0.4350
  154SAPE  H18X17180   3.293   0.984   8.330 -1.8763 -0.0462  1.2170
  154SAPE  H18Y17181   3.181   1.058   8.207 -1.4901  2.0025 -0.5962
  154SAPE  H18Z17182   3.158   1.082   8.392  0.1277  0.9468  0.6152
  155SAPE     N17183   3.502   6.600   6.294  0.1568  0.1570  0.1994
  155SAPE   HN117184   3.426   6.575   6.228 -1.4020 -3.2142  2.9438
  155SAPE   HN217185   3.566   6.666   6.247  0.7891 -0.8002 -0.3238
  155SAPE   HN317186   3.552   6.516   6.331 -1.4604 -0.4680  1.0617
  155SAPE   C1217187   3.454   6.683   6.408 -0.0110  0.3690  0.0374
  155SAPE  H12A17188   3.544   6.710   6.467  0.3660  1.6008 -1.0450
  155SAPE  H12B17189   3.381   6.636   6.477  1.8277  0.2737  2.0535
  155SAPE   C1117190   3.396   6.817   6.369  0.1824  0.3832 -0.3957
  155SAPE  H11A17191   3.472   6.869   6.306  2.4936 -0.5737  1.4354
  155SAPE  H11B17192   3.399   6.879   6.461  1.4698  0.2756 -0.3391
  155SAPE     P17193   3.196   6.942   6.258 -0.2126  0.0691 -0.4133
  155SAPE   O1317194   3.280   7.013   6.159  0.0596 -0.2872  0.1251
  155SAPE   O1417195   3.061   6.909   6.216  0.3842 -0.1173 -0.1461
  155SAPE   O1217196   3.267   6.812   6.310 -0.4879 -0.6474 -0.3305
  155SAPE   O1117197   3.185   7.029   6.390 -0.4071  0.1290 -0.0124
  155SAPE    C117198   3.096   6.977   6.492  0.3170 -0.2746  0.1377
  155SAPE    HA17199   2.990   7.004   6.470  0.5851 -0.6089 -1.6678
  155SAPE    HB17200   3.095   6.866   6.490 -2.6193 -0.3305 -2.2598
  155SAPE    C217201   3.131   7.017   6.638  0.4886 -0.2110 -0.4697
  155SAPE    HS17202   3.233   6.980   6.662  0.8448 -0.1128 -1.7910
  155SAPE   O2117203   3.029   6.971   6.729 -0.0314  0.4683  0.2971
  155SAPE   C2117204   3.050   6.852   6.781  0.4116 -0.0899  0.3722
  155SAPE   O2217205   3.148   6.786   6.754  0.0917  0.1049  0.0938
  155SAPE   C2217206   2.941   6.818   6.886  0.1731  0.4547  0.5290
  155SAPE   H2R17207   2.856   6.772   6.833  0.9461  0.5222 -0.8091
  155SAPE   H2S17208   2.991   6.741   6.949  1.3863 -0.2897 -1.2832
  155SAPE    C317209   3.131   7.173   6.645 -0.5193  0.1042  0.4201
  155SAPE    HX17210   3.033   7.213   6.611 -0.5458  0.5206  0.9677
  155SAPE    HY17211   3.206   7.201   6.568  0.3754 -1.8083  0.5373
  155SAPE   O3117212   3.169   7.212   6.777 -0.1282  0.0822 -0.0470
  155SAPE   C3117213   3.075   7.281   6.847  0.6505 -0.7987  0.2008
  155SAPE   O3217214   2.957   7.301   6.811 -0.4799 -0.1190 -0.0198
  155SAPE   C3217215   3.137   7.316   6.979 -0.3592  0.6958  0.1350
  155SAPE   H2X17216   3.246   7.326   6.964 -0.3153  0.3390  0.2185
  155SAPE   H2Y17217   3.122   7.225   7.040  2.0088 -0.9168 -1.5410
  155SAPE   C2317218   2.906   6.936   6.978  0.0310  0.3581  0.2376
  155SAPE   H3R17219   2.987   7.011   6.961 -0.2070  0.1647 -2.1061
  155SAPE   H3S17220   2.917   6.900   7.082  0.3361 -1.8626 -0.5111
  155SAPE   C2417221   2.772   6.995   6.944 -0.7833 -0.5311  0.5510
  155SAPE   H4R17222   2.690   6.931   6.984 -1.2554 -0.4143 -0.1909
  155SAPE   H4S17223   2.749   6.993   6.835  0.4465  0.5362  0.2450
  155SAPE   C2517224   2.769   7.137   6.983  1.0148 -0.1366 -1.1640
  155SAPE   H5R17225   2.749   7.200   6.895  0.6650  0.4918 -0.6492
  155SAPE   C2617226   2.751   7.189   7.107  0.6527  0.0057  0.6110
  155SAPE   H6R17227   2.727   7.296   7.112 -0.2676 -0.2621  3.1899
  155SAPE   C2717228   2.745   7.119   7.237 -0.1310 -0.0314  0.1305
  155SAPE   H7R17229   2.784   7.015   7.225 -1.9537 -0.9266  1.5774
  155SAPE   H7S17230   2.641   7.114   7.275  0.0538  1.2852  0.8510
  155SAPE   C2817231   2.830   7.184   7.342 -0.2197  0.5570  0.0386
  155SAPE   H8R17232   2.907   7.253   7.305  0.7425  0.6760  2.0997
  155SAPE   C2917233   2.826   7.167   7.476  0.7190 -0.7812 -0.0923
  155SAPE   H9R17234   2.909   7.208   7.536  0.4876  0.0790 -0.3441
  155SAPE  C21017235   2.733   7.079   7.558 -0.5250 -0.0602 -0.2730
  155SAPE  H10R17236   2.782   6.986   7.592  0.3103 -0.0988 -1.5245
  155SAPE  H10S17237   2.659   7.024   7.497 -1.8425 -3.3931  3.8458
  155SAPE  C21117238   2.672   7.156   7.673  0.0377 -0.2353 -0.2035
  155SAPE  H11R17239   2.638   7.256   7.641  0.4624 -0.2753 -0.7741
  155SAPE  C21217240   2.678   7.130   7.803 -0.2650 -0.0910 -0.4693
  155SAPE  H12R17241   2.635   7.208   7.868  0.3767  0.5236 -0.7664
  155SAPE  C21317242   2.754   7.015   7.873 -0.1983  0.1869 -0.2886
  155SAPE  H13R17243   2.854   7.005   7.825 -1.3745  1.0844 -3.1917
  155SAPE  H13S17244   2.697   6.920   7.863 -1.6286  1.0926 -1.1589
  155SAPE  C21417245   2.775   7.037   8.022  0.5451 -0.3556 -0.2753
  155SAPE  H14R17246   2.689   7.007   8.084 -1.1678 -0.1294 -2.4386
  155SAPE  C21517247   2.888   7.086   8.081 -0.4818 -0.1956 -0.0858
  155SAPE  H15R17248   2.889   7.098   8.190 -0.2728 -1.2676  0.0405
  155SAPE  C21617249   3.019   7.133   8.022 -0.5919 -1.0344 -0.0956
  155SAPE  H16R17250   2.995   7.230   7.974 -1.6731 -1.0133  0.4397
  155SAPE  H16S17251   3.040   7.074   7.930 -2.0973 -1.0515 -0.4540
  155SAPE  C21717252   3.128   7.142   8.137 -0.2229 -0.4948 -0.7223
  155SAPE  H17R17253   3.228   7.142   8.090  0.5045 -0.2889  0.7761
  155SAPE  H17S17254   3.124   7.049   8.196  0.0659  0.9471  1.7063
  155SAPE  C21817255   3.110   7.262   8.231  0.2180  0.2084 -0.5395
  155SAPE  H18R17256   3.001   7.275   8.248  0.5012  1.9150  0.1562
  155SAPE  H18S17257   3.143   7.355   8.181 -2.4839  0.0486 -2.9261
  155SAPE  C21917258   3.185   7.239   8.362 -0.0323  0.0253  0.4611
  155SAPE  H19R17259   3.145   7.155   8.422  0.3517 -1.0827 -0.7972
  155SAPE  H19S17260   3.167   7.321   8.435  2.4146  0.4585  0.6679
  155SAPE  C22017261   3.338   7.222   8.339  0.3617  1.0167  0.4363
  155SAPE  H20R17262   3.402   7.253   8.425  1.6254 -0.8054  0.2064
  155SAPE  H20S17263   3.377   7.294   8.263  0.3522  1.0566  0.4688
  155SAPE  H20T17264   3.355   7.120   8.299  0.5582  1.8826 -1.8304
  155SAPE   C3317265   3.093   7.444   7.058  0.4672 -0.5486  0.4055
  155SAPE   H3X17266   3.024   7.407   7.136  1.6931 -2.8157  0.5168
  155SAPE   H3Y17267   3.035   7.519   7.000  0.9463 -0.4934 -0.0062
  155SAPE   C3417268   3.200   7.523   7.131 -0.4330 -0.5341 -0.4851
  155SAPE   H4X17269   3.248   7.594   7.060 -2.8287  0.2905 -1.3586
  155SAPE   H4Y17270   3.286   7.461   7.166  2.1018  2.6562 -0.5686
  155SAPE   C3517271   3.146   7.588   7.258 -0.2935 -0.2197  0.2415
  155SAPE   H5X17272   3.043   7.624   7.235  0.4546 -0.1951 -3.8243
  155SAPE   H5Y17273   3.198   7.686   7.261  1.2711 -1.0502  1.9482
  155SAPE   C3617274   3.152   7.507   7.391 -0.0638  0.4232  0.5126
  155SAPE   H6X17275   3.260   7.495   7.414  0.0837  1.2410  0.3015
  155SAPE   H6Y17276   3.109   7.406   7.376  0.5853 -0.4367  3.7091
  155SAPE   C3717277   3.078   7.580   7.504 -0.2723  0.9067 -0.2240
  155SAPE   H7X17278   2.970   7.564   7.485  0.0756  0.4629 -2.0022
  155SAPE   H7Y17279   3.108   7.686   7.517  0.8552  0.5939 -0.1551
  155SAPE   C3817280   3.107   7.502   7.640  0.3731 -0.3474  0.2701
  155SAPE   H8X17281   3.126   7.395   7.618  2.0871  0.1287 -0.7212
  155SAPE   H8Y17282   3.011   7.514   7.695 -0.8364  2.2168 -2.0974
  155SAPE   C3917283   3.220   7.568   7.714 -0.8858 -0.2329  0.1357
  155SAPE   H9X17284   3.208   7.678   7.729 -2.2840 -0.0965 -1.6195
  155SAPE   H9Y17285   3.316   7.559   7.658 -1.5182 -2.5549 -0.6578
  155SAPE  C31017286   3.246   7.507   7.853  0.6406 -0.0832 -0.0027
  155SAPE  H10X17287   3.259   7.398   7.839  0.4568  0.0403 -1.2563
  155SAPE  H10Y17288   3.152   7.517   7.912  2.2566  2.0346  2.4623
  155SAPE  C31117289   3.353   7.571   7.933 -0.1679  0.1237 -0.4978
  155SAPE  H11X17290   3.332   7.677   7.961  2.9239  0.9825 -0.9826
  155SAPE  H11Y17291   3.451   7.572   7.880  1.3702  2.1026  2.0820
  155SAPE  C31217292   3.394   7.504   8.063 -0.0808 -0.2341  0.1717
  155SAPE  H12X17293   3.446   7.409   8.040 -0.3337 -0.1645 -0.7250
  155SAPE  H12Y17294   3.307   7.490   8.131  1.0889  0.4624  1.8675
  155SAPE  C31317295   3.497   7.597   8.141  0.0238  0.8976  0.6788
  155SAPE  H13X17296   3.446   7.691   8.173 -1.2875 -0.0132  1.3597
  155SAPE  H13Y17297   3.579   7.628   8.073 -0.0338  1.4549  0.8608
  155SAPE  C31417298   3.547   7.539   8.271 -1.1648  0.2047 -0.8636
  155SAPE  H14X17299   3.457   7.493   8.316 -0.3358 -0.9123 -0.2737
  155SAPE  H14Y17300   3.589   7.619   8.335 -0.1838 -0.7255 -0.3181
  155SAPE  C31517301   3.637   7.416   8.250 -0.2443 -0.2642 -1.0448
  155SAPE  H15X17302   3.599   7.361   8.161 -0.4203 -1.1051 -0.4561
  155SAPE  H15Y17303   3.646   7.358   8.344 -0.2469 -1.0439 -1.5176
  155SAPE  C31617304   3.777   7.453   8.197 -0.6844 -0.4694  0.1249
  155SAPE  H16X17305   3.781   7.494   8.093 -1.0339 -2.3197 -0.6650
  155SAPE  H16Y17306   3.825   7.353   8.202 -0.1444 -0.1503  2.1904
  155SAPE  C31717307   3.871   7.555   8.286  0.2488  0.0926  0.1925
  155SAPE  H17X17308   3.883   7.523   8.391  2.4635  2.0863  0.6291
  155SAPE  H17Y17309   3.825   7.656   8.292  3.2325  1.5801 -0.0836
  155SAPE  C31817310   4.006   7.591   8.214  0.6402 -0.3189  0.0103
  155SAPE  H18X17311   3.972   7.620   8.113  0.3096 -0.1388  0.1701
  155SAPE  H18Y17312   4.086   7.514   8.218 -0.0125 -1.2044 -2.3621
  155SAPE  H18Z17313   4.041   7.684   8.264 -0.1546  1.2262 -2.1696
  156SAPE     N17314   1.365   0.811   6.481  0.0903 -0.3456  0.2352
  156SAPE   HN117315   1.428   0.805   6.398 -1.6269 -0.9742 -1.0899
  156SAPE   HN217316   1.270   0.773   6.463 -0.3140 -0.0067  1.5618
  156SAPE   HN317317   1.353   0.911   6.504  1.1200 -0.2453  0.4072
  156SAPE   C1217318   1.436   0.737   6.590 -0.3405 -0.2575  0.4731
  156SAPE  H12A17319   1.373   0.702   6.674  1.3186 -3.2546  0.6158
  156SAPE  H12B17320   1.506   0.811   6.635 -1.0521 -1.2349  3.3384
  156SAPE   C1117321   1.511   0.620   6.531 -0.6579 -0.5658 -0.9717
  156SAPE  H11A17322   1.546   0.562   6.619 -1.3982 -1.2045 -1.0907
  156SAPE  H11B17323   1.603   0.649   6.476  2.1025  0.0589  3.4813
  156SAPE     P17324   1.362   0.407   6.492 -0.2990  0.9530 -0.0418
  156SAPE   O1317325   1.217   0.407   6.500 -0.0540  0.1761  0.2725
  156SAPE   O1417326   1.428   0.307   6.404  0.2310 -0.0415 -1.0978
  156SAPE   O1217327   1.417   0.550   6.453 -0.0304  0.1186 -0.1333
  156SAPE   O1117328   1.417   0.380   6.639 -0.2404  0.1070 -0.1090
  156SAPE    C117329   1.384   0.279   6.728  0.3848 -0.0135  0.1580
  156SAPE    HA17330   1.298   0.217   6.695  0.5159 -1.1251  1.7983
  156SAPE    HB17331   1.465   0.203   6.724 -0.5617 -1.1797  1.8452
  156SAPE    C217332   1.363   0.321   6.878 -0.7991 -0.0599 -0.9363
  156SAPE    HS17333   1.275   0.388   6.885 -0.7431  0.2544 -2.6727
  156SAPE   O2117334   1.486   0.387   6.920 -0.5989 -0.3178  0.0243
  156SAPE   C2117335   1.480   0.523   6.912 -0.7611 -0.1140 -0.0587
  156SAPE   O2217336   1.394   0.591   6.864  0.1017  0.0705 -0.3459
  156SAPE   C2217337   1.612   0.575   6.976  0.0041 -0.6953 -0.2203
  156SAPE   H2R17338   1.591   0.610   7.079 -1.4689 -4.8548  1.1005
  156SAPE   H2S17339   1.680   0.489   6.993  1.6272  0.6834  0.4973
  156SAPE    C317340   1.335   0.207   6.973  0.3986 -0.3692 -0.1556
  156SAPE    HX17341   1.414   0.131   6.954  1.4192 -0.1724  2.8244
  156SAPE    HY17342   1.233   0.167   6.954  0.4130 -1.0528  1.1062
  156SAPE   O3117343   1.331   0.259   7.112  0.9756 -0.1056  0.3399
  156SAPE   C3117344   1.340   0.157   7.200  0.6995 -0.4015 -0.3947
  156SAPE   O3217345   1.341   0.040   7.167  0.5413 -0.2943 -0.4302
  156SAPE   C3217346   1.348   0.208   7.341 -0.1720  0.0131 -0.4264
  156SAPE   H2X17347   1.260   0.276   7.348 -0.4040 -0.4043  0.8506
  156SAPE   H2Y17348   1.442   0.267   7.342 -0.3053  0.2218  0.7787
  156SAPE   C2317349   1.674   0.684   6.893  0.0350 -0.2062 -0.2458
  156SAPE   H3R17350   1.619   0.779   6.907  2.3270  1.1253  0.2305
  156SAPE   H3S17351   1.670   0.658   6.785  0.9811  2.5361 -1.0265
  156SAPE   C2417352   1.828   0.712   6.932 -0.4854  0.5582 -0.3200
  156SAPE   H4R17353   1.839   0.774   7.023  2.6024 -1.2619  0.6737
  156SAPE   H4S17354   1.880   0.777   6.859  1.5042 -0.1289  0.4410
  156SAPE   C2517355   1.912   0.588   6.943 -0.4212  0.5677 -0.3474
  156SAPE   H5R17356   1.916   0.529   6.851  2.3409  0.2151 -0.1076
  156SAPE   C2617357   1.967   0.537   7.061  0.3609 -0.6735  0.4064
  156SAPE   H6R17358   2.026   0.444   7.058  1.9069  0.2799 -0.7462
  156SAPE   C2717359   1.959   0.602   7.200 -0.1799 -0.1570 -0.0059
  156SAPE   H7R17360   1.936   0.513   7.264  0.9106 -0.3154  0.1839
  156SAPE   H7S17361   1.871   0.668   7.212  0.9139  1.5484 -0.9952
  156SAPE   C2817362   2.076   0.679   7.253 -0.2385  0.7793  0.1873
  156SAPE   H8R17363   2.150   0.712   7.179 -0.0731  0.8419  0.3789
  156SAPE   C2917364   2.104   0.711   7.383 -0.5525 -0.1671 -0.6476
  156SAPE   H9R17365   2.200   0.761   7.405  1.4444 -3.6374 -0.7008
  156SAPE  C21017366   2.017   0.671   7.496 -0.2866 -1.2511 -0.4576
  156SAPE  H10R17367   1.911   0.660   7.465 -0.4739 -1.9225  0.3860
  156SAPE  H10S17368   2.024   0.751   7.573  0.5202 -0.8337 -0.9540
  156SAPE  C21117369   2.049   0.541   7.558  0.2385  0.1815  0.6116
  156SAPE  H11R17370   2.079   0.470   7.480 -0.7816  0.8735 -0.4302
  156SAPE  C21217371   2.057   0.513   7.690  0.7789  0.3386  0.4930
  156SAPE  H12R17372   2.085   0.410   7.718 -1.2834  0.0837  1.8149
  156SAPE  C21317373   2.021   0.604   7.800 -0.3160  0.3016 -0.1189
  156SAPE  H13R17374   1.974   0.556   7.889 -0.4783  1.5535  0.4943
  156SAPE  H13S17375   1.935   0.667   7.769  0.1336  0.8837 -0.2057
  156SAPE  C21417376   2.137   0.686   7.847 -0.6785 -0.1715  0.4446
  156SAPE  H14R17377   2.147   0.788   7.807  1.4604  1.6205  4.8353
  156SAPE  C21517378   2.228   0.652   7.945  0.0819 -0.2283  0.2664
  156SAPE  H15R17379   2.317   0.713   7.965  0.5204 -0.8322  0.1945
  156SAPE  C21617380   2.230   0.534   8.036 -0.0709 -1.0965 -0.1144
  156SAPE  H16R17381   2.134   0.482   8.054 -1.2275  2.0869  5.0454
  156SAPE  H16S17382   2.274   0.575   8.130  1.3664  0.2975 -1.3220
  156SAPE  C21717383   2.337   0.427   7.990 -0.1793 -1.2372  0.6482
  156SAPE  H17R17384   2.431   0.478   7.959  0.4325 -0.8682  2.9207
  156SAPE  H17S17385   2.286   0.379   7.904  1.2969  0.3584 -1.1847
  156SAPE  C21817386   2.364   0.330   8.100  0.7960 -0.0608  0.8293
  156SAPE  H18R17387   2.429   0.250   8.059 -1.1070 -2.3198  2.0021
  156SAPE  H18S17388   2.273   0.273   8.126 -0.1415  0.1532 -1.7075
  156SAPE  C21917389   2.449   0.383   8.221  0.3808 -0.4043 -0.3633
  156SAPE  H19R17390   2.477   0.299   8.288 -1.3237 -0.5024  0.2691
  156SAPE  H19S17391   2.377   0.447   8.277  0.3557  0.0583 -0.9107
  156SAPE  C22017392   2.567   0.478   8.178 -0.3330 -0.5854  0.8502
  156SAPE  H20R17393   2.611   0.522   8.270 -2.0228  1.9749  0.5451
  156SAPE  H20S17394   2.530   0.563   8.117 -0.9352 -0.5566  1.2396
  156SAPE  H20T17395   2.631   0.415   8.114 -1.5541 -0.3646 -0.6673
  156SAPE   C3317396   1.348   0.092   7.445 -0.3553  0.5409  0.6176
  156SAPE   H3X17397   1.410   0.006   7.411 -1.5461 -0.2288  0.3219
  156SAPE   H3Y17398   1.244   0.057   7.459  0.2169 -1.7402 -0.3586
  156SAPE   C3417399   1.409   0.136   7.572  0.2052 -0.1474  0.4966
  156SAPE   H4X17400   1.337   0.215   7.605 -0.5048 -1.2458  1.6772
  156SAPE   H4Y17401   1.511   0.178   7.565 -0.3507  1.6146  1.9892
  156SAPE   C3517402   1.424   0.022   7.680  0.5528 -0.0005 -0.1688
  156SAPE   H5X17403   1.502  -0.053   7.654  1.4012  0.7981  0.0348
  156SAPE   H5Y17404   1.331  -0.040   7.679 -0.1682  1.0285 -1.7360
  156SAPE   C3617405   1.461   0.078   7.816 -0.2849 -0.0870 -0.5295
  156SAPE   H6X17406   1.372   0.120   7.866 -1.8705  0.5845 -3.6173
  156SAPE   H6Y17407   1.528   0.166   7.808 -2.0957  1.2215 -2.0697
  156SAPE   C3717408   1.519  -0.029   7.907 -0.1097  0.5197 -0.4753
  156SAPE   H7X17409   1.624  -0.059   7.887 -0.8782 -2.2110 -0.9057
  156SAPE   H7Y17410   1.464  -0.126   7.898  0.5763 -0.3358  3.1529
  156SAPE   C3817411   1.508   0.008   8.055  0.6847 -0.9144 -0.3874
  156SAPE   H8X17412   1.408   0.052   8.077  0.2331 -1.3872 -1.3988
  156SAPE   H8Y17413   1.589   0.078   8.085 -0.7205  1.1331 -1.1232
  156SAPE   C3917414   1.525  -0.110   8.148  0.5344  0.2589 -0.1834
  156SAPE   H9X17415   1.627  -0.150   8.137  0.5535  0.0987  0.5152
  156SAPE   H9Y17416   1.452  -0.189   8.122  1.4986  0.0234 -2.3405
  156SAPE  C31017417   1.521  -0.071   8.297 -0.0775 -0.0784  0.6624
  156SAPE  H10X17418   1.412  -0.086   8.315 -0.0179 -1.8317 -0.1825
  156SAPE  H10Y17419   1.553   0.031   8.324  0.8140 -0.3693  0.7347
  156SAPE  C31117420   1.598  -0.177   8.376  0.4661  0.8029  0.6239
  156SAPE  H11X17421   1.707  -0.156   8.364  0.5785  0.7980  1.5658
  156SAPE  H11Y17422   1.588  -0.275   8.324 -0.2446  0.0461  2.1167
  156SAPE  C31217423   1.561  -0.204   8.527  0.7987  0.3647 -0.8416
  156SAPE  H12X17424   1.616  -0.298   8.549  1.0087  0.9092  1.0862
  156SAPE  H12Y17425   1.455  -0.234   8.539  1.4302 -1.5900  0.2747
  156SAPE  C31317426   1.609  -0.091   8.616 -0.1713 -0.0204  0.3183
  156SAPE  H13X17427   1.580   0.005   8.568  1.7989  0.5067  0.1166
  156SAPE  H13Y17428   1.719  -0.083   8.629  0.0685 -0.9163 -0.9874
  156SAPE  C31417429   1.548  -0.092   8.756 -0.1391  0.2774 -0.1222
  156SAPE  H14X17430   1.591  -0.181   8.807 -0.4410 -0.2931 -0.8447
  156SAPE  H14Y17431   1.438  -0.108   8.750 -0.1470  0.7508 -2.2260
  156SAPE  C31517432   1.580   0.036   8.834  0.8032 -0.7460  0.3171
  156SAPE  H15X17433   1.556   0.126   8.774  1.8845 -0.3212  0.5012
  156SAPE  H15Y17434   1.689   0.038   8.857  0.1509 -1.3008  4.0289
  156SAPE  C31617435   1.489   0.061   8.955  0.0364  0.3456 -0.1594
  156SAPE  H16X17436   1.520  -0.007   9.038 -0.4119 -1.9748 -1.7876
  156SAPE  H16Y17437   1.385   0.027   8.934 -0.2845  0.8018  0.6410
  156SAPE  C31717438   1.489   0.202   9.015  0.1492 -0.3897 -0.7663
  156SAPE  H17X17439   1.465   0.274   8.933  0.0788  0.2333 -0.2075
  156SAPE  H17Y17440   1.589   0.215   9.062 -0.7780  0.4130  1.1071
  156SAPE  C31817441   1.382   0.231   9.123 -0.0580  0.3010  0.2734
  156SAPE  H18X17442   1.413   0.172   9.213 -1.6568  1.5527  1.7172
  156SAPE  H18Y17443   1.282   0.193   9.095  0.6478 -1.2961 -0.2408
  156SAPE  H18Z17444   1.387   0.340   9.144 -2.5967  1.4375 -3.9798
  157SAPE     N17445   5.329   2.993   5.771 -0.0642 -0.5017 -0.3945
  157SAPE   HN117446   5.386   2.955   5.694  2.4422 -0.1788  1.1853
  157SAPE   HN217447   5.227   2.972   5.761 -0.5084  0.9152  0.6391
  157SAPE   HN317448   5.344   3.096   5.771 -0.3818 -0.4166  1.4024
  157SAPE   C1217449   5.376   2.962   5.905  0.7000  0.7325 -0.7095
  157SAPE  H12A17450   5.397   2.853   5.915  1.5479  1.0904  2.4762
  157SAPE  H12B17451   5.301   2.998   5.979  0.5753 -1.3042  0.2191
  157SAPE   C1117452   5.520   3.035   5.914  0.4379 -0.5502 -1.0170
  157SAPE  H11A17453   5.580   3.001   5.826  2.1118 -2.2347  0.6980
  157SAPE  H11B17454   5.568   2.993   6.004 -1.1522 -4.0296 -1.6407
  157SAPE     P17455   5.565   3.282   6.007 -0.5869  0.2070 -0.2414
  157SAPE   O1317456   5.705   3.295   5.967  0.6768 -0.1854 -0.2002
  157SAPE   O1417457   5.490   3.406   6.023 -0.2199  0.0541  0.5127
  157SAPE   O1217458   5.502   3.181   5.905 -0.0218 -0.0969 -0.6012
  157SAPE   O1117459   5.564   3.207   6.145 -0.1923  0.5779 -0.3658
  157SAPE    C117460   5.444   3.140   6.202  0.5028  0.1458 -0.1434
  157SAPE    HA17461   5.348   3.193   6.183  1.5647  1.7625 -1.2563
  157SAPE    HB17462   5.437   3.036   6.161 -3.2581 -0.2989  1.2586
  157SAPE    C217463   5.468   3.139   6.356  0.9782 -0.3477 -0.2856
  157SAPE    HS17464   5.361   3.147   6.385  0.6929  3.5311 -1.8039
  157SAPE   O2117465   5.543   3.248   6.406 -0.0953 -0.1713  0.7086
  157SAPE   C2117466   5.472   3.361   6.405  0.6838 -0.0974  0.3961
  157SAPE   O2217467   5.356   3.368   6.372 -0.0539 -0.0974 -0.0069
  157SAPE   C2217468   5.557   3.476   6.468  0.1023  0.0965  0.6711
  157SAPE   H2R17469   5.637   3.420   6.521 -0.6530 -1.8027 -0.1392
  157SAPE   H2S17470   5.609   3.526   6.383 -0.9057  0.1486  0.0686
  157SAPE    C317471   5.539   3.003   6.397  0.1663 -0.5579  0.0187
  157SAPE    HX17472   5.645   3.034   6.407  0.1366  0.1971 -1.6759
  157SAPE    HY17473   5.540   2.929   6.314  0.8325 -0.7751  0.2213
  157SAPE   O3117474   5.484   2.941   6.522 -0.0026 -0.7563  0.0149
  157SAPE   C3117475   5.559   2.842   6.564  0.2656  0.1395  0.2242
  157SAPE   O3217476   5.666   2.808   6.514  0.7768  0.1174 -0.3473
  157SAPE   C3217477   5.483   2.783   6.692  0.2628 -0.5740  0.1674
  157SAPE   H2X17478   5.375   2.787   6.668 -0.3707 -1.5889  2.5543
  157SAPE   H2Y17479   5.515   2.852   6.773 -0.6599 -0.5744  0.5363
  157SAPE   C2317480   5.494   3.566   6.577  0.6309  0.0796 -0.7425
  157SAPE   H3R17481   5.414   3.508   6.629  1.3837 -0.1655  0.1718
  157SAPE   H3S17482   5.447   3.651   6.525 -0.1694 -0.4295 -0.8648
  157SAPE   C2417483   5.587   3.614   6.694 -0.4303  0.4452  0.2580
  157SAPE   H4R17484   5.647   3.697   6.650  0.5496 -1.3625 -1.9783
  157SAPE   H4S17485   5.650   3.523   6.704 -0.4670  0.4367  0.4246
  157SAPE   C2517486   5.503   3.653   6.813 -0.4366 -0.1371 -0.6150
  157SAPE   H5R17487   5.441   3.742   6.797  0.1497  0.6402  1.2151
  157SAPE   C2617488   5.497   3.593   6.935  0.1999  0.6961  0.7495
  157SAPE   H6R17489   5.410   3.621   6.996 -1.3454  1.2090 -1.5409
  157SAPE   C2717490   5.577   3.469   6.974 -0.1970 -1.4494 -0.0985
  157SAPE   H7R17491   5.665   3.448   6.909 -0.6291  1.4787 -1.7601
  157SAPE   H7S17492   5.513   3.378   6.969 -0.4797 -1.2674  0.1977
  157SAPE   C2817493   5.625   3.485   7.114  0.3473 -0.3434  0.7521
  157SAPE   H8R17494   5.705   3.560   7.124  0.8536 -0.7687  0.0169
  157SAPE   C2917495   5.570   3.424   7.227 -0.5743 -0.5451 -0.1297
  157SAPE   H9R17496   5.624   3.439   7.322  1.4324  1.0242 -1.4513
  157SAPE  C21017497   5.463   3.322   7.236  0.7652  0.3930  0.2580
  157SAPE  H10R17498   5.491   3.230   7.291 -1.1444 -0.8952 -0.7913
  157SAPE  H10S17499   5.448   3.281   7.134  0.0851  0.5605  0.2860
  157SAPE  C21117500   5.325   3.383   7.271  0.0092 -0.1169 -0.4368
  157SAPE  H11R17501   5.281   3.448   7.195 -0.9150  0.8947  0.9066
  157SAPE  C21217502   5.268   3.382   7.395 -0.3472 -0.2465  0.1499
  157SAPE  H12R17503   5.172   3.434   7.400 -2.0839 -2.9199 -2.2438
  157SAPE  C21317504   5.326   3.316   7.524  0.2304 -0.1018  0.0459
  157SAPE  H13R17505   5.425   3.366   7.530  0.2016  0.3914 -2.3881
  157SAPE  H13S17506   5.355   3.212   7.498 -0.5506 -0.7857  1.7914
  157SAPE  C21417507   5.233   3.317   7.640  1.1864  0.4684  0.0359
  157SAPE  H14R17508   5.139   3.368   7.615  0.4782 -1.7804 -2.2795
  157SAPE  C21517509   5.253   3.250   7.756 -0.1289  0.4146 -0.4534
  157SAPE  H15R17510   5.174   3.266   7.830  0.6049  0.7975  0.2687
  157SAPE  C21617511   5.367   3.160   7.783  0.0825 -0.5147 -0.0799
  157SAPE  H16R17512   5.456   3.224   7.801 -0.7575  0.9345 -0.8907
  157SAPE  H16S17513   5.394   3.094   7.698  1.0007 -2.6436  1.7759
  157SAPE  C21717514   5.336   3.087   7.920 -0.0336 -0.6615  0.0072
  157SAPE  H17R17515   5.253   3.016   7.899 -0.7808  0.0982  0.3030
  157SAPE  H17S17516   5.296   3.162   7.992 -2.5620 -1.3045 -0.6164
  157SAPE  C21817517   5.460   3.021   7.974  0.5660  0.0942  0.0503
  157SAPE  H18R17518   5.540   3.092   8.004  0.2047  0.1168  0.9852
  157SAPE  H18S17519   5.498   2.949   7.898 -0.9816 -0.1440 -0.5333
  157SAPE  C21917520   5.417   2.943   8.107  0.3681  0.6317 -0.0800
  157SAPE  H19R17521   5.350   2.860   8.076  0.6130 -0.5448  2.3055
  157SAPE  H19S17522   5.371   3.012   8.180  0.7146  1.7492 -0.8929
  157SAPE  C22017523   5.535   2.882   8.174 -0.6886  0.2805 -0.4628
  157SAPE  H20R17524   5.579   2.800   8.113  0.5406  2.1983 -2.3101
  157SAPE  H20S17525   5.505   2.832   8.269  0.3064  1.3601  0.4389
  157SAPE  H20T17526   5.616   2.953   8.201  0.1885 -0.7485 -0.3339
  157SAPE   C3317527   5.542   2.641   6.727  0.7789  0.6317 -0.2705
  157SAPE   H3X17528   5.652   2.652   6.717  1.1972 -1.8812  0.9194
  157SAPE   H3Y17529   5.507   2.571   6.648 -0.8573 -0.1673  1.1174
  157SAPE   C3417530   5.498   2.595   6.868  1.1889 -0.0872  0.2495
  157SAPE   H4X17531   5.393   2.632   6.878  1.4810  0.4336  1.5676
  157SAPE   H4Y17532   5.554   2.644   6.950  0.6496  1.4840 -0.2935
  157SAPE   C3517533   5.524   2.444   6.885 -0.1357  0.6592  0.7285
  157SAPE   H5X17534   5.634   2.453   6.892 -0.0545  0.6431 -0.3589
  157SAPE   H5Y17535   5.500   2.388   6.792  0.0156  1.0958  0.4225
  157SAPE   C3617536   5.443   2.360   6.992 -0.5593 -0.0580  0.4402
  157SAPE   H6X17537   5.467   2.254   6.971  3.0676  0.6763  0.2499
  157SAPE   H6Y17538   5.334   2.372   6.974 -0.3511 -1.4801 -2.3799
  157SAPE   C3717539   5.473   2.402   7.134 -0.2753  0.2394  0.0900
  157SAPE   H7X17540   5.413   2.491   7.163  0.6496  0.0194  3.0980
  157SAPE   H7Y17541   5.582   2.425   7.144 -0.3284  0.7055 -0.4059
  157SAPE   C3817542   5.428   2.289   7.231 -0.0431  0.0454  0.5005
  157SAPE   H8X17543   5.478   2.193   7.207 -0.1900 -0.2956  1.5172
  157SAPE   H8Y17544   5.324   2.257   7.208  1.0880 -2.2938 -1.8784
  157SAPE   C3917545   5.447   2.315   7.384  0.4506  0.2449 -0.2023
  157SAPE   H9X17546   5.450   2.423   7.406  0.2817 -0.1948  2.1870
  157SAPE   H9Y17547   5.550   2.284   7.413  0.1572  0.8503  1.5575
  157SAPE  C31017548   5.350   2.232   7.469  0.2895 -0.5949 -0.2561
  157SAPE  H10X17549   5.358   2.128   7.429  0.0100 -0.7595  0.1031
  157SAPE  H10Y17550   5.246   2.272   7.464  0.5992  0.3585  0.5900
  157SAPE  C31117551   5.386   2.217   7.621  0.4156 -1.1828 -0.0967
  157SAPE  H11X17552   5.375   2.316   7.669 -0.0886 -1.4113  0.2741
  157SAPE  H11Y17553   5.486   2.168   7.625  2.2942  2.3071 -0.4186
  157SAPE  C31217554   5.292   2.118   7.690 -0.5010  0.2978  0.1648
  157SAPE  H12X17555   5.308   2.019   7.644 -2.9705 -0.2994  0.4101
  157SAPE  H12Y17556   5.185   2.148   7.679 -0.3010  0.8882 -0.2312
  157SAPE  C31317557   5.317   2.091   7.839  0.8783  0.1614 -0.1016
  157SAPE  H13X17558   5.301   2.185   7.896  1.1304  2.5279 -3.6664
  157SAPE  H13Y17559   5.424   2.074   7.865  0.6316 -0.6398  0.4378
  157SAPE  C31417560   5.223   1.985   7.890 -0.4568 -0.3701 -0.8229
  157SAPE  H14X17561   5.197   1.910   7.812 -0.0845  0.9780 -2.2965
  157SAPE  H14Y17562   5.125   2.034   7.913  0.8183  1.7329  0.5286
  157SAPE  C31517563   5.285   1.915   8.013 -0.3523  0.7095  0.1389
  157SAPE  H15X17564   5.371   1.852   7.979 -0.0817  0.0668  1.8870
  157SAPE  H15Y17565   5.205   1.847   8.050  1.0237  0.2353  2.4961
  157SAPE  C31617566   5.318   2.013   8.134 -0.1727 -0.0979  0.1308
  157SAPE  H16X17567   5.256   2.102   8.113 -2.5259 -1.8270 -0.6290
  157SAPE  H16Y17568   5.428   2.031   8.138  0.0681 -1.5044  0.6481
  157SAPE  C31717569   5.261   1.966   8.270 -0.2209 -0.2332  0.1384
  157SAPE  H17X17570   5.311   1.867   8.275 -1.5089 -0.9454 -0.7108
  157SAPE  H17Y17571   5.151   1.956   8.262  0.0027 -1.4657 -3.1324
  157SAPE  C31817572   5.306   2.052   8.388  0.6064 -0.0357 -0.0737
  157SAPE  H18X17573   5.258   2.012   8.480 -2.3579  0.7678 -1.1654
  157SAPE  H18Y17574   5.267   2.156   8.378 -0.0541  0.0252  2.3913
  157SAPE  H18Z17575   5.416   2.045   8.395  0.6946  1.5893  0.7146
  158SAPE     N17576   1.004   3.378   6.486  0.0318  0.1888 -0.1712
  158SAPE   HN117577   1.079   3.434   6.440 -0.9180  0.4190 -1.4971
  158SAPE   HN217578   1.049   3.340   6.572  0.5947 -1.7912 -1.2891
  158SAPE   HN317579   0.976   3.307   6.416  1.8942 -0.0566 -0.7170
  158SAPE   C1217580   0.887   3.467   6.512  0.2355 -0.3095 -0.0780
  158SAPE  H12A17581   0.849   3.491   6.411 -1.6100 -2.5048  0.0199
  158SAPE  H12B17582   0.928   3.550   6.574  0.7208 -0.2509 -0.4761
  158SAPE   C1117583   0.790   3.398   6.608  0.9701  0.1039  0.1344
  158SAPE  H11A17584   0.727   3.479   6.650 -1.4138 -1.3577 -0.4110
  158SAPE  H11B17585   0.827   3.339   6.695 -2.4794  0.4292  2.0397
  158SAPE     P17586   0.555   3.323   6.522 -0.1618 -0.5589  0.1024
  158SAPE   O1317587   0.536   3.466   6.487  0.0153  0.1860  0.5483
  158SAPE   O1417588   0.501   3.221   6.426  0.1046 -0.1539  0.3662
  158SAPE   O1217589   0.712   3.306   6.526  0.3417 -0.3745  0.0367
  158SAPE   O1117590   0.499   3.299   6.673 -0.2614  0.0283 -0.0853
  158SAPE    C117591   0.578   3.223   6.764 -0.4519  0.0837 -0.3897
  158SAPE    HA17592   0.628   3.137   6.715  0.9628 -0.1674  1.3688
  158SAPE    HB17593   0.655   3.287   6.813  0.4999 -0.9166 -0.5620
  158SAPE    C217594   0.489   3.166   6.878  0.3159 -0.3089 -0.6731
  158SAPE    HS17595   0.468   3.233   6.964 -1.6590 -1.2434 -0.3902
  158SAPE   O2117596   0.552   3.046   6.929  0.4885  0.1977  0.1049
  158SAPE   C2117597   0.648   3.069   7.016 -0.7553  0.4550  0.3367
  158SAPE   O2217598   0.713   3.174   7.038 -0.2848 -0.1582 -0.6213
  158SAPE   C2217599   0.662   2.940   7.095  0.3288  0.3341  0.3622
  158SAPE   H2R17600   0.705   2.850   7.047 -0.5201 -1.0595  2.1322
  158SAPE   H2S17601   0.743   2.964   7.166  0.9440  1.0580 -0.5520
  158SAPE    C317602   0.349   3.125   6.827 -0.2244 -0.3240  0.6959
  158SAPE    HX17603   0.362   3.049   6.746  1.2938  1.4987 -0.8923
  158SAPE    HY17604   0.307   3.221   6.789 -1.8139 -0.3322  2.2900
  158SAPE   O3117605   0.261   3.081   6.931 -0.3994  0.1284 -0.3387
  158SAPE   C3117606   0.206   3.171   7.010 -0.2186 -0.0804 -0.4999
  158SAPE   O3217607   0.224   3.294   7.002  0.4096 -0.2054 -0.3326
  158SAPE   C3217608   0.122   3.095   7.112 -0.6508 -0.2010  0.0844
  158SAPE   H2X17609   0.164   2.997   7.141  0.8251  0.3772 -0.0389
  158SAPE   H2Y17610   0.028   3.056   7.067 -0.1962 -0.2646 -0.8209
  158SAPE   C2317611   0.538   2.910   7.184  0.5514  0.3735  0.5924
  158SAPE   H3R17612   0.540   2.818   7.246 -2.0850  1.5648  2.6596
  158SAPE   H3S17613   0.449   2.901   7.118  0.2952 -0.5571  1.0461
  158SAPE   C2417614   0.505   3.010   7.296 -0.5645 -0.2522  0.1652
  158SAPE   H4R17615   0.489   3.112   7.256 -1.3188 -0.7090 -0.7541
  158SAPE   H4S17616   0.594   3.023   7.361 -0.7567  0.0138  0.3767
  158SAPE   C2517617   0.390   2.961   7.380  0.0759 -0.0153  0.2952
  158SAPE   H5R17618   0.289   2.969   7.336  0.1635  0.4621  0.1715
  158SAPE   C2617619   0.402   2.884   7.494  0.1242 -0.1837  0.3569
  158SAPE   H6R17620   0.312   2.862   7.553 -0.0802 -2.9508 -0.8512
  158SAPE   C2717621   0.523   2.832   7.558  0.4105 -0.3753 -0.0435
  158SAPE   H7R17622   0.594   2.778   7.492  1.7306  1.1914  0.0013
  158SAPE   H7S17623   0.486   2.749   7.622 -0.0437 -0.6570 -0.6743
  158SAPE   C2817624   0.607   2.935   7.635  0.3024  0.4626  0.3264
  158SAPE   H8R17625   0.586   3.040   7.611  0.4832  0.7014  1.1903
  158SAPE   C2917626   0.695   2.905   7.738 -0.2274 -0.1795 -0.1782
  158SAPE   H9R17627   0.720   2.991   7.802 -0.1474  0.0322 -0.4866
  158SAPE  C21017628   0.734   2.770   7.782  0.1773 -0.7574 -0.8567
  158SAPE  H10R17629   0.700   2.686   7.717  1.5476 -0.0760 -2.5577
  158SAPE  H10S17630   0.695   2.761   7.885  2.5229 -0.6798  0.1004
  158SAPE  C21117631   0.879   2.764   7.820 -0.3625  0.2150 -0.1782
  158SAPE  H11R17632   0.929   2.860   7.840 -2.0334  1.0148  0.3856
  158SAPE  C21217633   0.952   2.644   7.836 -0.5667 -0.2190 -0.1244
  158SAPE  H12R17634   1.060   2.646   7.856 -0.0096  0.1264 -2.8600
  158SAPE  C21317635   0.904   2.503   7.809 -0.2910 -0.3759  0.5244
  158SAPE  H13R17636   0.804   2.500   7.762  0.4542 -1.6301 -1.0898
  158SAPE  H13S17637   0.889   2.455   7.908  0.3525 -2.1462 -0.1902
  158SAPE  C21417638   0.996   2.420   7.723  0.7670  0.5870  0.5060
  158SAPE  H14R17639   1.055   2.341   7.773  1.4620  0.4616 -0.4750
  158SAPE  C21517640   0.995   2.421   7.588  0.1071 -0.2099 -0.2080
  158SAPE  H15R17641   1.059   2.359   7.523 -0.4758 -1.5028  0.4152
  158SAPE  C21617642   0.918   2.518   7.502 -0.3546 -0.2422 -0.3199
  158SAPE  H16R17643   0.979   2.580   7.433 -0.7229  1.0319  0.4662
  158SAPE  H16S17644   0.868   2.588   7.572 -2.0600 -2.3530  0.6827
  158SAPE  C21717645   0.823   2.447   7.408  0.3831 -0.1294  0.4255
  158SAPE  H17R17646   0.754   2.520   7.359  1.5043  0.7794  0.1579
  158SAPE  H17S17647   0.750   2.376   7.452 -0.3604  1.4247  1.7894
  158SAPE  C21817648   0.910   2.376   7.301 -0.2001  0.0913  0.1634
  158SAPE  H18R17649   0.955   2.282   7.338  0.0261 -0.9504 -2.5274
  158SAPE  H18S17650   0.992   2.443   7.266  0.2827 -0.1580  0.8150
  158SAPE  C21917651   0.832   2.326   7.180  0.0551 -0.3735  0.3017
  158SAPE  H19R17652   0.736   2.282   7.214 -1.0215  0.5022 -1.4683
  158SAPE  H19S17653   0.901   2.247   7.145  0.8087  1.0553 -1.5828
  158SAPE  C22017654   0.797   2.433   7.076  0.4995  0.0088  0.4295
  158SAPE  H20R17655   0.884   2.482   7.028 -0.6248  2.2941  0.6069
  158SAPE  H20S17656   0.728   2.504   7.126  1.9081  1.0901  0.8996
  158SAPE  H20T17657   0.747   2.375   6.996  0.6236  0.5841 -0.0762
  158SAPE   C3317658   0.092   3.181   7.241  0.7704 -0.9315 -0.3209
  158SAPE   H3X17659   0.027   3.262   7.203  1.4262  0.2012  0.8754
  158SAPE   H3Y17660   0.191   3.218   7.273  1.2113  0.7737 -3.2647
  158SAPE   C3417661   0.014   3.120   7.359 -0.0166  0.0431  0.1688
  158SAPE   H4X17662   0.085   3.059   7.419  0.8299  1.2940  0.4994
  158SAPE   H4Y17663  -0.061   3.044   7.331  0.5747 -0.9579  1.1886
  158SAPE   C3517664  -0.063   3.225   7.439 -0.3825 -0.0722 -0.0638
  158SAPE   H5X17665  -0.131   3.278   7.368 -2.1686  0.6167  2.0582
  158SAPE   H5Y17666   0.018   3.298   7.462  0.2029 -0.5378 -0.6214
  158SAPE   C3617667  -0.145   3.180   7.561 -0.4420  1.0384 -0.2982
  158SAPE   H6X17668  -0.219   3.107   7.524  2.2062 -1.3099 -1.3333
  158SAPE   H6Y17669  -0.193   3.274   7.596  0.9299  1.3361  0.8957
  158SAPE   C3717670  -0.076   3.112   7.678  0.3083 -0.4427  0.5511
  158SAPE   H7X17671  -0.151   3.081   7.754 -3.4411  2.7661 -1.4531
  158SAPE   H7Y17672  -0.018   3.027   7.638  3.5358  0.7296  2.3224
  158SAPE   C3817673   0.032   3.204   7.752 -0.4499  1.0587  0.3004
  158SAPE   H8X17674  -0.025   3.286   7.801 -1.9684  0.6823 -0.7631
  158SAPE   H8Y17675   0.105   3.243   7.679  1.5589 -0.8592  1.1711
  158SAPE   C3917676   0.110   3.125   7.862  0.0058 -0.5201 -0.0088
  158SAPE   H9X17677   0.144   3.028   7.820  0.6815 -0.7529  1.0515
  158SAPE   H9Y17678   0.042   3.092   7.944 -0.1884 -0.2752 -0.0705
  158SAPE  C31017679   0.231   3.205   7.924 -0.9498  0.1979 -0.3294
  158SAPE  H10X17680   0.291   3.269   7.856 -0.2120  2.6519  2.4211
  158SAPE  H10Y17681   0.303   3.130   7.964  2.1885  2.0059 -2.2465
  158SAPE  C31117682   0.196   3.296   8.045 -0.5689  0.0162  0.2541
  158SAPE  H11X17683   0.117   3.372   8.025 -0.7231 -0.9565 -3.6875
  158SAPE  H11Y17684   0.293   3.342   8.071  0.1194 -0.7351 -0.9124
  158SAPE  C31217685   0.146   3.221   8.171  0.2194  0.2929  0.4116
  158SAPE  H12X17686   0.210   3.134   8.198  1.1076  0.9242  0.3984
  158SAPE  H12Y17687   0.044   3.179   8.156 -0.1106  1.4170 -0.6614
  158SAPE  C31317688   0.146   3.309   8.299  0.4161  0.0061  0.4407
  158SAPE  H13X17689   0.075   3.393   8.285  1.4351  0.8190  0.0853
  158SAPE  H13Y17690   0.247   3.354   8.298  0.1406  0.7716 -2.5430
  158SAPE  C31417691   0.124   3.239   8.438  0.0272  0.0728  0.0418
  158SAPE  H14X17692   0.184   3.146   8.444 -1.9678 -1.3239 -0.5803
  158SAPE  H14Y17693   0.021   3.200   8.448 -0.0709  0.6338  1.6054
  158SAPE  C31517694   0.167   3.330   8.553 -0.1267 -0.3488 -0.4066
  158SAPE  H15X17695   0.276   3.352   8.545 -0.1583 -0.4055 -1.0696
  158SAPE  H15Y17696   0.159   3.266   8.644  1.3254  0.6510  0.4678
  158SAPE  C31617697   0.076   3.452   8.572 -0.1029  0.6032  0.4541
  158SAPE  H16X17698  -0.029   3.416   8.558  0.3712 -0.6522 -0.0163
  158SAPE  H16Y17699   0.091   3.506   8.476 -1.2287 -1.7683 -1.1727
  158SAPE  C31717700   0.106   3.542   8.687 -0.5177 -0.4347  0.2787
  158SAPE  H17X17701   0.032   3.624   8.697 -1.9036 -1.4649 -1.0556
  158SAPE  H17Y17702   0.206   3.588   8.674 -0.1920 -1.4607 -1.1206
  158SAPE  C31817703   0.103   3.478   8.824 -0.0724  0.1912 -0.1666
  158SAPE  H18X17704   0.049   3.381   8.810  3.7181 -2.4104  1.6779
  158SAPE  H18Y17705   0.042   3.534   8.898  1.0193 -0.2265  1.0951
  158SAPE  H18Z17706   0.201   3.447   8.866 -0.1912  0.6279  0.4394
  159SAPE     N17707   5.929   3.277   6.106 -0.1286 -0.0190 -0.1464
  159SAPE   HN117708   5.970   3.371   6.091 -1.3572  0.6456  0.5487
  159SAPE   HN217709   5.996   3.201   6.080 -0.8721 -0.3810 -1.0823
  159SAPE   HN317710   5.844   3.272   6.046 -0.1705 -2.1345 -0.0041
  159SAPE   C1217711   5.885   3.268   6.252  0.5975  0.8450 -0.3757
  159SAPE  H12A17712   5.833   3.172   6.274 -2.0809  2.3324  0.1417
  159SAPE  H12B17713   5.801   3.341   6.252 -0.4549 -0.2943 -1.7002
  159SAPE   C1117714   5.999   3.295   6.351 -0.1812 -0.4431  0.6699
  159SAPE  H11A17715   6.068   3.211   6.331 -0.5841 -0.2043 -2.0443
  159SAPE  H11B17716   5.945   3.284   6.447 -1.2162 -0.4818  0.0920
  159SAPE     P17717   6.208   3.464   6.352 -0.4565  0.0522 -0.0073
  159SAPE   O1317718   6.286   3.394   6.246  0.4657  0.2984  0.0258
  159SAPE   O1417719   6.214   3.609   6.362  0.4567 -0.7027  0.5452
  159SAPE   O1217720   6.052   3.428   6.326  0.0975  0.2514  0.4551
  159SAPE   O1117721   6.233   3.395   6.494  0.3104  0.1077 -0.4233
  159SAPE    C117722   6.315   3.280   6.526 -0.2006 -0.2371  0.4742
  159SAPE    HA17723   6.281   3.190   6.470  1.0494  0.6875 -1.9402
  159SAPE    HB17724   6.419   3.289   6.489 -0.4018 -0.4481 -0.1554
  159SAPE    C217725   6.312   3.249   6.674  0.0832 -0.3081  0.2707
  159SAPE    HS17726   6.323   3.139   6.679 -0.4776 -0.3185  1.8536
  159SAPE   O2117727   6.195   3.289   6.743  0.5644 -0.1739 -0.3740
  159SAPE   C2117728   6.085   3.225   6.713 -0.1334  0.3100  1.0961
  159SAPE   O2217729   6.077   3.136   6.624  0.2244  0.2008  0.1077
  159SAPE   C2217730   5.971   3.275   6.796 -0.0102 -0.3455 -0.1455
  159SAPE   H2R17731   6.007   3.346   6.874  0.8072 -1.6078  0.6570
  159SAPE   H2S17732   5.902   3.327   6.727  0.7983  1.1986  0.1568
  159SAPE    C317733   6.437   3.321   6.734  0.2701 -0.2966 -0.2650
  159SAPE    HX17734   6.407   3.427   6.721 -1.0984 -0.7394 -0.9006
  159SAPE    HY17735   6.527   3.298   6.672  0.1017 -0.0171 -0.6203
  159SAPE   O3117736   6.446   3.298   6.871  0.4911  0.3021  0.0550
  159SAPE   C3117737   6.480   3.177   6.918 -0.0304 -0.7437  0.4838
  159SAPE   O3217738   6.490   3.079   6.853 -0.8081  0.8724  0.9158
  159SAPE   C3217739   6.520   3.173   7.064  0.4221 -0.1909  0.3328
  159SAPE   H2X17740   6.480   3.253   7.130  0.4565 -1.0551  1.4164
  159SAPE   H2Y17741   6.630   3.187   7.074  0.3156 -0.1373  1.5094
  159SAPE   C2317742   5.916   3.152   6.867 -0.2560 -0.3479 -1.1612
  159SAPE   H3R17743   5.896   3.070   6.794 -0.0461  0.7957 -2.5360
  159SAPE   H3S17744   5.811   3.157   6.903 -0.0109 -1.0679 -0.2816
  159SAPE   C2417745   6.011   3.105   6.982 -0.2643  0.0516 -0.3125
  159SAPE   H4R17746   6.116   3.096   6.947  0.5261  1.4399  1.5326
  159SAPE   H4S17747   5.975   3.002   7.003  0.2199  0.2617  1.7781
  159SAPE   C2517748   6.020   3.186   7.105  0.5026 -0.1453 -0.4228
  159SAPE   H5R17749   6.053   3.290   7.091  1.1704 -0.1921  0.6503
  159SAPE   C2617750   6.003   3.151   7.238 -0.2022 -0.4677 -0.0137
  159SAPE   H6R17751   6.032   3.226   7.313  0.6296  1.0091 -1.7556
  159SAPE   C2717752   5.958   3.014   7.288  0.1415  0.1754  0.1374
  159SAPE   H7R17753   6.009   2.947   7.216  2.0368  1.2573  0.4102
  159SAPE   H7S17754   5.848   3.009   7.280 -0.0540 -0.4216  2.4561
  159SAPE   C2817755   5.991   2.968   7.429  0.6677  0.1083  0.2527
  159SAPE   H8R17756   6.046   2.874   7.437  1.0075  0.2490 -0.4039
  159SAPE   C2917757   5.944   3.030   7.541  0.3170  0.3349  0.3818
  159SAPE   H9R17758   5.984   2.994   7.637 -1.2074  0.0993  0.9597
  159SAPE  C21017759   5.867   3.158   7.538  0.1790  0.3488  0.5418
  159SAPE  H10R17760   5.828   3.170   7.434  1.4447  3.1374  0.3052
  159SAPE  H10S17761   5.931   3.247   7.554  1.7490 -0.1461 -2.2882
  159SAPE  C21117762   5.754   3.163   7.636 -0.3829  0.2092  0.7863
  159SAPE  H11R17763   5.652   3.174   7.596  1.0354  1.6195 -2.8816
  159SAPE  C21217764   5.769   3.163   7.769 -0.0700  0.0592 -0.1931
  159SAPE  H12R17765   5.681   3.151   7.835  0.4685 -0.7312  0.3985
  159SAPE  C21317766   5.898   3.152   7.852  0.0155  0.1412  0.5861
  159SAPE  H13R17767   5.899   3.234   7.927 -1.6035  0.8092 -0.0781
  159SAPE  H13S17768   5.989   3.174   7.793 -0.8703 -0.6977 -1.1837
  159SAPE  C21417769   5.927   3.025   7.914  0.5276  0.2346 -0.1619
  159SAPE  H14R17770   5.895   2.934   7.861  1.2614 -0.2899  0.2731
  159SAPE  C21517771   5.997   3.009   8.031  0.3216 -0.9235  0.2124
  159SAPE  H15R17772   6.031   2.909   8.064  1.1445 -0.5501  0.5302
  159SAPE  C21617773   6.053   3.131   8.109  0.2690  0.2138 -0.8660
  159SAPE  H16R17774   6.068   3.231   8.064  2.8831  2.1906  3.6735
  159SAPE  H16S17775   6.157   3.102   8.136  0.2531  0.8628 -0.0960
  159SAPE  C21717776   5.978   3.165   8.245 -0.4180 -0.4795  0.1896
  159SAPE  H17R17777   6.043   3.223   8.313  0.0263 -0.8239  0.0657
  159SAPE  H17S17778   5.956   3.067   8.293  1.8544 -0.7259  0.8484
  159SAPE  C21817779   5.848   3.236   8.208 -0.2052 -0.0733 -0.6295
  159SAPE  H18R17780   5.785   3.165   8.150  0.1424 -0.8990 -0.0052
  159SAPE  H18S17781   5.869   3.316   8.133  1.7762  0.2275  0.1768
  159SAPE  C21917782   5.783   3.285   8.334  0.2113 -0.4504 -0.2795
  159SAPE  H19R17783   5.683   3.332   8.320  0.5186  0.0207 -0.9774
  159SAPE  H19S17784   5.860   3.344   8.389  1.4642 -1.8597 -0.4727
  159SAPE  C22017785   5.759   3.170   8.436 -0.1868 -0.2231 -0.7381
  159SAPE  H20R17786   5.696   3.210   8.518 -1.7073 -3.9428  0.0862
  159SAPE  H20S17787   5.858   3.140   8.476 -0.1935  2.5812  1.7290
  159SAPE  H20T17788   5.705   3.087   8.386  1.1912 -0.9035 -1.1293
  159SAPE   C3317789   6.491   3.042   7.133  0.0768  0.8180  0.0355
  159SAPE   H3X17790   6.517   3.048   7.240 -1.8903 -0.7635  0.6607
  159SAPE   H3Y17791   6.552   2.964   7.084  1.0525  1.0107  0.9217
  159SAPE   C3417792   6.345   2.996   7.124  0.5059  0.8063 -0.2977
  159SAPE   H4X17793   6.318   2.979   7.017  1.4589 -1.0548 -0.2656
  159SAPE   H4Y17794   6.276   3.073   7.165 -0.4515 -0.3871  0.3961
  159SAPE   C3517795   6.336   2.862   7.196  0.2032  0.3258 -0.2766
  159SAPE   H5X17796   6.412   2.787   7.165 -1.8876 -1.4973 -1.2212
  159SAPE   H5Y17797   6.240   2.817   7.165  0.8619 -0.6781 -0.9073
  159SAPE   C3617798   6.352   2.870   7.356  0.2710 -0.0820  0.2760
  159SAPE   H6X17799   6.314   2.971   7.383 -0.7968 -0.7658  1.4380
  159SAPE   H6Y17800   6.461   2.872   7.376  0.2425  1.2541  0.4468
  159SAPE   C3717801   6.291   2.754   7.443  0.2320  0.3956  0.1154
  159SAPE   H7X17802   6.355   2.670   7.409 -1.0816 -0.6189  0.0738
  159SAPE   H7Y17803   6.186   2.731   7.416 -0.1390  0.9884  0.9912
  159SAPE   C3817804   6.307   2.775   7.596  0.7385 -0.3157 -0.0334
  159SAPE   H8X17805   6.218   2.831   7.632  0.7060 -0.2995 -0.1401
  159SAPE   H8Y17806   6.400   2.834   7.611  0.5446  0.5332 -1.9995
  159SAPE   C3917807   6.313   2.660   7.693  0.0109  0.3403 -0.3408
  159SAPE   H9X17808   6.396   2.587   7.686  0.2374 -0.0421  3.6159
  159SAPE   H9Y17809   6.212   2.614   7.689 -0.8525  2.1899 -0.9373
  159SAPE  C31017810   6.320   2.707   7.839 -0.4324 -0.0729 -0.1410
  159SAPE  H10X17811   6.241   2.780   7.865  0.6057  1.2944 -0.6838
  159SAPE  H10Y17812   6.418   2.760   7.845 -1.7098  2.4339 -0.4030
  159SAPE  C31117813   6.303   2.592   7.937 -0.2614 -0.7785 -0.7639
  159SAPE  H11X17814   6.365   2.510   7.896  1.5319  0.7221 -1.1937
  159SAPE  H11Y17815   6.197   2.558   7.940 -0.1914 -0.9053  0.8828
  159SAPE  C31217816   6.361   2.612   8.082 -0.2192 -0.8550  0.8553
  159SAPE  H12X17817   6.470   2.631   8.073 -0.3759  0.0561  0.7856
  159SAPE  H12Y17818   6.345   2.521   8.145 -1.5466 -0.0732  1.6995
  159SAPE  C31317819   6.298   2.730   8.157 -0.6944  0.5746  0.2333
  159SAPE  H13X17820   6.188   2.722   8.147 -0.5204  0.6186 -2.5973
  159SAPE  H13Y17821   6.327   2.826   8.109  1.0895 -0.0470 -0.0371
  159SAPE  C31417822   6.344   2.725   8.303  0.1463 -0.0265 -0.1059
  159SAPE  H14X17823   6.455   2.719   8.305  0.1588 -0.4385 -1.0829
  159SAPE  H14Y17824   6.311   2.627   8.345  0.3271 -1.0897 -2.2980
  159SAPE  C31517825   6.282   2.834   8.394 -0.1035  0.5632  0.5363
  159SAPE  H15X17826   6.171   2.827   8.394 -0.2347  1.8868 -1.4929
  159SAPE  H15Y17827   6.297   2.936   8.352  1.8655  0.1246  0.0428
  159SAPE  C31617828   6.344   2.838   8.537  0.7031 -0.3986 -0.5593
  159SAPE  H16X17829   6.450   2.864   8.516  0.9276 -0.8255  0.0228
  159SAPE  H16Y17830   6.326   2.736   8.577  0.3517  0.2315  0.9618
  159SAPE  C31717831   6.284   2.941   8.628 -0.3309  0.0939 -0.1359
  159SAPE  H17X17832   6.275   3.041   8.580  1.3750  0.9933  1.3166
  159SAPE  H17Y17833   6.356   2.952   8.712 -0.3266  0.1380 -0.1458
  159SAPE  C31817834   6.144   2.905   8.680 -0.1264 -0.1614  0.3903
  159SAPE  H18X17835   6.069   2.939   8.606 -1.0675  1.9610  2.1949
  159SAPE  H18Y17836   6.127   2.959   8.775  0.4244 -0.4013  0.6287
  159SAPE  H18Z17837   6.144   2.798   8.711  0.2900 -0.7654 -1.5342
  160SAPE     N17838   0.218   0.701   6.154 -0.1163 -0.3821  0.1272
  160SAPE   HN117839   0.273   0.624   6.197  0.6300 -0.4859 -0.9824
  160SAPE   HN217840   0.170   0.753   6.230  1.7344  3.0572 -0.8253
  160SAPE   HN317841   0.148   0.670   6.084 -0.7297  0.2430  0.4449
  160SAPE   C1217842   0.323   0.790   6.106  0.1466  0.8228  0.4544
  160SAPE  H12A17843   0.266   0.881   6.079 -0.8339  0.2132  0.4300
  160SAPE  H12B17844   0.360   0.750   6.009 -0.5899  0.9094  0.1314
  160SAPE   C1117845   0.446   0.790   6.197  0.8562  0.1189 -0.2405
  160SAPE  H11A17846   0.421   0.800   6.305 -0.1906  0.0040 -0.4643
  160SAPE  H11B17847   0.506   0.882   6.182  1.0419  1.0440  4.6721
  160SAPE     P17848   0.638   0.609   6.255 -0.3565 -0.1061 -0.0923
  160SAPE   O1317849   0.675   0.472   6.211  0.1221  0.5832 -0.2178
  160SAPE   O1417850   0.749   0.705   6.252  0.6960 -0.3357 -0.5799
  160SAPE   O1217851   0.522   0.668   6.169 -0.4321  0.0471 -0.3084
  160SAPE   O1117852   0.569   0.598   6.399 -0.1627 -0.0938 -0.2695
  160SAPE    C117853   0.627   0.657   6.522  0.1550 -0.1348  0.4854
  160SAPE    HA17854   0.732   0.691   6.505  0.0047  0.3173  0.4271
  160SAPE    HB17855   0.562   0.743   6.551  1.3382  0.6500  0.8793
  160SAPE    C217856   0.630   0.563   6.637 -0.7709  0.1530 -0.2155
  160SAPE    HS17857   0.677   0.469   6.601  0.8759  1.9491 -3.0932
  160SAPE   O2117858   0.503   0.537   6.695 -0.5751 -0.5845 -0.3545
  160SAPE   C2117859   0.483   0.425   6.761  0.5529 -0.1253  0.0173
  160SAPE   O2217860   0.563   0.336   6.771  0.4584 -0.5027 -0.4437
  160SAPE   C2217861   0.346   0.424   6.820 -0.0013  0.1606  0.7928
  160SAPE   H2R17862   0.283   0.437   6.730  0.2882 -1.4257  0.3402
  160SAPE   H2S17863   0.333   0.322   6.861 -2.2588 -0.0967 -0.4244
  160SAPE    C317864   0.728   0.611   6.749 -0.5491  0.0980  0.1590
  160SAPE    HX17865   0.828   0.621   6.703  0.4153 -0.0632  2.1217
  160SAPE    HY17866   0.736   0.533   6.828  0.5436  0.2274  0.1860
  160SAPE   O3117867   0.680   0.733   6.804  0.4147  0.3277  0.8447
  160SAPE   C3117868   0.764   0.821   6.846  0.0424 -0.1525  0.6757
  160SAPE   O3217869   0.881   0.828   6.806 -0.1925  0.5819  0.3277
  160SAPE   C3217870   0.703   0.916   6.957  0.3371 -0.2629  0.1009
  160SAPE   H2X17871   0.603   0.873   6.978  0.0016  0.4638  0.0365
  160SAPE   H2Y17872   0.689   1.017   6.912  2.5089 -0.1071 -0.3230
  160SAPE   C2317873   0.323   0.539   6.918 -0.0324 -0.0654  0.0440
  160SAPE   H3R17874   0.216   0.546   6.944  0.0008  0.0113  0.1610
  160SAPE   H3S17875   0.359   0.637   6.880  0.1871  0.6710  2.0247
  160SAPE   C2417876   0.400   0.527   7.061 -0.5048 -0.0359  0.1233
  160SAPE   H4R17877   0.374   0.619   7.118 -0.6032  1.6713 -2.4975
  160SAPE   H4S17878   0.510   0.524   7.048 -0.3549 -1.1923  1.4082
  160SAPE   C2517879   0.363   0.400   7.138  0.7646  0.4553  0.3714
  160SAPE   H5R17880   0.388   0.307   7.084 -2.4676 -0.1351 -0.2969
  160SAPE   C2617881   0.344   0.377   7.271  0.1238 -0.4688 -0.1646
  160SAPE   H6R17882   0.307   0.279   7.303  1.4938 -0.8952  0.1401
  160SAPE   C2717883   0.335   0.488   7.376  0.1580 -0.5527 -0.0123
  160SAPE   H7R17884   0.231   0.474   7.414 -0.2720 -1.4741 -1.4208
  160SAPE   H7S17885   0.330   0.596   7.350  1.6105 -0.4818 -0.0448
  160SAPE   C2817886   0.437   0.462   7.480 -1.0675 -0.3476 -0.1101
  160SAPE   H8R17887   0.539   0.470   7.439 -1.1308  2.3235  0.0567
  160SAPE   C2917888   0.420   0.448   7.612 -0.6718 -0.1488  0.0655
  160SAPE   H9R17889   0.505   0.437   7.682  0.2398 -0.7954 -1.1062
  160SAPE  C21017890   0.291   0.438   7.687 -0.1369  0.6853  0.4581
  160SAPE  H10R17891   0.227   0.521   7.651 -0.4166  1.1470  1.9392
  160SAPE  H10S17892   0.308   0.473   7.791 -1.1515 -0.7781  1.1447
  160SAPE  C21117893   0.225   0.299   7.686  0.3298  0.1181 -0.3705
  160SAPE  H11R17894   0.233   0.248   7.589  1.7825  0.0260 -0.2209
  160SAPE  C21217895   0.174   0.224   7.790 -1.1758  0.0483  0.2284
  160SAPE  H12R17896   0.137   0.121   7.775 -0.8213 -0.1648  0.7664
  160SAPE  C21317897   0.162   0.263   7.932  0.2882 -0.1769 -0.2782
  160SAPE  H13R17898   0.252   0.320   7.964  0.3477 -0.1411 -0.5086
  160SAPE  H13S17899   0.166   0.168   7.989  0.5708 -0.3904 -0.6415
  160SAPE  C21417900   0.029   0.331   7.959  0.1728 -0.3713 -0.5106
  160SAPE  H14R17901  -0.048   0.339   7.881  1.7866  0.0700 -2.1135
  160SAPE  C21517902   0.003   0.389   8.078  0.9586 -0.4027  0.5817
  160SAPE  H15R17903  -0.098   0.433   8.085 -0.2882 -2.3684 -2.5550
  160SAPE  C21617904   0.092   0.390   8.199  0.2346 -0.0558  0.1818
  160SAPE  H16R17905   0.139   0.490   8.204  0.0280  0.1189 -1.0468
  160SAPE  H16S17906   0.171   0.313   8.183  2.9292  2.8390 -1.9196
  160SAPE  C21717907   0.022   0.353   8.327  0.0058  0.0465 -0.5175
  160SAPE  H17R17908   0.103   0.346   8.403 -1.8018  3.1414  1.9373
  160SAPE  H17S17909  -0.016   0.249   8.317 -0.7845  0.3699 -1.0061
  160SAPE  C21817910  -0.086   0.454   8.377  0.1254  0.0256  0.4711
  160SAPE  H18R17911  -0.166   0.467   8.301  1.0827  1.2121 -0.3834
  160SAPE  H18S17912  -0.044   0.556   8.384  2.3591 -0.8623  0.7907
  160SAPE  C21917913  -0.143   0.421   8.520  0.2769 -0.1621  0.4593
  160SAPE  H19R17914  -0.064   0.372   8.581 -1.5896 -0.2362  2.9694
  160SAPE  H19S17915  -0.229   0.352   8.505 -0.3937  0.5060  1.1652
  160SAPE  C22017916  -0.194   0.548   8.591  0.5042 -0.1810 -0.1364
  160SAPE  H20R17917  -0.252   0.511   8.678 -1.8685 -1.0023 -1.9565
  160SAPE  H20S17918  -0.257   0.612   8.526 -1.5650  0.7197  2.5741
  160SAPE  H20T17919  -0.116   0.616   8.632  0.8383  0.5952 -1.9563
  160SAPE   C3317920   0.788   0.914   7.089 -0.0352  0.5933  0.7706
  160SAPE   H3X17921   0.814   0.807   7.107  1.2202  0.8644  0.6934
  160SAPE   H3Y17922   0.721   0.964   7.162 -0.8293  1.2545 -0.3872
  160SAPE   C3417923   0.912   1.000   7.077  0.0176 -0.6761 -0.8607
  160SAPE   H4X17924   0.891   1.089   7.013 -0.0709  0.4412  0.6664
  160SAPE   H4Y17925   0.986   0.941   7.019  0.0746  0.1056 -1.5973
  160SAPE   C3517926   0.964   1.042   7.218  0.6074  0.7219 -0.5113
  160SAPE   H5X17927   0.883   1.094   7.273  0.0059 -2.1182  1.5375
  160SAPE   H5Y17928   1.046   1.117   7.211  1.1625  0.6352  3.1105
  160SAPE   C3617929   0.989   0.927   7.318 -0.3570  0.0828  0.4636
  160SAPE   H6X17930   1.066   0.864   7.269 -2.2491 -1.2543 -0.9602
  160SAPE   H6Y17931   0.904   0.859   7.340  0.0131 -0.7200 -0.4989
  160SAPE   C3717932   1.051   0.986   7.450  0.2809  0.2661  0.0392
  160SAPE   H7X17933   0.972   1.051   7.494 -2.2195 -0.9195 -2.4293
  160SAPE   H7Y17934   1.148   1.033   7.426 -1.2155  2.1005 -2.9733
  160SAPE   C3817935   1.069   0.877   7.549 -0.1855 -0.1626 -0.4274
  160SAPE   H8X17936   1.136   0.803   7.499  0.0466  0.0242 -0.3946
  160SAPE   H8Y17937   0.975   0.819   7.560  0.7211 -1.3149  2.1751
  160SAPE   C3917938   1.111   0.927   7.689 -0.0058 -0.2198 -0.2172
  160SAPE   H9X17939   1.039   1.007   7.715 -1.2311 -1.8808  1.9110
  160SAPE   H9Y17940   1.211   0.970   7.667  0.6397 -0.4183  2.0664
  160SAPE  C31017941   1.108   0.822   7.801 -0.4847 -0.1026  0.2070
  160SAPE  H10X17942   1.153   0.731   7.757  0.5479 -0.3015  1.6091
  160SAPE  H10Y17943   1.005   0.791   7.828 -0.5182 -0.9350 -0.8273
  160SAPE  C31117944   1.174   0.869   7.930  0.0034 -0.5598 -0.8400
  160SAPE  H11X17945   1.131   0.970   7.948  1.0660 -0.4268  1.1462
  160SAPE  H11Y17946   1.280   0.888   7.903  0.0522 -2.4898 -2.1471
  160SAPE  C31217947   1.151   0.786   8.050 -0.3460  0.2735 -0.4786
  160SAPE  H12X17948   1.207   0.690   8.047 -0.9886 -0.2297  1.6188
  160SAPE  H12Y17949   1.043   0.759   8.049 -0.0812 -0.8637 -2.6715
  160SAPE  C31317950   1.194   0.850   8.187 -0.2935  0.3170 -0.0044
  160SAPE  H13X17951   1.138   0.943   8.210 -0.3518  0.3918 -0.4300
  160SAPE  H13Y17952   1.302   0.867   8.202 -0.0007 -1.7479  0.4398
  160SAPE  C31417953   1.164   0.755   8.301  0.3485 -0.3542  0.1866
  160SAPE  H14X17954   1.206   0.805   8.391 -1.2022  0.1327  0.6736
  160SAPE  H14Y17955   1.220   0.661   8.283 -0.6405 -0.6816 -1.5074
  160SAPE  C31517956   1.018   0.713   8.319 -0.9814 -0.6284  0.3403
  160SAPE  H15X17957   0.987   0.652   8.231  0.3444  0.0680 -0.6522
  160SAPE  H15Y17958   0.941   0.792   8.331 -1.0859 -0.7963  0.8045
  160SAPE  C31617959   1.000   0.621   8.436 -0.2212  0.8487  0.5943
  160SAPE  H16X17960   0.974   0.682   8.525 -0.2263  1.4807  0.1739
  160SAPE  H16Y17961   1.088   0.555   8.451  0.1552  0.7893 -1.5169
  160SAPE  C31717962   0.884   0.518   8.420  0.1380  0.4390  0.2055
  160SAPE  H17X17963   0.897   0.439   8.343  1.7047  1.3069 -0.4784
  160SAPE  H17Y17964   0.796   0.578   8.387 -0.0001 -1.7731 -4.1851
  160SAPE  C31817965   0.843   0.452   8.553 -0.1357  0.0656 -0.7024
  160SAPE  H18X17966   0.754   0.385   8.542 -0.1655  0.0509 -0.3754
  160SAPE  H18Y17967   0.815   0.528   8.628 -0.7570  1.3186 -2.1452
  160SAPE  H18Z17968   0.930   0.393   8.589  1.9165  1.2618 -3.3675
  161SOPE     N17969   4.920   2.694  10.878 -0.0763  0.2347  0.4821
  161SOPE   HN117970   5.008   2.671  10.827 -0.8714 -1.0487 -0.3588
  161SOPE   HN217971   4.857   2.706  10.797  1.1565 -3.4201 -1.2441
  161SOPE   HN317972   4.932   2.781  10.934  0.4010  0.8431 -0.5398
  161SOPE   C1217973   4.883   2.568  10.953  0.3796 -0.2061 -0.0607
  161SOPE  H12A17974   4.780   2.581  10.992 -0.8070 -0.9542 -2.6766
  161SOPE  H12B17975   4.956   2.555  11.035 -0.7930 -0.1269  1.0136
  161SOPE   C1117976   4.892   2.446  10.863 -0.2468 -0.0386  0.6968
  161SOPE  H11A17977   4.867   2.357  10.925 -0.2223 -0.4347  0.1464
  161SOPE  H11B17978   5.003   2.442  10.850 -0.0536  0.4887  1.9789
  161SOPE     P17979   4.683   2.407  10.718 -0.0133 -0.0486  0.0574
  161SOPE   O1317980   4.598   2.524  10.749 -0.0037  0.0269  0.1944
  161SOPE   O1417981   4.663   2.287  10.809 -0.5941 -0.3654  0.1423
  161SOPE   O1217982   4.833   2.457  10.729  0.0423  0.1955 -0.5592
  161SOPE   O1117983   4.683   2.365  10.563 -0.5883  0.6771 -0.9656
  161SOPE    C117984   4.724   2.463  10.466  1.5738  0.2058 -1.4937
  161SOPE    HA17985   4.823   2.508  10.490  2.2616 -0.9271 -2.0960
  161SOPE    HB17986   4.652   2.547  10.476  0.2011 -1.2328  2.4982
  161SOPE    C217987   4.735   2.411  10.319 -0.2594 -0.6451  0.4977
  161SOPE    HS17988   4.732   2.500  10.252 -0.9641  0.3353  1.7831
  161SOPE   O2117989   4.629   2.323  10.280  0.0760  0.1177  0.0956
  161SOPE   C2117990   4.505   2.369  10.291  0.0879 -0.3579 -0.2719
  161SOPE   O2217991   4.475   2.487  10.314  0.1447 -0.4209  0.3401
  161SOPE   C2217992   4.416   2.249  10.243  0.0756  0.0196 -0.1266
  161SOPE   H2R17993   4.321   2.242  10.300  0.1074 -1.7914 -0.2488
  161SOPE   H2S17994   4.472   2.163  10.285 -1.6844 -0.1543  2.0679
  161SOPE    C317995   4.870   2.332  10.299 -1.1203 -0.0595  0.4253
  161SOPE    HX17996   4.878   2.253  10.377  1.8045 -1.6346 -1.3230
  161SOPE    HY17997   4.945   2.409  10.326  0.6724 -0.8874 -1.8826
  161SOPE   O3117998   4.894   2.279  10.164 -0.2509 -0.2022  0.0837
  161SOPE   C3117999   4.854   2.149  10.144  0.4215  0.0388  0.1445
  161SOPE   O3218000   4.829   2.077  10.238 -0.0245 -0.3671  0.0657
  161SOPE   C3218001   4.835   2.111   9.996  0.4145  0.1689  0.4776
  161SOPE   H2X18002   4.747   2.043   9.995  0.4504  0.0838  1.6240
  161SOPE   H2Y18003   4.931   2.070   9.958  0.5551  2.4064 -1.9469
  161SOPE   C2318004   4.410   2.241  10.092  0.2795 -0.6128 -0.1983
  161SOPE   H3R18005   4.371   2.141  10.064  1.2403 -0.6551 -1.4631
  161SOPE   H3S18006   4.506   2.246  10.038  0.0415  1.5891 -0.5142
  161SOPE   C2418007   4.312   2.346  10.039  0.2015  0.3665 -0.0226
  161SOPE   H4R18008   4.208   2.329  10.076  0.0136  0.0170 -0.6798
  161SOPE   H4S18009   4.357   2.438  10.079  0.3776  0.9519 -1.5047
  161SOPE   C2518010   4.304   2.353   9.885 -0.1711 -0.1159 -0.1869
  161SOPE   H5R18011   4.262   2.257   9.849 -2.0686  0.0137  1.4864
  161SOPE   H5S18012   4.239   2.437   9.855  1.2497 -0.1628 -3.9489
  161SOPE   C2618013   4.440   2.376   9.816  0.2068  0.5067 -0.2073
  161SOPE   H6R18014   4.491   2.277   9.823 -0.2687 -0.0641 -3.2262
  161SOPE   H6S18015   4.416   2.399   9.710  1.9901  1.4980 -0.4333
  161SOPE   C2718016   4.520   2.498   9.856  0.1457 -0.3421  0.3301
  161SOPE   H7R18017   4.553   2.482   9.961  1.2009  1.6186  0.3351
  161SOPE   H7S18018   4.619   2.504   9.806  0.4102  1.5845  1.0172
  161SOPE   C2818019   4.446   2.632   9.831  0.2365 -0.3374 -0.8038
  161SOPE   H8R18020   4.427   2.652   9.724 -2.0571 -0.1283 -0.4184
  161SOPE   H8S18021   4.346   2.625   9.880 -1.7285  0.7648 -4.2848
  161SOPE   C2918022   4.526   2.750   9.889  0.4743  0.5097  0.0556
  161SOPE   H9118023   4.502   2.761   9.995 -2.3434 -1.7313 -0.2282
  161SOPE  C21018024   4.604   2.825   9.813 -0.2201 -0.6325 -0.0793
  161SOPE  H10118025   4.671   2.895   9.866 -0.3476 -1.0428  0.6314
  161SOPE  C21118026   4.644   2.832   9.665  0.0561 -0.4055 -0.2360
  161SOPE  H11R18027   4.657   2.728   9.629 -0.7191 -1.1210  1.4795
  161SOPE  H11S18028   4.743   2.881   9.661 -0.0586 -0.2227 -1.3378
  161SOPE  C21218029   4.540   2.930   9.589 -0.6920 -0.0817  0.7161
  161SOPE  H12R18030   4.554   3.036   9.620  0.3929 -0.3595  1.2173
  161SOPE  H12S18031   4.433   2.915   9.618 -0.4857 -1.3232  0.9039
  161SOPE  C21318032   4.555   2.918   9.433  0.5161 -0.3528  0.2876
  161SOPE  H13R18033   4.647   2.974   9.405 -2.0400  5.2265  1.5586
  161SOPE  H13S18034   4.466   2.967   9.386  0.5129 -1.5614 -1.0307
  161SOPE  C21418035   4.553   2.772   9.382  0.3866  0.4771 -0.3802
  161SOPE  H14R18036   4.604   2.692   9.440 -2.1956 -1.8991 -1.1388
  161SOPE  H14S18037   4.597   2.769   9.280 -1.1077 -2.1926 -1.0354
  161SOPE  C21518038   4.408   2.724   9.373  0.4164 -0.3339 -0.2000
  161SOPE  H15R18039   4.368   2.776   9.284  0.8505 -0.7356 -0.6372
  161SOPE  H15S18040   4.354   2.764   9.462 -1.3616  0.7063 -1.6706
  161SOPE  C21618041   4.391   2.574   9.358  0.2369  0.4741  0.0305
  161SOPE  H16R18042   4.428   2.528   9.452  0.3818 -2.8620 -1.5280
  161SOPE  H16S18043   4.459   2.539   9.277  2.2853  1.3147  1.2932
  161SOPE  C21718044   4.253   2.524   9.335 -0.1931  0.1990  0.1271
  161SOPE  H17R18045   4.257   2.415   9.311  0.6559 -0.6730  3.6608
  161SOPE  H17S18046   4.212   2.577   9.247 -1.4073 -2.4820 -1.0371
  161SOPE  C21818047   4.158   2.553   9.456 -0.1249  0.2008 -0.1100
  161SOPE  H18R18048   4.194   2.516   9.554  2.3393  1.6909 -0.3475
  161SOPE  H18S18049   4.061   2.501   9.444  0.2705 -0.5316 -0.2126
  161SOPE  H18T18050   4.131   2.660   9.474 -1.5942 -0.4036  1.5789
  161SOPE   C3318051   4.810   2.238   9.901 -0.3771  0.1010 -0.0392
  161SOPE   H3X18052   4.905   2.294   9.890 -0.9630  1.2565  0.6952
  161SOPE   H3Y18053   4.723   2.300   9.931 -2.0076 -0.3214 -3.4183
  161SOPE   C3418054   4.785   2.190   9.756  0.7916  0.2255 -0.0246
  161SOPE   H4X18055   4.681   2.154   9.740  0.3206  0.4891  2.1426
  161SOPE   H4Y18056   4.850   2.104   9.728  2.3615  2.1883 -2.9735
  161SOPE   C3518057   4.809   2.302   9.654 -0.3946 -0.4451 -0.6572
  161SOPE   H5X18058   4.915   2.333   9.665 -0.6816  0.1579  0.5509
  161SOPE   H5Y18059   4.744   2.390   9.674 -1.4105 -1.4502  0.7731
  161SOPE   C3618060   4.790   2.263   9.505 -0.0716  0.1395 -0.1996
  161SOPE   H6X18061   4.813   2.157   9.483 -1.2530 -0.2190  0.2106
  161SOPE   H6Y18062   4.855   2.325   9.441  0.5433 -0.7106 -0.4106
  161SOPE   C3718063   4.649   2.304   9.464 -0.7949  0.0615  0.2448
  161SOPE   H7X18064   4.631   2.414   9.461 -1.8148 -0.1198 -1.6623
  161SOPE   H7Y18065   4.578   2.257   9.535  0.2583 -0.5958  0.8865
  161SOPE   C3818066   4.603   2.238   9.332  0.4337 -0.2356  0.5552
  161SOPE   H8X18067   4.493   2.231   9.341  0.3476 -1.7062 -1.0827
  161SOPE   H8Y18068   4.630   2.130   9.336  0.3615 -0.3087 -0.5489
  161SOPE   C3918069   4.665   2.296   9.207 -0.2499  0.8229  0.1868
  161SOPE   H9X18070   4.774   2.276   9.201 -0.3027  0.8807 -1.4357
  161SOPE   H9Y18071   4.660   2.407   9.210 -1.6129  0.7595  0.7683
  161SOPE  C31018072   4.592   2.255   9.084  0.1328  0.0287  0.3563
  161SOPE  H10X18073   4.638   2.316   9.004  2.2948 -0.3325  1.2657
  161SOPE  H10Y18074   4.485   2.283   9.100 -0.0603 -1.9333  3.3697
  161SOPE  C31118075   4.590   2.102   9.052  1.0747  0.9027  0.3726
  161SOPE  H11X18076   4.550   2.054   9.144  1.8895  1.3138  0.9491
  161SOPE  H11Y18077   4.691   2.064   9.027  0.3304 -0.5771 -0.5538
  161SOPE  C31218078   4.477   2.056   8.956 -0.2926  0.4084  0.2940
  161SOPE  H12X18079   4.382   2.112   8.967 -0.4326  0.3098 -0.3937
  161SOPE  H12Y18080   4.454   1.950   8.981  1.4895  0.1514  0.9693
  161SOPE  C31318081   4.514   2.069   8.806  0.3325 -0.0721 -0.0127
  161SOPE  H13X18082   4.601   2.002   8.794 -0.6937 -2.6302  4.4364
  161SOPE  H13Y18083   4.532   2.174   8.777 -0.1581 -0.3101 -1.2614
  161SOPE  C31418084   4.387   2.030   8.715 -0.5886 -0.4492  0.4630
  161SOPE  H14X18085   4.294   2.087   8.737  0.3478  1.6908 -0.7507
  161SOPE  H14Y18086   4.377   1.922   8.735  2.5975 -0.9832 -0.2246
  161SOPE  C31518087   4.412   2.047   8.564 -0.1071  0.3919  0.9039
  161SOPE  H15X18088   4.330   1.993   8.513 -0.1327  0.7573  0.5587
  161SOPE  H15Y18089   4.507   1.992   8.544 -0.9968 -0.0983 -2.5641
  161SOPE  C31618090   4.417   2.191   8.519 -0.4518 -0.0915 -0.1582
  161SOPE  H16X18091   4.479   2.251   8.589  0.4865 -2.9254  1.6515
  161SOPE  H16Y18092   4.318   2.242   8.522  0.4423  1.7344 -0.4341
  161SOPE  C31718093   4.484   2.221   8.382 -0.1280 -0.1716  0.3513
  161SOPE  H17X18094   4.429   2.156   8.311 -0.8570 -0.6495  1.3173
  161SOPE  H17Y18095   4.588   2.183   8.387  0.0756  0.0753 -1.4364
  161SOPE  C31818096   4.482   2.376   8.359 -0.0901  0.3668  0.3591
  161SOPE  H18X18097   4.564   2.402   8.288 -0.2690  0.4677  0.1882
  161SOPE  H18Y18098   4.496   2.410   8.463 -0.0848 -2.4885  1.3907
  161SOPE  H18Z18099   4.380   2.401   8.323  0.5417  0.7879 -1.2255
  162SOPE     N18100   2.735   5.036  10.940  0.0204  0.6775  0.2573
  162SOPE   HN118101   2.695   5.003  11.030 -1.4779  0.2476 -0.5257
  162SOPE   HN218102   2.831   5.073  10.952  0.9568 -1.3147 -0.6404
  162SOPE   HN318103   2.677   5.116  10.906 -0.4515  0.2350 -0.0052
  162SOPE   C1218104   2.735   4.921  10.843 -0.0872  0.0482  0.3419
  162SOPE  H12A18105   2.793   4.842  10.896 -1.3000 -1.8443 -1.0020
  162SOPE  H12B18106   2.791   4.951  10.752  1.5339  2.1933  1.9536
  162SOPE   C1118107   2.596   4.864  10.810  0.1299 -0.1431 -0.0195
  162SOPE  H11A18108   2.599   4.787  10.730  1.3952 -0.3886  0.2347
  162SOPE  H11B18109   2.538   4.948  10.765 -1.6283 -2.9398 -3.4520
  162SOPE     P18110   2.419   4.704  10.936 -0.2368  0.3548 -0.5112
  162SOPE   O1318111   2.292   4.780  10.939 -0.6571  0.3521  0.1423
  162SOPE   O1418112   2.444   4.613  11.046  0.3670  0.4889 -0.4001
  162SOPE   O1218113   2.539   4.814  10.931 -0.0720  0.1813 -0.7845
  162SOPE   O1118114   2.425   4.628  10.802 -0.3988  0.2639  0.1096
  162SOPE    C118115   2.473   4.489  10.798 -0.2815  0.1384 -0.5742
  162SOPE    HA18116   2.395   4.440  10.737  0.9179 -4.2474  1.0156
  162SOPE    HB18117   2.474   4.436  10.896  2.0145  0.1778 -0.5061
  162SOPE    C218118   2.616   4.483  10.749 -1.1274  0.0147  0.6792
  162SOPE    HS18119   2.675   4.528  10.832 -1.9294  0.9146  0.7794
  162SOPE   O2118120   2.637   4.558  10.627  0.4118  0.0483  0.0295
  162SOPE   C2118121   2.762   4.584  10.606 -0.3465  0.1848  0.0437
  162SOPE   O2218122   2.853   4.563  10.687  0.3542 -0.3198  0.5870
  162SOPE   C2218123   2.782   4.645  10.470  0.7251 -0.4905  0.4876
  162SOPE   H2R18124   2.689   4.657  10.411  0.7604 -2.8234 -0.1488
  162SOPE   H2S18125   2.833   4.563  10.416  0.6787 -2.3457  3.0365
  162SOPE    C318126   2.662   4.326  10.745  0.1829 -0.6630  0.2214
  162SOPE    HX18127   2.642   4.304  10.852 -0.7910  0.2349  0.2418
  162SOPE    HY18128   2.771   4.315  10.734  0.3707 -0.6113  1.7512
  162SOPE   O3118129   2.582   4.237  10.659  0.0720 -0.3214  0.4182
  162SOPE   C3118130   2.618   4.226  10.536  0.0601  0.4900 -0.1545
  162SOPE   O3218131   2.726   4.257  10.483  0.1930 -0.1602 -0.5411
  162SOPE   C3218132   2.507   4.160  10.463 -0.3748  0.5999  1.0417
  162SOPE   H2X18133   2.421   4.230  10.474 -2.4693 -1.2253 -2.2130
  162SOPE   H2Y18134   2.478   4.060  10.504 -0.2280  0.0549 -0.1532
  162SOPE   C2318135   2.856   4.777  10.478 -0.2657 -0.1827 -0.3593
  162SOPE   H3R18136   2.966   4.770  10.492 -0.5692 -1.3502  1.7852
  162SOPE   H3S18137   2.808   4.846  10.551 -0.7085  0.7137 -1.4748
  162SOPE   C2418138   2.819   4.853  10.343 -0.2568 -0.1241 -0.2639
  162SOPE   H4R18139   2.714   4.849  10.307 -0.2735 -4.3557 -0.2587
  162SOPE   H4S18140   2.849   4.959  10.354 -2.0470  0.2723  1.2263
  162SOPE   C2518141   2.903   4.797  10.227 -0.2706  0.0385  0.7792
  162SOPE   H5R18142   3.004   4.765  10.259 -1.4017 -2.3092  2.3433
  162SOPE   H5S18143   2.851   4.702  10.202 -0.8485  0.3179  0.9045
  162SOPE   C2618144   2.881   4.877  10.101 -0.3517 -0.1794  0.0235
  162SOPE   H6R18145   2.925   4.817  10.019  3.8824  1.5220  0.7791
  162SOPE   H6S18146   2.775   4.901  10.076 -0.7221 -0.8711  0.8706
  162SOPE   C2718147   2.961   5.008  10.103  0.0208 -0.3301  0.2162
  162SOPE   H7R18148   2.916   5.070  10.183  0.2430  0.7909 -0.5051
  162SOPE   H7S18149   3.068   5.006  10.134 -0.0713  0.2274  0.5732
  162SOPE   C2818150   2.966   5.087   9.970  0.1750 -0.6116 -0.1492
  162SOPE   H8R18151   3.039   5.171   9.968  0.2532 -0.6832 -0.3138
  162SOPE   H8S18152   2.981   5.018   9.884  1.1672 -1.9192  1.0238
  162SOPE   C2918153   2.829   5.147   9.948  0.1852 -0.2699 -0.5767
  162SOPE   H9118154   2.753   5.102  10.013 -0.0902  1.2096  0.1653
  162SOPE  C21018155   2.797   5.240   9.858  0.4255  0.0518 -0.0280
  162SOPE  H10118156   2.699   5.290   9.861  2.0140  3.4713 -0.0724
  162SOPE  C21118157   2.898   5.297   9.759 -0.6591  0.2928 -0.7069
  162SOPE  H11R18158   2.990   5.234   9.761 -2.7274 -3.0075 -0.8333
  162SOPE  H11S18159   2.923   5.403   9.779  0.4128 -0.0473 -0.1421
  162SOPE  C21218160   2.834   5.282   9.616 -0.0684 -0.2255  0.0736
  162SOPE  H12R18161   2.742   5.343   9.614  0.8178  1.2707  1.5675
  162SOPE  H12S18162   2.814   5.173   9.609 -0.4999 -0.0814 -1.1348
  162SOPE  C21318163   2.941   5.294   9.510  0.0527 -0.8287  0.5660
  162SOPE  H13R18164   3.014   5.212   9.531 -1.1689 -1.3536  3.0730
  162SOPE  H13S18165   2.991   5.391   9.528 -1.6123 -0.1218  1.5098
  162SOPE  C21418166   2.884   5.292   9.365 -0.3025 -0.4241 -0.3336
  162SOPE  H14R18167   2.821   5.383   9.366  1.9161  1.1999  1.0154
  162SOPE  H14S18168   2.825   5.202   9.338  2.2771 -2.3149 -0.0025
  162SOPE  C21518169   2.997   5.304   9.259  0.3530  0.4229 -0.0060
  162SOPE  H15R18170   3.057   5.211   9.250  0.6203  0.5790  0.1434
  162SOPE  H15S18171   3.067   5.387   9.284  0.4354 -0.4853  3.3115
  162SOPE  C21618172   2.943   5.342   9.124  0.3172  0.2440 -0.1394
  162SOPE  H16R18173   2.881   5.433   9.135  0.7145  0.4173  0.7182
  162SOPE  H16S18174   2.887   5.261   9.072  0.5879  0.0716 -0.1664
  162SOPE  C21718175   3.060   5.396   9.037  0.7920 -0.0773  0.1551
  162SOPE  H17R18176   3.035   5.365   8.933  0.6622 -0.6331  0.3464
  162SOPE  H17S18177   3.154   5.341   9.057  1.3968  0.8693 -0.0347
  162SOPE  C21818178   3.074   5.544   9.041 -0.2556  0.1484  0.2547
  162SOPE  H18R18179   2.976   5.596   9.040 -1.3629 -1.8634 -0.2342
  162SOPE  H18S18180   3.141   5.586   8.962 -0.0942  1.9967  1.3029
  162SOPE  H18T18181   3.126   5.571   9.135  0.7276 -0.5120 -0.0790
  162SOPE   C3318182   2.533   4.136  10.316 -0.6736 -0.1632  1.2104
  162SOPE   H3X18183   2.622   4.074  10.289 -1.5664 -0.0452 -2.5728
  162SOPE   H3Y18184   2.559   4.235  10.272 -1.1397 -0.3167  0.5654
  162SOPE   C3418185   2.410   4.073  10.256 -0.1784 -0.7657 -0.3582
  162SOPE   H4X18186   2.316   4.117  10.294 -0.6545 -3.9159  2.6879
  162SOPE   H4Y18187   2.403   3.971  10.301  1.9450 -0.5314  0.6192
  162SOPE   C3518188   2.419   4.057  10.106  0.3710  0.0592 -0.1395
  162SOPE   H5X18189   2.319   4.021  10.074  0.8748 -1.9020  0.3735
  162SOPE   H5Y18190   2.486   3.974  10.076 -0.2003 -0.0663 -1.0902
  162SOPE   C3618191   2.460   4.183  10.019  0.1806  1.0091 -0.4370
  162SOPE   H6X18192   2.564   4.220  10.031  0.4809 -0.1011  0.5239
  162SOPE   H6Y18193   2.398   4.271  10.045 -1.1781 -0.1016  0.1872
  162SOPE   C3718194   2.443   4.161   9.866 -0.5692  0.0019  0.0882
  162SOPE   H7X18195   2.337   4.140   9.841 -0.7366  0.3553  0.4890
  162SOPE   H7Y18196   2.503   4.073   9.834  1.0588  1.5719 -1.4056
  162SOPE   C3818197   2.483   4.283   9.782 -0.0321  0.5301 -0.3881
  162SOPE   H8X18198   2.578   4.315   9.831 -0.2243 -1.0939  1.1584
  162SOPE   H8Y18199   2.414   4.366   9.807  0.9823  0.9860  1.0992
  162SOPE   C3918200   2.482   4.243   9.637  0.3606 -0.0308 -0.5716
  162SOPE   H9X18201   2.380   4.204   9.620  1.2437 -2.7584 -0.1212
  162SOPE   H9Y18202   2.563   4.168   9.624  1.1765  0.6287  0.4512
  162SOPE  C31018203   2.509   4.365   9.543 -0.5775  0.4633 -0.4497
  162SOPE  H10X18204   2.607   4.410   9.573  0.6458 -2.9935  1.2612
  162SOPE  H10Y18205   2.427   4.437   9.561 -1.2174  0.0977 -1.8059
  162SOPE  C31118206   2.515   4.320   9.397  0.2230  0.0044  0.2075
  162SOPE  H11X18207   2.411   4.292   9.370  0.5819  0.5824 -1.9598
  162SOPE  H11Y18208   2.573   4.225   9.394 -2.3463 -1.6542 -1.0101
  162SOPE  C31218209   2.565   4.427   9.306 -0.8228  0.3580 -0.1316
  162SOPE  H12X18210   2.666   4.448   9.347  0.3378 -4.8416  0.3633
  162SOPE  H12Y18211   2.505   4.520   9.317  0.5923  1.1455  1.3366
  162SOPE  C31318212   2.581   4.388   9.158 -0.3691 -0.2122 -0.6200
  162SOPE  H13X18213   2.666   4.316   9.151  1.6441  2.0122 -0.2403
  162SOPE  H13Y18214   2.607   4.486   9.113 -1.2635  0.6651  0.6985
  162SOPE  C31418215   2.458   4.322   9.093  0.0217  0.1201 -0.7099
  162SOPE  H14X18216   2.371   4.391   9.098 -0.9235 -0.8399 -2.7123
  162SOPE  H14Y18217   2.429   4.222   9.132  1.4764 -0.9187 -2.1455
  162SOPE  C31518218   2.490   4.286   8.950 -0.4527 -0.1557  0.2240
  162SOPE  H15X18219   2.583   4.226   8.943 -0.5929 -0.5788  1.6346
  162SOPE  H15Y18220   2.520   4.386   8.914  2.1388  0.7473  4.2152
  162SOPE  C31618221   2.382   4.215   8.863 -0.2083  0.2576  0.4677
  162SOPE  H16X18222   2.433   4.179   8.771  0.4051  1.4154  0.3297
  162SOPE  H16Y18223   2.317   4.301   8.836  3.2768  2.2852 -2.4801
  162SOPE  C31718224   2.308   4.097   8.915  0.6320  0.7922 -0.2947
  162SOPE  H17X18225   2.223   4.080   8.845 -0.5713 -1.4336  1.5815
  162SOPE  H17Y18226   2.260   4.115   9.013  2.4362  1.9093  0.4231
  162SOPE  C31818227   2.399   3.982   8.950 -0.7845  0.0809  0.6131
  162SOPE  H18X18228   2.442   3.990   9.052 -0.5481 -3.8309  1.0011
  162SOPE  H18Y18229   2.485   3.988   8.880 -1.3174  0.6334 -0.0063
  162SOPE  H18Z18230   2.347   3.884   8.938 -0.7782  0.0587  0.7660
  163SOPE     N18231   4.789   4.245  10.433  0.2645  0.6997 -0.3806
  163SOPE   HN118232   4.687   4.261  10.447  0.2943 -1.2571  3.3701
  163SOPE   HN218233   4.840   4.326  10.393  0.5659  0.9590  0.5203
  163SOPE   HN318234   4.795   4.167  10.363  1.0207  1.2865 -0.9962
  163SOPE   C1218235   4.858   4.204  10.552  0.3961 -0.0579 -0.4649
  163SOPE  H12A18236   4.888   4.297  10.605  0.7296 -0.8679  0.8225
  163SOPE  H12B18237   4.946   4.147  10.517 -0.8468 -2.0773 -0.4731
  163SOPE   C1118238   4.760   4.111  10.632  0.4420 -0.4375  0.1124
  163SOPE  H11A18239   4.666   4.170  10.642 -0.5821 -1.4986 -2.4795
  163SOPE  H11B18240   4.810   4.108  10.731 -0.5911  1.1710  0.7314
  163SOPE     P18241   4.659   3.871  10.623  0.0927  0.3513  0.5208
  163SOPE   O1318242   4.559   3.922  10.717 -0.4050 -0.2298  0.5117
  163SOPE   O1418243   4.759   3.778  10.673 -0.1544  0.2277 -0.1533
  163SOPE   O1218244   4.726   3.995  10.553 -0.0009 -0.5462 -0.2819
  163SOPE   O1118245   4.584   3.809  10.501  0.1807  0.2869 -0.3020
  163SOPE    C118246   4.638   3.743  10.389  0.2841  0.6927 -0.6540
  163SOPE    HA18247   4.564   3.665  10.360 -0.3434  1.1470 -0.3030
  163SOPE    HB18248   4.730   3.687  10.416 -1.0399 -1.1761  0.1692
  163SOPE    C218249   4.676   3.832  10.269 -0.1362  0.1845 -0.2751
  163SOPE    HS18250   4.760   3.894  10.307  1.7051 -2.2165 -0.1644
  163SOPE   O2118251   4.560   3.905  10.221  0.0394  0.2470  0.3271
  163SOPE   C2118252   4.578   4.039  10.204  0.8117 -0.6657 -0.4493
  163SOPE   O2218253   4.687   4.091  10.224  0.4192 -0.0604  0.2788
  163SOPE   C2218254   4.440   4.111  10.170 -0.2366 -0.1558  0.4733
  163SOPE   H2R18255   4.390   4.160  10.256 -0.7215  1.1066 -0.4923
  163SOPE   H2S18256   4.376   4.039  10.116 -0.0021 -0.5917  0.7684
  163SOPE    C318257   4.729   3.744  10.151  0.0669  0.4236 -0.6974
  163SOPE    HX18258   4.646   3.677  10.122 -1.4075  1.3080  1.2996
  163SOPE    HY18259   4.806   3.669  10.179 -2.3592 -2.5023 -1.3766
  163SOPE   O3118260   4.768   3.819  10.038  0.2195 -0.7972  0.4300
  163SOPE   C3118261   4.886   3.875  10.034 -0.3345  0.3542 -0.5598
  163SOPE   O3218262   4.976   3.867  10.117 -0.1008  0.7822 -0.3260
  163SOPE   C3218263   4.899   3.973   9.915 -0.6626  0.2499 -0.1993
  163SOPE   H2X18264   4.802   3.984   9.862 -0.1078  5.0669 -0.6724
  163SOPE   H2Y18265   4.975   3.923   9.851  0.6636  0.8559  0.8709
  163SOPE   C2318266   4.468   4.219  10.061  0.3472 -0.1739  0.0998
  163SOPE   H3R18267   4.524   4.302  10.109 -1.4085  1.5529 -0.7066
  163SOPE   H3S18268   4.374   4.272  10.038  0.5325  0.1215  0.0216
  163SOPE   C2418269   4.538   4.171   9.927  0.0331  0.5000  0.0959
  163SOPE   H4R18270   4.640   4.131   9.945 -0.6625 -1.8895 -0.8561
  163SOPE   H4S18271   4.491   4.075   9.894  1.5958 -2.0476  4.3812
  163SOPE   C2518272   4.539   4.270   9.815 -0.2869  0.4894  0.4751
  163SOPE   H5R18273   4.438   4.318   9.807 -0.7866  0.0219  3.0245
  163SOPE   H5S18274   4.602   4.356   9.847 -0.5150  0.9972 -0.4001
  163SOPE   C2618275   4.597   4.226   9.680 -0.3446 -0.2294  0.4506
  163SOPE   H6R18276   4.697   4.185   9.704  0.6833  1.5340 -0.5591
  163SOPE   H6S18277   4.537   4.148   9.628  1.7210 -0.2907 -2.0841
  163SOPE   C2718278   4.631   4.347   9.582  0.2847  0.4018 -0.6303
  163SOPE   H7R18279   4.684   4.429   9.635  0.7997 -0.0328 -0.4620
  163SOPE   H7S18280   4.707   4.303   9.514 -0.1293 -0.8349 -0.3233
  163SOPE   C2818281   4.512   4.386   9.505  0.3773 -0.3318 -0.4428
  163SOPE   H8R18282   4.439   4.434   9.573  1.1228  1.5507 -0.9140
  163SOPE   H8S18283   4.539   4.476   9.446  1.8117 -1.0854 -1.0162
  163SOPE   C2918284   4.442   4.288   9.425 -0.5216  0.2062  0.5488
  163SOPE   H9118285   4.383   4.211   9.477  1.4468 -0.1777  2.3373
  163SOPE  C21018286   4.454   4.271   9.294 -0.3270 -0.1389  0.2829
  163SOPE  H10118287   4.399   4.187   9.251  1.0513 -1.5679  1.2104
  163SOPE  C21118288   4.555   4.334   9.201  0.6002  0.5053  0.3727
  163SOPE  H11R18289   4.626   4.392   9.264  1.8961 -0.2363 -0.3508
  163SOPE  H11S18290   4.504   4.414   9.144 -0.9575  1.0534  2.4050
  163SOPE  C21218291   4.661   4.250   9.133 -0.6537  0.6293 -0.4444
  163SOPE  H12R18292   4.713   4.184   9.205 -3.8291 -0.1971  1.2837
  163SOPE  H12S18293   4.726   4.332   9.096  2.4340 -0.1209  2.7690
  163SOPE  C21318294   4.605   4.183   9.007  0.0097 -0.8139  0.8379
  163SOPE  H13R18295   4.560   4.256   8.936  0.3945  0.4861  1.8946
  163SOPE  H13S18296   4.513   4.125   9.031 -0.5129 -0.5446 -0.4669
  163SOPE  C21418297   4.713   4.122   8.926  0.5670  0.3554 -0.0173
  163SOPE  H14R18298   4.770   4.047   8.984 -1.2482  0.6443  2.2540
  163SOPE  H14S18299   4.781   4.205   8.898  0.0301  0.6529 -0.4551
  163SOPE  C21518300   4.668   4.040   8.801 -0.6279 -0.8013  0.6142
  163SOPE  H15R18301   4.563   4.008   8.816 -1.1719  0.9317  0.6831
  163SOPE  H15S18302   4.733   3.953   8.778  0.5895  0.1430  0.3546
  163SOPE  C21618303   4.677   4.137   8.680  0.7056 -0.7133  0.0348
  163SOPE  H16R18304   4.778   4.183   8.683  1.1744 -1.7026  2.3604
  163SOPE  H16S18305   4.602   4.218   8.692  1.4934 -0.0876  0.9673
  163SOPE  C21718306   4.667   4.052   8.553 -0.1106 -0.0153  0.4114
  163SOPE  H17R18307   4.562   4.030   8.524 -0.5723  2.1488  0.3057
  163SOPE  H17S18308   4.719   3.954   8.567 -0.5096  0.1205  3.5068
  163SOPE  C21818309   4.737   4.121   8.432  0.1066  0.3862 -0.5805
  163SOPE  H18R18310   4.730   4.050   8.346 -1.5890 -0.7938  0.4748
  163SOPE  H18S18311   4.845   4.146   8.441 -0.1699  1.9445 -1.1908
  163SOPE  H18T18312   4.691   4.220   8.411 -0.3230  0.5714  1.0853
  163SOPE   C3318313   4.958   4.108   9.964 -0.1904  0.3598 -0.3688
  163SOPE   H3X18314   5.059   4.081  10.001 -1.1036  1.2499  3.1417
  163SOPE   H3Y18315   4.911   4.156  10.052  0.4950  2.6325 -1.1856
  163SOPE   C3418316   4.944   4.219   9.859 -0.1067 -0.4117 -0.3104
  163SOPE   H4X18317   5.004   4.302   9.899  0.2266 -0.7033 -0.1989
  163SOPE   H4Y18318   4.837   4.248   9.858  0.7448  3.0732 -0.9747
  163SOPE   C3518319   5.005   4.179   9.726  0.6292  0.5167 -0.1786
  163SOPE   H5X18320   4.953   4.090   9.684 -0.5109  0.1852  1.8379
  163SOPE   H5Y18321   5.109   4.147   9.747  0.2601  0.0060  0.9191
  163SOPE   C3618322   4.999   4.292   9.620 -0.5879  0.0345  0.4860
  163SOPE   H6X18323   5.076   4.368   9.645  1.6554 -1.3835 -1.6326
  163SOPE   H6Y18324   4.902   4.345   9.608 -0.9994 -1.0501 -1.6760
  163SOPE   C3718325   5.024   4.238   9.474 -0.5507  0.4453 -0.3664
  163SOPE   H7X18326   4.945   4.162   9.454 -1.6066  1.4790 -0.1792
  163SOPE   H7Y18327   5.119   4.181   9.465 -0.9493 -0.0306 -2.0294
  163SOPE   C3818328   5.018   4.343   9.363  0.5224  0.0257 -0.1870
  163SOPE   H8X18329   5.086   4.430   9.379 -2.0899  2.3210 -0.7069
  163SOPE   H8Y18330   4.924   4.401   9.369 -0.0988 -0.9927  0.0331
  163SOPE   C3918331   5.053   4.290   9.221  0.0491 -0.4056  0.1535
  163SOPE   H9X18332   4.987   4.204   9.195 -1.6099  0.6501  0.7263
  163SOPE   H9Y18333   5.159   4.254   9.221  0.1220 -0.3338  2.3903
  163SOPE  C31018334   5.036   4.394   9.112 -0.1153 -0.6568 -0.1763
  163SOPE  H10X18335   5.107   4.476   9.133 -0.3042 -0.7527  0.9004
  163SOPE  H10Y18336   4.935   4.436   9.135  0.4881 -0.9132  3.6072
  163SOPE  C31118337   5.037   4.346   8.970  0.3480  0.3056  0.2564
  163SOPE  H11X18338   4.979   4.252   8.956  0.6182 -0.0256  1.2595
  163SOPE  H11Y18339   5.143   4.334   8.939  1.4798  0.9469  3.4928
  163SOPE  C31218340   4.982   4.455   8.884  0.2518 -0.2498 -0.0816
  163SOPE  H12X18341   5.031   4.546   8.924  0.0601 -0.6823  1.1707
  163SOPE  H12Y18342   4.872   4.470   8.882  0.0909 -1.3909 -0.4719
  163SOPE  C31318343   5.038   4.422   8.738 -0.0931 -0.3490 -1.1982
  163SOPE  H13X18344   5.007   4.326   8.692  0.5095 -0.5811 -1.1277
  163SOPE  H13Y18345   5.149   4.419   8.741 -0.0736 -0.8242 -2.1181
  163SOPE  C31418346   4.998   4.534   8.645  0.1381  0.4446  0.0285
  163SOPE  H14X18347   5.057   4.524   8.552  1.4870 -1.2170  0.9982
  163SOPE  H14Y18348   5.026   4.638   8.675  0.9094  0.4139 -0.5757
  163SOPE  C31518349   4.840   4.537   8.616  0.3608  0.4026 -0.3394
  163SOPE  H15X18350   4.796   4.595   8.699  0.3537 -2.9394  2.1731
  163SOPE  H15Y18351   4.795   4.436   8.627  0.1262  0.7634  3.0753
  163SOPE  C31618352   4.806   4.610   8.482  0.4759 -0.1718 -0.6930
  163SOPE  H16X18353   4.863   4.704   8.464 -1.3875  0.9621 -0.9522
  163SOPE  H16Y18354   4.700   4.637   8.499  0.6893 -0.5881  1.6086
  163SOPE  C31718355   4.832   4.515   8.363  0.2012 -0.4948  0.2277
  163SOPE  H17X18356   4.787   4.415   8.384 -1.2549  0.1202  0.1405
  163SOPE  H17Y18357   4.942   4.503   8.355  0.3876  0.8146  0.6318
  163SOPE  C31818358   4.779   4.572   8.234 -0.1633 -0.0395  0.7257
  163SOPE  H18X18359   4.670   4.589   8.228  0.0724  0.9940 -1.4573
  163SOPE  H18Y18360   4.801   4.498   8.154  1.2180  0.0546  0.9835
  163SOPE  H18Z18361   4.826   4.669   8.204  2.0518 -1.1920  0.2609
  164SOPE     N18362   6.658   2.442  11.111  0.4564 -0.1222 -0.9259
  164SOPE   HN118363   6.752   2.402  11.092  1.2533  1.1692  0.1469
  164SOPE   HN218364   6.614   2.394  11.192  2.0246 -0.4386 -0.2361
  164SOPE   HN318365   6.603   2.444  11.022  0.8969  4.0135 -1.2850
  164SOPE   C1218366   6.684   2.591  11.149  0.3791  0.4890  0.2905
  164SOPE  H12A18367   6.731   2.584  11.250 -0.8804 -1.3404  0.8163
  164SOPE  H12B18368   6.582   2.635  11.153 -0.5201 -1.2555 -1.3865
  164SOPE   C1118369   6.772   2.675  11.051 -1.0368 -0.6145  0.3127
  164SOPE  H11A18370   6.864   2.625  11.013  1.0652  1.8705  1.7831
  164SOPE  H11B18371   6.817   2.763  11.101 -1.8468 -0.6855  1.1822
  164SOPE     P18372   6.596   2.826  10.936 -0.0595  0.0342 -0.2083
  164SOPE   O1318373   6.624   2.919  11.051  0.1172 -0.1034  0.1715
  164SOPE   O1418374   6.462   2.766  10.931  0.5910 -0.0720 -0.3911
  164SOPE   O1218375   6.699   2.711  10.938 -0.0420 -0.3736 -0.0958
  164SOPE   O1118376   6.630   2.898  10.798 -0.0113 -0.2763  0.4102
  164SOPE    C118377   6.767   2.925  10.760 -0.7178 -0.1849  0.4034
  164SOPE    HA18378   6.848   2.896  10.830  2.2125  0.5212 -2.4875
  164SOPE    HB18379   6.778   3.035  10.758  0.4486 -0.2931  0.2256
  164SOPE    C218380   6.794   2.864  10.620 -0.1994 -0.7410  0.3971
  164SOPE    HS18381   6.899   2.885  10.590 -0.3362  1.1180  1.0862
  164SOPE   O2118382   6.717   2.932  10.520 -0.4938 -0.2686  0.3853
  164SOPE   C2118383   6.750   3.053  10.487 -0.7580 -0.1321 -0.5148
  164SOPE   O2218384   6.854   3.111  10.516  0.0730  0.1890  0.2543
  164SOPE   C2218385   6.649   3.109  10.396  0.4437 -0.7425 -0.4654
  164SOPE   H2R18386   6.659   3.220  10.399 -1.8017 -0.5315  1.6847
  164SOPE   H2S18387   6.544   3.083  10.423  0.1755  1.3854  0.7104
  164SOPE    C318388   6.776   2.711  10.616 -0.2266  0.4103 -0.1015
  164SOPE    HX18389   6.688   2.682  10.678 -0.5606 -1.2132 -1.2658
  164SOPE    HY18390   6.862   2.662  10.665  0.3030  2.0582  0.6774
  164SOPE   O3118391   6.777   2.664  10.478  0.0400 -0.5693  0.0693
  164SOPE   C3118392   6.668   2.647  10.419  0.1364 -0.0640  0.0731
  164SOPE   O3218393   6.554   2.652  10.466 -0.2957 -0.0269 -0.5046
  164SOPE   C3218394   6.692   2.600  10.272  0.0883 -0.0151 -0.5707
  164SOPE   H2X18395   6.720   2.492  10.279 -0.9742 -0.4968 -2.6949
  164SOPE   H2Y18396   6.779   2.655  10.230 -1.6151  2.4726 -1.0867
  164SOPE   C2318397   6.685   3.057  10.249  0.0660  0.4070 -0.2443
  164SOPE   H3R18398   6.660   2.948  10.247 -2.8936  1.0102 -0.4944
  164SOPE   H3S18399   6.793   3.070  10.230  0.6475 -1.9654  1.0102
  164SOPE   C2418400   6.605   3.114  10.131  0.1949 -0.4863  0.0334
  164SOPE   H4R18401   6.500   3.114  10.166  0.5396 -1.5959  1.1137
  164SOPE   H4S18402   6.654   3.213  10.121 -0.4324 -0.3013 -1.5364
  164SOPE   C2518403   6.614   3.017  10.012 -0.1357  0.2850 -0.0876
  164SOPE   H5R18404   6.721   2.996   9.992 -0.5274 -2.9310  0.6041
  164SOPE   H5S18405   6.560   2.925  10.044 -1.5203  1.4298  1.0095
  164SOPE   C2618406   6.566   3.069   9.877 -0.2452 -0.5411 -0.5814
  164SOPE   H6R18407   6.455   3.064   9.878 -0.2921  0.3763 -0.6897
  164SOPE   H6S18408   6.574   3.180   9.874 -1.8295 -0.3814  0.1032
  164SOPE   C2718409   6.629   3.004   9.755 -0.1764  0.1287  0.5003
  164SOPE   H7R18410   6.737   3.030   9.750  0.0185 -0.9168 -1.9234
  164SOPE   H7S18411   6.620   2.894   9.767  1.6569 -0.1423 -0.3287
  164SOPE   C2818412   6.577   3.036   9.608 -0.0096  0.1738 -0.2045
  164SOPE   H8R18413   6.466   3.032   9.612  0.0167  0.3354  2.7157
  164SOPE   H8S18414   6.602   3.142   9.583 -2.3663  0.8262 -0.0828
  164SOPE   C2918415   6.618   2.940   9.502 -0.1505 -0.4591 -0.2650
  164SOPE   H9118416   6.642   2.836   9.531  0.0060  0.0864  1.6741
  164SOPE  C21018417   6.627   2.975   9.374  0.7130  0.1208 -0.1797
  164SOPE  H10118418   6.671   2.906   9.300  1.2898 -0.5058  0.7189
  164SOPE  C21118419   6.594   3.111   9.310  0.2747 -0.3778  0.3261
  164SOPE  H11R18420   6.683   3.178   9.313 -0.6377  0.8726  0.1024
  164SOPE  H11S18421   6.526   3.174   9.372  1.7718  2.3084 -0.5631
  164SOPE  C21218422   6.538   3.111   9.168  0.6308 -0.4997  0.0274
  164SOPE  H12R18423   6.505   3.215   9.145  0.7186 -0.3602  0.5252
  164SOPE  H12S18424   6.449   3.044   9.169 -1.3505  1.9627 -0.7023
  164SOPE  C21318425   6.638   3.076   9.061 -0.5864 -0.2414  0.3599
  164SOPE  H13R18426   6.661   2.968   9.065  2.3960  0.3402  1.0288
  164SOPE  H13S18427   6.731   3.136   9.070 -0.5309  0.2496 -2.4652
  164SOPE  C21418428   6.599   3.119   8.911  0.1328  0.6479  0.1473
  164SOPE  H14R18429   6.515   3.060   8.868 -0.2649  2.3787 -1.5795
  164SOPE  H14S18430   6.695   3.096   8.861  0.0312 -0.2114  0.3322
  164SOPE  C21518431   6.566   3.270   8.894 -0.0469 -0.2765  0.8337
  164SOPE  H15R18432   6.658   3.314   8.937  0.1643 -1.4643  1.6336
  164SOPE  H15S18433   6.488   3.303   8.967  0.9846  2.7307  0.7170
  164SOPE  C21618434   6.535   3.326   8.751 -0.5370  0.0572 -0.1994
  164SOPE  H16R18435   6.437   3.281   8.725  0.1921 -0.6138 -1.9432
  164SOPE  H16S18436   6.603   3.298   8.667 -0.3752 -1.3378  0.3815
  164SOPE  C21718437   6.528   3.478   8.752 -0.0480 -0.9787 -0.0865
  164SOPE  H17R18438   6.500   3.516   8.651 -0.5850 -1.1532 -0.0048
  164SOPE  H17S18439   6.630   3.511   8.779 -0.3641  0.4100 -0.4741
  164SOPE  C21818440   6.425   3.548   8.843 -0.1489 -0.5445  0.6563
  164SOPE  H18R18441   6.437   3.658   8.839 -0.7340 -0.4989 -0.3600
  164SOPE  H18S18442   6.448   3.512   8.945  0.3701 -0.4247  0.5836
  164SOPE  H18T18443   6.320   3.525   8.813 -0.1088 -0.3030  0.3191
  164SOPE   C3318444   6.572   2.621  10.176 -0.4772  0.7627 -0.2342
  164SOPE   H3X18445   6.557   2.725  10.138  3.0307  1.3832 -0.2817
  164SOPE   H3Y18446   6.488   2.596  10.244  0.6393 -1.0733  0.5389
  164SOPE   C3418447   6.567   2.543  10.042  0.3146  0.3970  0.0352
  164SOPE   H4X18448   6.461   2.562  10.016 -0.1050 -1.5352  0.1333
  164SOPE   H4Y18449   6.569   2.432  10.048 -1.8388 -0.0003 -3.3647
  164SOPE   C3518450   6.666   2.585   9.941 -0.2900 -0.4597 -0.0557
  164SOPE   H5X18451   6.773   2.578   9.973 -0.1190  0.4505 -0.3945
  164SOPE   H5Y18452   6.646   2.691   9.915  0.7141  0.3818  2.3745
  164SOPE   C3618453   6.653   2.518   9.800 -0.0721  0.4279  0.1081
  164SOPE   H6X18454   6.548   2.529   9.764 -0.6759 -0.7606  1.4387
  164SOPE   H6Y18455   6.673   2.409   9.810 -0.9875  0.3442  1.2033
  164SOPE   C3718456   6.755   2.578   9.695 -0.2500  0.3612 -0.2035
  164SOPE   H7X18457   6.857   2.541   9.717  0.5608  1.7695 -1.4328
  164SOPE   H7Y18458   6.757   2.688   9.712 -0.1463  0.1839  1.0026
  164SOPE   C3818459   6.715   2.549   9.546 -0.7056  0.5575 -0.6360
  164SOPE   H8X18460   6.620   2.601   9.518 -1.3148  0.1504  0.5813
  164SOPE   H8Y18461   6.685   2.443   9.529  1.9508 -0.5311  0.8937
  164SOPE   C3918462   6.826   2.603   9.456  0.0054 -0.7922  0.7304
  164SOPE   H9X18463   6.922   2.546   9.453  0.1119 -0.5934 -2.7012
  164SOPE   H9Y18464   6.855   2.706   9.486 -0.0569 -0.4601 -0.3286
  164SOPE  C31018465   6.780   2.600   9.309  0.0947  0.4278  0.2035
  164SOPE  H10X18466   6.680   2.647   9.294 -0.3478 -0.0116  1.6415
  164SOPE  H10Y18467   6.774   2.493   9.278 -0.2991  0.4338  0.2530
  164SOPE  C31118468   6.889   2.665   9.219 -0.2666  0.5653  0.3334
  164SOPE  H11X18469   6.976   2.598   9.236  1.5153  2.5351 -0.4654
  164SOPE  H11Y18470   6.921   2.767   9.248  1.3713  0.1548  0.0846
  164SOPE  C31218471   6.861   2.668   9.070 -0.0927 -0.1965 -0.6272
  164SOPE  H12X18472   6.784   2.746   9.049 -2.8771 -2.4163  0.6469
  164SOPE  H12Y18473   6.809   2.572   9.049  1.4746 -1.4127  0.7989
  164SOPE  C31318474   6.987   2.683   8.985  0.3863 -0.0841 -0.4362
  164SOPE  H13X18475   7.085   2.654   9.028  1.8157  0.6013 -3.0499
  164SOPE  H13Y18476   6.990   2.791   8.957  2.1847  0.4215  1.4251
  164SOPE  C31418477   6.976   2.605   8.852 -0.2845 -0.2614  0.2612
  164SOPE  H14X18478   6.911   2.667   8.788  1.6469 -0.0599 -1.5964
  164SOPE  H14Y18479   6.919   2.510   8.869  1.4936 -1.3444  0.4272
  164SOPE  C31518480   7.111   2.581   8.782  0.4628  0.2116 -0.4084
  164SOPE  H15X18481   7.179   2.545   8.863  0.8996 -1.1967 -1.3555
  164SOPE  H15Y18482   7.153   2.678   8.747 -0.9083  0.7716 -0.5421
  164SOPE  C31618483   7.113   2.485   8.661  0.3286  0.2650 -0.2065
  164SOPE  H16X18484   7.067   2.518   8.566  2.8154  1.0326 -1.2196
  164SOPE  H16Y18485   7.073   2.386   8.693  0.8937 -0.1763 -0.8390
  164SOPE  C31718486   7.251   2.453   8.609  0.1636  0.7856 -0.5350
  164SOPE  H17X18487   7.256   2.362   8.546  1.0266  0.6160 -0.2355
  164SOPE  H17Y18488   7.312   2.425   8.697  0.9585 -3.5309 -2.2203
  164SOPE  C31818489   7.323   2.567   8.534  0.7984 -0.5622  0.4579
  164SOPE  H18X18490   7.358   2.641   8.610 -1.9233 -0.0820  1.3293
  164SOPE  H18Y18491   7.254   2.626   8.471  2.6111 -0.0063 -1.1011
  164SOPE  H18Z18492   7.408   2.544   8.466  0.6022  2.6105 -1.0591
  165SOPE     N18493   5.722   1.993  10.544  0.0523  0.2887  0.5635
  165SOPE   HN118494   5.665   2.043  10.615 -0.3638  1.5131 -0.5994
  165SOPE   HN218495   5.661   1.945  10.475  1.7654 -1.6796  0.3078
  165SOPE   HN318496   5.757   1.914  10.603 -0.4733 -0.1626  0.2740
  165SOPE   C1218497   5.817   2.084  10.479 -0.3665 -0.4505  0.4206
  165SOPE  H12A18498   5.840   2.049  10.376  0.8870  0.4085  0.3885
  165SOPE  H12B18499   5.901   2.078  10.551 -2.2732 -0.7779  2.7239
  165SOPE   C1118500   5.782   2.231  10.457  0.0436  0.1805  0.0057
  165SOPE  H11A18501   5.687   2.225  10.398 -1.4471 -2.1328  2.4090
  165SOPE  H11B18502   5.871   2.271  10.405 -0.2574 -1.9487 -2.3849
  165SOPE     P18503   5.725   2.437  10.605 -0.3418 -0.5227 -0.1773
  165SOPE   O1318504   5.825   2.496  10.705  0.0986  0.4360  0.3508
  165SOPE   O1418505   5.579   2.445  10.631 -0.1216  0.4417  0.3041
  165SOPE   O1218506   5.754   2.287  10.584  0.1152 -0.0851  0.3127
  165SOPE   O1118507   5.760   2.502  10.461  0.3089 -0.7751  0.4354
  165SOPE    C118508   5.812   2.635  10.472 -0.0232  0.0932 -0.1122
  165SOPE    HA18509   5.896   2.642  10.543 -0.9676  1.6649  0.9191
  165SOPE    HB18510   5.728   2.700  10.506 -0.2035 -1.6556  3.1449
  165SOPE    C218511   5.875   2.677  10.338 -0.3251 -0.2879 -0.3120
  165SOPE    HS18512   5.927   2.774  10.355 -2.3721  0.7285  0.5591
  165SOPE   O2118513   5.774   2.699  10.231 -0.3229  0.1439 -0.1136
  165SOPE   C2118514   5.692   2.797  10.248 -0.1083  0.5723  0.9071
  165SOPE   O2218515   5.698   2.878  10.341  0.5121 -0.7030  0.2726
  165SOPE   C2218516   5.583   2.795  10.135 -0.1980 -0.0925 -0.4692
  165SOPE   H2R18517   5.495   2.770  10.198  1.3022 -1.2186  1.2928
  165SOPE   H2S18518   5.606   2.723  10.054 -3.7427 -1.2423 -0.6345
  165SOPE    C318519   5.988   2.574  10.281  0.0580 -0.6738 -0.6501
  165SOPE    HX18520   5.941   2.475  10.266 -0.3672 -0.6441  0.3916
  165SOPE    HY18521   6.072   2.574  10.354 -1.6509 -0.0743  1.4156
  165SOPE   O3118522   6.041   2.617  10.154 -0.6539  0.3470 -0.3023
  165SOPE   C3118523   6.128   2.714  10.152 -0.1038 -0.6770  0.4825
  165SOPE   O3218524   6.161   2.777  10.251  0.2617  0.0017 -0.5515
  165SOPE   C3218525   6.193   2.727  10.006  0.1730  0.3532 -0.8936
  165SOPE   H2X18526   6.121   2.682   9.934 -0.6378  0.7773 -0.3643
  165SOPE   H2Y18527   6.289   2.671  10.000  1.0335  1.9070 -2.1458
  165SOPE   C2318528   5.570   2.943  10.076  0.5140 -0.0908 -0.2723
  165SOPE   H3R18529   5.556   3.002  10.169 -0.2097  1.1285 -1.1243
  165SOPE   H3S18530   5.485   2.945  10.004 -0.1432 -1.1544  0.4456
  165SOPE   C2418531   5.694   2.996  10.009 -0.1305  0.1275  0.2285
  165SOPE   H4R18532   5.706   3.106  10.016  0.7550 -0.0017  0.9024
  165SOPE   H4S18533   5.789   2.960  10.055  0.7643  0.0478 -1.5900
  165SOPE   C2518534   5.693   2.949   9.865 -0.2228 -0.7492  0.8322
  165SOPE   H5R18535   5.798   2.953   9.828 -0.4807  3.2121  0.0432
  165SOPE   H5S18536   5.657   2.844   9.865 -0.4479 -0.6854  2.3033
  165SOPE   C2618537   5.619   3.037   9.760 -0.0209  0.5096 -0.4930
  165SOPE   H6R18538   5.513   3.036   9.793  0.5221  0.3459  1.3131
  165SOPE   H6S18539   5.660   3.140   9.768  0.0233  0.4105  0.7203
  165SOPE   C2718540   5.632   2.984   9.613 -0.8025 -0.5165  0.8825
  165SOPE   H7R18541   5.735   2.954   9.586 -1.5017 -1.7319 -0.5991
  165SOPE   H7S18542   5.566   2.896   9.598 -2.4363  0.8810 -0.7286
  165SOPE   C2818543   5.592   3.092   9.498 -0.2227  0.1833 -0.4856
  165SOPE   H8R18544   5.493   3.138   9.518  0.6405  1.7739  0.3042
  165SOPE   H8S18545   5.663   3.176   9.512 -0.9507  0.8079 -0.5025
  165SOPE   C2918546   5.593   3.044   9.355 -0.5174 -0.0035  0.1305
  165SOPE   H9118547   5.696   3.035   9.316  0.0694  1.6035  1.2301
  165SOPE  C21018548   5.487   3.005   9.277  0.0841 -0.2887 -0.2469
  165SOPE  H10118549   5.508   2.994   9.170  1.9459 -0.2103  0.0684
  165SOPE  C21118550   5.337   3.006   9.307  0.2639  0.4540  0.2491
  165SOPE  H11R18551   5.302   3.110   9.292  1.1028  0.7992  0.5766
  165SOPE  H11S18552   5.323   2.974   9.413 -2.8426  0.0577 -0.1984
  165SOPE  C21218553   5.270   2.909   9.212  0.4068 -0.0946 -1.2389
  165SOPE  H12R18554   5.180   2.877   9.269  0.7065  2.2778  0.7655
  165SOPE  H12S18555   5.327   2.819   9.181  1.3405  0.4227 -1.0651
  165SOPE  C21318556   5.229   2.974   9.079 -0.2527 -0.4126 -0.6375
  165SOPE  H13R18557   5.320   3.004   9.024 -0.7708  0.5000 -1.0254
  165SOPE  H13S18558   5.163   3.063   9.085  1.1579  0.5575  1.1700
  165SOPE  C21418559   5.142   2.880   8.993 -0.2831 -0.5658 -0.7877
  165SOPE  H14R18560   5.046   2.853   9.043  0.4314 -0.2295  0.8220
  165SOPE  H14S18561   5.201   2.786   8.990  1.4409  0.4384  0.0407
  165SOPE  C21518562   5.113   2.921   8.845 -0.0375 -0.2803 -0.2017
  165SOPE  H15R18563   5.086   2.835   8.780 -0.4385 -0.2182 -0.1185
  165SOPE  H15S18564   5.205   2.950   8.790  1.0214 -0.6973  1.2912
  165SOPE  C21618565   5.008   3.032   8.829  0.5239 -0.3591  0.2352
  165SOPE  H16R18566   5.034   3.124   8.884  0.1687 -0.8520  1.2416
  165SOPE  H16S18567   4.919   3.002   8.889  0.4367 -2.9299 -1.0015
  165SOPE  C21718568   4.956   3.059   8.688  0.1897 -0.0317  0.2406
  165SOPE  H17R18569   4.888   2.976   8.660  0.1802  0.2126 -0.4998
  165SOPE  H17S18570   5.048   3.049   8.625 -0.1980  0.7821 -0.4705
  165SOPE  C21818571   4.898   3.199   8.656  0.8109 -0.6030 -0.1009
  165SOPE  H18R18572   4.868   3.201   8.549  1.0884 -1.7680 -0.2103
  165SOPE  H18S18573   4.969   3.285   8.668  1.4479 -1.1796  0.3544
  165SOPE  H18T18574   4.806   3.221   8.713  0.5271  0.6321 -0.9888
  165SOPE   C3318575   6.205   2.875   9.978 -0.3909 -0.1179 -0.0683
  165SOPE   H3X18576   6.251   2.891   9.878 -1.8752 -1.6772 -1.0528
  165SOPE   H3Y18577   6.268   2.929  10.052  0.8450 -0.8898 -0.5302
  165SOPE   C3418578   6.073   2.955   9.969  0.9560 -0.2107  0.3472
  165SOPE   H4X18579   6.028   2.941  10.070 -0.8064 -0.9328 -0.4956
  165SOPE   H4Y18580   6.005   2.918   9.889  1.3856 -2.0557  0.7900
  165SOPE   C3518581   6.076   3.105   9.963 -0.1051 -0.2197 -0.7707
  165SOPE   H5X18582   6.136   3.138  10.050  1.1746 -0.5639 -1.5032
  165SOPE   H5Y18583   5.975   3.152   9.964  1.1152  2.7110  2.2098
  165SOPE   C3618584   6.147   3.146   9.831  0.1440  0.0742 -0.0115
  165SOPE   H6X18585   6.257   3.129   9.834  0.8060  3.4860 -0.6412
  165SOPE   H6Y18586   6.158   3.257   9.825  0.5131  0.1236  1.2765
  165SOPE   C3718587   6.089   3.090   9.704  0.5119  0.2870  0.1442
  165SOPE   H7X18588   5.980   3.110   9.701  0.3923 -0.3376  0.3567
  165SOPE   H7Y18589   6.088   2.979   9.705  1.5031  0.2380 -1.0208
  165SOPE   C3818590   6.153   3.143   9.579 -0.0350  0.3379  0.3958
  165SOPE   H8X18591   6.264   3.138   9.576 -0.0997 -1.2372  0.0276
  165SOPE   H8Y18592   6.112   3.247   9.578 -0.6626  0.1235 -1.9675
  165SOPE   C3918593   6.096   3.074   9.456  0.9216  0.1477  0.3276
  165SOPE   H9X18594   5.985   3.074   9.457  0.7964 -2.5597 -1.6718
  165SOPE   H9Y18595   6.115   2.965   9.469 -2.6464 -0.8584 -1.4908
  165SOPE  C31018596   6.139   3.139   9.319  0.0224 -0.3487 -0.4864
  165SOPE  H10X18597   6.247   3.161   9.333 -0.3310  1.2121  0.0066
  165SOPE  H10Y18598   6.080   3.230   9.295 -1.3737 -1.4616 -1.4784
  165SOPE  C31118599   6.115   3.051   9.194  0.4104  0.3603  0.5520
  165SOPE  H11X18600   6.010   3.014   9.193  0.4963 -0.0407  2.2851
  165SOPE  H11Y18601   6.171   2.955   9.205  0.1745  0.0437 -0.8491
  165SOPE  C31218602   6.152   3.125   9.068 -0.0785 -0.1262 -0.3183
  165SOPE  H12X18603   6.152   3.058   8.979 -1.2709 -0.5061 -0.0424
  165SOPE  H12Y18604   6.256   3.164   9.074 -0.3742  0.7199 -0.5030
  165SOPE  C31318605   6.051   3.238   9.030  0.4835  0.0374  0.5861
  165SOPE  H13X18606   6.086   3.329   9.083  3.1036 -1.4265  1.5543
  165SOPE  H13Y18607   5.953   3.201   9.066  0.0673 -1.1763 -1.6321
  165SOPE  C31418608   6.044   3.274   8.880 -0.2497 -0.2298  0.0432
  165SOPE  H14X18609   6.041   3.188   8.810 -0.1113  1.5881 -2.3207
  165SOPE  H14Y18610   6.147   3.317   8.871 -1.1456  1.7254 -1.7329
  165SOPE  C31518611   5.935   3.373   8.846 -0.2109  0.2464  0.2403
  165SOPE  H15X18612   5.948   3.463   8.909  0.1694 -0.1442  0.7330
  165SOPE  H15Y18613   5.840   3.322   8.871 -1.2211  2.2641  0.6753
  165SOPE  C31618614   5.927   3.418   8.697 -0.8398  0.4834 -0.4910
  165SOPE  H16X18615   5.825   3.449   8.665 -1.0563  0.6318  0.3063
  165SOPE  H16Y18616   5.962   3.330   8.640 -2.4709 -1.3481  1.2078
  165SOPE  C31718617   6.020   3.533   8.673  0.0529 -0.3537  0.6216
  165SOPE  H17X18618   6.117   3.511   8.722 -0.9828 -1.6111  2.2277
  165SOPE  H17Y18619   5.968   3.603   8.742 -0.8221 -1.0372  0.6730
  165SOPE  C31818620   6.025   3.591   8.532 -0.4246  0.4235 -0.0959
  165SOPE  H18X18621   5.932   3.635   8.489  1.2384  2.4806 -1.8805
  165SOPE  H18Y18622   6.066   3.514   8.463 -0.6608  0.1264  0.0988
  165SOPE  H18Z18623   6.090   3.682   8.528  0.5819 -0.3059 -1.5139
  166SOPE     N18624   0.779   2.070  11.009  0.5926 -0.3068 -0.1367
  166SOPE   HN118625   0.812   2.125  10.927 -2.2010  1.4339 -0.2580
  166SOPE   HN218626   0.700   2.123  11.051  0.0216 -0.2564 -1.2298
  166SOPE   HN318627   0.853   2.066  11.082  0.4815 -0.5183 -0.0375
  166SOPE   C1218628   0.742   1.927  10.977 -0.5340 -0.4741  0.1994
  166SOPE  H12A18629   0.654   1.938  10.909  0.2320 -2.1789 -1.1223
  166SOPE  H12B18630   0.716   1.882  11.075 -1.8410  3.1809  1.7105
  166SOPE   C1118631   0.858   1.847  10.919 -0.4499  0.1285  0.2881
  166SOPE  H11A18632   0.887   1.902  10.827  0.0038 -0.7131 -0.0823
  166SOPE  H11B18633   0.814   1.752  10.883  1.6641 -0.3202 -1.2813
  166SOPE     P18634   1.061   1.701  11.003  0.1457 -0.1184 -0.1527
  166SOPE   O1318635   1.040   1.632  10.877  0.4488 -0.3136  0.2602
  166SOPE   O1418636   1.056   1.615  11.122 -0.2775 -0.4127 -0.4416
  166SOPE   O1218637   0.963   1.829  11.015 -0.2076  0.1322 -0.3050
  166SOPE   O1118638   1.205   1.771  10.993 -0.4945 -0.0371 -0.4987
  166SOPE    C118639   1.238   1.895  11.062 -0.7669 -0.3148  0.4556
  166SOPE    HA18640   1.341   1.898  11.103 -1.1228  0.7430  1.3021
  166SOPE    HB18641   1.177   1.912  11.153  1.4030  0.2276  1.8688
  166SOPE    C218642   1.214   2.028  10.975 -0.3646  0.2232 -0.0908
  166SOPE    HS18643   1.104   2.041  10.977 -0.2534  1.2224  1.0235
  166SOPE   O2118644   1.274   1.997  10.846 -0.0928 -0.1845 -0.0674
  166SOPE   C2118645   1.209   2.046  10.749 -0.6611 -0.4359  0.0523
  166SOPE   O2218646   1.126   2.138  10.755  0.7320  0.0757  0.1876
  166SOPE   C2218647   1.248   1.986  10.610 -0.2956 -0.3800 -0.8153
  166SOPE   H2R18648   1.314   1.899  10.630  1.6942  1.2645  0.1530
  166SOPE   H2S18649   1.324   2.059  10.575  1.5781 -2.3977 -1.2035
  166SOPE    C318650   1.281   2.155  11.034  0.7467  0.8949  0.3090
  166SOPE    HX18651   1.388   2.127  11.031  0.8279  1.2750 -0.5307
  166SOPE    HY18652   1.247   2.169  11.139 -3.4348 -0.2056 -0.6872
  166SOPE   O3118653   1.258   2.275  10.952  0.8298 -0.5653 -0.4615
  166SOPE   C3118654   1.138   2.323  10.963  0.1984  0.2817 -1.4298
  166SOPE   O3218655   1.051   2.286  11.040 -0.6548  0.6349  0.3890
  166SOPE   C3218656   1.124   2.436  10.868 -0.6511 -0.4730 -0.1372
  166SOPE   H2X18657   1.129   2.397  10.764 -0.2394  1.8364 -1.0459
  166SOPE   H2Y18658   1.209   2.505  10.890 -1.5718  0.5204  0.4301
  166SOPE   C2318659   1.135   1.955  10.509 -0.3847 -0.1796  0.4010
  166SOPE   H3R18660   1.093   2.053  10.478  2.2361  0.8882 -0.0544
  166SOPE   H3S18661   1.055   1.899  10.561 -1.4289  0.2548 -0.6915
  166SOPE   C2418662   1.175   1.890  10.369  0.1703 -0.2239 -0.7551
  166SOPE   H4R18663   1.227   1.795  10.392 -2.2098 -1.4219 -0.0460
  166SOPE   H4S18664   1.079   1.859  10.322  0.3717 -1.1738 -0.5623
  166SOPE   C2518665   1.267   1.975  10.283  0.6882 -0.0124 -0.4093
  166SOPE   H5R18666   1.215   2.073  10.272  2.0598  0.6890 -0.8217
  166SOPE   H5S18667   1.360   1.993  10.341  0.9542  0.7307 -1.0458
  166SOPE   C2618668   1.285   1.908  10.149 -0.2069  0.2079  0.0498
  166SOPE   H6R18669   1.344   1.815  10.164  0.4965  0.6974  0.3861
  166SOPE   H6S18670   1.192   1.896  10.089 -0.4224 -0.4894  0.5106
  166SOPE   C2718671   1.390   1.989  10.060 -0.0749  0.6092  0.0903
  166SOPE   H7R18672   1.356   2.095  10.067  2.3986  1.3630  2.1127
  166SOPE   H7S18673   1.492   1.984  10.105  0.6494  2.6692 -1.1514
  166SOPE   C2818674   1.382   1.944   9.912  0.1113 -0.5904 -0.1720
  166SOPE   H8R18675   1.275   1.932   9.882  0.2930 -0.6497 -0.8169
  166SOPE   H8S18676   1.432   2.020   9.848  1.3202 -0.6108  0.7192
  166SOPE   C2918677   1.443   1.805   9.883 -0.1354  0.5801  0.6778
  166SOPE   H9118678   1.455   1.736   9.967 -3.4813  1.1646  1.7785
  166SOPE  C21018679   1.466   1.753   9.756 -0.0192 -0.5206  0.3658
  166SOPE  H10118680   1.511   1.654   9.741  0.3724 -0.1421 -1.0922
  166SOPE  C21118681   1.447   1.844   9.639  0.8792  0.4874  0.2140
  166SOPE  H11R18682   1.489   1.943   9.665  0.9889 -0.1128  2.5752
  166SOPE  H11S18683   1.340   1.840   9.609  1.8649  1.0240 -3.9769
  166SOPE  C21218684   1.516   1.791   9.503 -0.2481 -0.6618  0.5893
  166SOPE  H12R18685   1.505   1.861   9.417 -0.1128  0.8031  1.7303
  166SOPE  H12S18686   1.483   1.691   9.468  1.1937 -1.0905  0.3640
  166SOPE  C21318687   1.669   1.790   9.537 -0.3421  0.0073  0.2824
  166SOPE  H13R18688   1.692   1.717   9.617  0.0096 -0.2382 -0.0422
  166SOPE  H13S18689   1.701   1.890   9.574 -2.8536  1.3516 -0.8866
  166SOPE  C21418690   1.749   1.755   9.411  1.4478 -0.3192  0.0452
  166SOPE  H14R18691   1.772   1.848   9.356 -0.0076 -0.9450 -1.7371
  166SOPE  H14S18692   1.677   1.692   9.355  0.7532 -0.6744  1.3036
  166SOPE  C21518693   1.880   1.676   9.442 -0.1838  0.0849  0.1277
  166SOPE  H15R18694   1.847   1.591   9.505 -0.9604 -0.2460 -0.7056
  166SOPE  H15S18695   1.941   1.735   9.514  0.5074 -0.9006  0.3705
  166SOPE  C21618696   1.949   1.621   9.318  0.1179 -0.0978  0.2303
  166SOPE  H16R18697   1.888   1.570   9.240  0.5449 -1.1955  0.5957
  166SOPE  H16S18698   2.021   1.544   9.355  1.0093 -0.1491 -1.4560
  166SOPE  C21718699   2.039   1.727   9.256 -0.8244  0.2765  0.2009
  166SOPE  H17R18700   2.101   1.763   9.341 -0.2488  1.4275 -0.6843
  166SOPE  H17S18701   1.967   1.804   9.223 -0.2200  1.2252  1.0379
  166SOPE  C21818702   2.132   1.678   9.144 -0.0978  0.6212  0.8842
  166SOPE  H18R18703   2.202   1.762   9.123  0.0989  0.1996 -0.2545
  166SOPE  H18S18704   2.081   1.657   9.047  0.2517 -1.3044  1.0884
  166SOPE  H18T18705   2.194   1.589   9.167 -1.8948 -0.2742  2.5209
  166SOPE   C3318706   0.996   2.518  10.893  0.4569 -0.2195 -0.0678
  166SOPE   H3X18707   0.988   2.552  10.998 -0.2155  0.2653 -0.2681
  166SOPE   H3Y18708   0.909   2.452  10.871  1.7158 -1.7677 -0.6403
  166SOPE   C3418709   0.985   2.638  10.794 -0.0666  0.2510 -0.0295
  166SOPE   H4X18710   1.066   2.707  10.825 -2.2622  2.2658  1.5977
  166SOPE   H4Y18711   0.884   2.684  10.802 -1.0002 -1.7804  0.4564
  166SOPE   C3518712   1.011   2.614  10.644  0.1259  0.6541  0.3409
  166SOPE   H5X18713   1.118   2.585  10.640  0.5712  2.3241 -0.8794
  166SOPE   H5Y18714   1.005   2.713  10.596  0.9568  0.7025  0.3228
  166SOPE   C3618715   0.932   2.502  10.575  0.1890  0.0123  0.2001
  166SOPE   H6X18716   0.868   2.457  10.654  1.8269  0.9037  2.1228
  166SOPE   H6Y18717   1.014   2.432  10.547  0.7322  0.6714  0.1198
  166SOPE   C3718718   0.845   2.556  10.466  0.7825  0.6543  0.0408
  166SOPE   H7X18719   0.797   2.648  10.507  1.1863  0.5334  0.8120
  166SOPE   H7Y18720   0.769   2.480  10.440  1.3100  0.0542  0.2156
  166SOPE   C3818721   0.921   2.607  10.345 -0.3557 -0.3542 -0.0767
  166SOPE   H8X18722   0.980   2.531  10.289  1.3937  1.1262 -0.3324
  166SOPE   H8Y18723   0.998   2.679  10.381 -0.8668  0.2207 -0.1235
  166SOPE   C3918724   0.835   2.680  10.247  0.0205  0.0476  0.0190
  166SOPE   H9X18725   0.899   2.754  10.194 -1.2890  0.9584 -0.3647
  166SOPE   H9Y18726   0.753   2.728  10.305  0.8377 -0.1459  1.3719
  166SOPE  C31018727   0.784   2.591  10.138  0.4587 -0.3244 -0.6850
  166SOPE  H10X18728   0.710   2.514  10.170  0.1136 -0.5597 -1.9960
  166SOPE  H10Y18729   0.871   2.535  10.099  0.0609 -0.0003 -2.1258
  166SOPE  C31118730   0.733   2.679  10.022  0.1717  0.1886 -0.4416
  166SOPE  H11X18731   0.819   2.740   9.988  1.3929 -1.1440  0.1454
  166SOPE  H11Y18732   0.648   2.746  10.047 -1.4730 -0.3516 -3.9749
  166SOPE  C31218733   0.686   2.582   9.910 -0.3369 -0.0184 -0.3761
  166SOPE  H12X18734   0.610   2.518   9.959 -0.1365  0.6038  0.7889
  166SOPE  H12Y18735   0.775   2.522   9.883  0.8133  0.4949  1.9890
  166SOPE  C31318736   0.635   2.655   9.793 -0.0053 -0.1581  0.4046
  166SOPE  H13X18737   0.720   2.707   9.745  1.1444 -0.5935  1.8889
  166SOPE  H13Y18738   0.568   2.729   9.843 -0.6198 -1.1611  1.0941
  166SOPE  C31418739   0.554   2.568   9.692 -0.0118 -0.4780  0.3439
  166SOPE  H14X18740   0.494   2.501   9.757 -1.2178 -0.8821 -1.1547
  166SOPE  H14Y18741   0.612   2.491   9.637  0.2235  0.1882 -0.3671
  166SOPE  C31518742   0.447   2.638   9.607 -0.8518  0.3536  0.3443
  166SOPE  H15X18743   0.422   2.739   9.647 -1.0105  0.7274 -0.6753
  166SOPE  H15Y18744   0.351   2.583   9.606  0.7837 -2.8709  2.5481
  166SOPE  C31618745   0.497   2.655   9.466  0.0404  0.4044 -0.5323
  166SOPE  H16X18746   0.516   2.563   9.407  0.9732 -0.8844  1.6498
  166SOPE  H16Y18747   0.598   2.700   9.480  0.6306 -0.3094 -2.2092
  166SOPE  C31718748   0.411   2.747   9.379  0.3883  0.5910  0.4246
  166SOPE  H17X18749   0.387   2.840   9.434 -3.2763 -0.6663  1.2295
  166SOPE  H17Y18750   0.315   2.692   9.377 -0.3640  1.8623  0.6200
  166SOPE  C31818751   0.465   2.773   9.238 -0.0096 -0.3753 -0.2590
  166SOPE  H18X18752   0.503   2.677   9.198 -0.0004 -1.4441  2.1420
  166SOPE  H18Y18753   0.565   2.822   9.243  0.9623 -2.2092 -0.9516
  166SOPE  H18Z18754   0.399   2.833   9.171 -1.2998  2.4972  3.2033
  167SOPE     N18755   5.605   1.130   6.087  0.2938  0.3495  0.5455
  167SOPE   HN118756   5.606   1.200   6.010 -0.6977 -0.8258 -0.5988
  167SOPE   HN218757   5.530   1.168   6.147 -0.0289 -0.0132  0.3776
  167SOPE   HN318758   5.696   1.132   6.137 -0.0057  0.8116  1.0667
  167SOPE   C1218759   5.583   0.993   6.025  0.9362  0.0188  0.0999
  167SOPE  H12A18760   5.613   0.918   6.102  1.0611  0.8280  0.8514
  167SOPE  H12B18761   5.656   0.972   5.944  0.4357 -1.1664 -0.0719
  167SOPE   C1118762   5.432   0.962   5.994 -0.1235  0.2104  0.6763
  167SOPE  H11A18763   5.383   1.028   5.920  0.7011 -1.6242 -1.6138
  167SOPE  H11B18764   5.375   0.952   6.089  0.9004  0.1376  1.3011
  167SOPE     P18765   5.414   0.696   6.007  0.1094  0.0190  0.4561
  167SOPE   O1318766   5.546   0.643   6.020 -0.1072 -0.0128 -0.4053
  167SOPE   O1418767   5.325   0.609   5.924  0.3292 -0.0385 -0.5846
  167SOPE   O1218768   5.425   0.835   5.936 -0.3629  0.2824 -0.7007
  167SOPE   O1118769   5.354   0.730   6.149  0.7496  0.0159  0.5422
  167SOPE    C118770   5.425   0.726   6.276  0.2033  0.1905  0.2031
  167SOPE    HA18771   5.400   0.815   6.338 -0.1104  0.6063 -0.5073
  167SOPE    HB18772   5.535   0.731   6.260 -0.0286 -0.5790 -2.0845
  167SOPE    C218773   5.402   0.593   6.362  0.1179  0.5776 -0.2224
  167SOPE    HS18774   5.418   0.503   6.298 -1.2531  0.2863 -0.1697
  167SOPE   O2118775   5.273   0.593   6.420 -0.3785 -0.3662 -0.4753
  167SOPE   C2118776   5.171   0.547   6.351  0.8470 -0.4191 -0.0804
  167SOPE   O2218777   5.176   0.476   6.251  0.4777 -0.4503  0.0255
  167SOPE   C2218778   5.046   0.601   6.418  0.4212 -0.1124 -0.6109
  167SOPE   H2R18779   4.988   0.622   6.326 -0.8208 -4.7865 -1.1395
  167SOPE   H2S18780   5.071   0.698   6.467  0.6764 -2.2003  3.9603
  167SOPE    C318781   5.503   0.577   6.477  0.1170  0.0141 -0.1856
  167SOPE    HX18782   5.506   0.670   6.539 -2.8395  0.4591 -0.5588
  167SOPE    HY18783   5.600   0.580   6.424 -0.3874  0.5395 -1.1073
  167SOPE   O3118784   5.492   0.452   6.545  0.2529 -0.1025  0.5794
  167SOPE   C3118785   5.444   0.457   6.670  0.9341  0.5061 -0.0661
  167SOPE   O3218786   5.409   0.553   6.735 -0.4650  0.0828 -0.5168
  167SOPE   C3218787   5.440   0.308   6.714  0.0548  0.4817 -1.0447
  167SOPE   H2X18788   5.539   0.269   6.683 -0.7449 -2.8099  0.1501
  167SOPE   H2Y18789   5.363   0.262   6.649  1.3209 -1.8388 -1.0166
  167SOPE   C2318790   4.971   0.495   6.502  0.2281 -0.1179 -0.5222
  167SOPE   H3R18791   4.919   0.438   6.423  1.2752 -1.2206 -0.4478
  167SOPE   H3S18792   4.890   0.544   6.560  1.4848 -0.1332  1.3505
  167SOPE   C2418793   5.061   0.411   6.597  0.1609 -1.0085 -0.3485
  167SOPE   H4R18794   5.127   0.340   6.543  2.5989  1.1644 -0.3739
  167SOPE   H4S18795   5.123   0.484   6.653 -2.0436 -0.7476  1.9570
  167SOPE   C2518796   4.967   0.364   6.717  0.5818  0.0908  0.1500
  167SOPE   H5R18797   4.923   0.447   6.776  2.6081  1.9343 -0.8026
  167SOPE   H5S18798   4.882   0.306   6.674  0.4983  0.3013  0.0286
  167SOPE   C2618799   5.045   0.280   6.811  0.2534  0.6582 -0.5408
  167SOPE   H6R18800   5.084   0.192   6.757  0.5109  0.2983  0.2145
  167SOPE   H6S18801   5.135   0.336   6.844  0.4987 -0.3200  0.5366
  167SOPE   C2718802   4.953   0.246   6.931  0.5754  0.0734 -0.0957
  167SOPE   H7R18803   4.903   0.340   6.963 -0.1915 -0.8415  1.5179
  167SOPE   H7S18804   4.873   0.179   6.895  1.2326 -1.0407  0.4759
  167SOPE   C2818805   5.023   0.194   7.054 -0.2668  0.4834 -0.3813
  167SOPE   H8R18806   5.102   0.264   7.090  0.1165  0.8988 -1.9684
  167SOPE   H8S18807   4.952   0.206   7.139  0.2160  3.3297 -0.2887
  167SOPE   C2918808   5.074   0.053   7.045 -0.3716  0.0721  0.2349
  167SOPE   H9118809   5.077   0.015   6.942  1.6825 -1.3021  0.7341
  167SOPE  C21018810   5.113  -0.029   7.142  0.0838 -0.3271 -0.2032
  167SOPE  H10118811   5.151  -0.127   7.111 -0.8201 -0.7085 -0.1525
  167SOPE  C21118812   5.111   0.004   7.290 -0.4757 -0.0341 -0.3544
  167SOPE  H11R18813   5.031  -0.061   7.330 -1.4682  1.2205 -0.2164
  167SOPE  H11S18814   5.080   0.107   7.318  0.5386 -0.1586  1.3859
  167SOPE  C21218815   5.241  -0.044   7.357  0.3651  0.3033 -0.0432
  167SOPE  H12R18816   5.328   0.020   7.333  0.5810 -0.7706 -2.4781
  167SOPE  H12S18817   5.251  -0.145   7.311 -2.6238  0.4488 -1.2680
  167SOPE  C21318818   5.235  -0.069   7.504  0.3251  0.5199 -0.1513
  167SOPE  H13R18819   5.144  -0.128   7.528  0.5822  1.2327  2.9970
  167SOPE  H13S18820   5.237   0.021   7.568  0.9886  0.9019 -0.6953
  167SOPE  C21418821   5.344  -0.167   7.543  0.8903 -0.0493  0.4407
  167SOPE  H14R18822   5.420  -0.159   7.462 -0.7853 -1.9186 -1.4184
  167SOPE  H14S18823   5.299  -0.268   7.537  1.3729 -0.2032 -1.1053
  167SOPE  C21518824   5.414  -0.136   7.671  0.1431  0.3038 -0.6623
  167SOPE  H15R18825   5.474  -0.043   7.665 -0.2198  0.7320  1.5284
  167SOPE  H15S18826   5.485  -0.217   7.699  1.5844  0.6819 -2.9617
  167SOPE  C21618827   5.313  -0.131   7.793  0.7481 -0.3482  0.0488
  167SOPE  H16R18828   5.236  -0.211   7.784 -0.3335  0.8450 -2.2090
  167SOPE  H16S18829   5.258  -0.035   7.778 -1.3457 -1.1101  2.2907
  167SOPE  C21718830   5.385  -0.155   7.928  0.0875  0.1581 -0.0400
  167SOPE  H17R18831   5.475  -0.090   7.922  0.5867 -0.5482 -0.2284
  167SOPE  H17S18832   5.412  -0.262   7.931 -3.5295 -0.8665  0.5284
  167SOPE  C21818833   5.309  -0.115   8.052  0.0450  0.5916 -0.8747
  167SOPE  H18R18834   5.212  -0.170   8.056 -0.3982  1.4049  0.3261
  167SOPE  H18S18835   5.283  -0.007   8.062  0.3933  0.5689  0.5029
  167SOPE  H18T18836   5.363  -0.146   8.144 -0.2338  1.2271 -0.4906
  167SOPE   C3318837   5.422   0.281   6.866  0.2213 -0.4932 -0.7152
  167SOPE   H3X18838   5.385   0.178   6.884  0.2417 -0.3213  0.4244
  167SOPE   H3Y18839   5.345   0.345   6.916 -0.6067 -0.2384 -2.2613
  167SOPE   C3418840   5.554   0.284   6.947 -0.7538  0.1425 -0.6210
  167SOPE   H4X18841   5.588   0.390   6.941  0.3926 -0.0663  1.2149
  167SOPE   H4Y18842   5.625   0.213   6.898  0.8673  0.8430  0.6159
  167SOPE   C3518843   5.526   0.241   7.097  0.2247 -0.6978  0.2798
  167SOPE   H5X18844   5.471   0.145   7.102 -3.1819  1.1093  0.2429
  167SOPE   H5Y18845   5.449   0.309   7.139 -1.0863 -1.2558 -1.1086
  167SOPE   C3618846   5.652   0.226   7.168 -0.0784 -0.3719  0.0845
  167SOPE   H6X18847   5.722   0.309   7.143  2.1149 -2.6215 -1.8211
  167SOPE   H6Y18848   5.701   0.131   7.139  1.0612 -0.4471  2.1155
  167SOPE   C3718849   5.625   0.211   7.325  0.1658  0.0348 -0.0580
  167SOPE   H7X18850   5.564   0.121   7.349  0.6399 -0.6239 -1.2433
  167SOPE   H7Y18851   5.564   0.300   7.351  0.5382 -0.0102  1.0052
  167SOPE   C3818852   5.757   0.204   7.408 -0.5414  0.3087  0.0261
  167SOPE   H8X18853   5.816   0.298   7.394 -0.7273  0.8054  2.1658
  167SOPE   H8Y18854   5.829   0.122   7.387 -0.7730 -0.0879  0.7420
  167SOPE   C3918855   5.730   0.188   7.564 -0.8419  0.3314 -0.5198
  167SOPE   H9X18856   5.678   0.092   7.585  0.5293 -0.5466 -1.0555
  167SOPE   H9Y18857   5.659   0.264   7.603 -1.6118 -0.8048  0.3624
  167SOPE  C31018858   5.846   0.186   7.661 -0.5362 -1.1371  0.1431
  167SOPE  H10X18859   5.877   0.290   7.685  0.8738 -1.9914  2.3328
  167SOPE  H10Y18860   5.937   0.134   7.624 -0.2935  0.7168 -2.0312
  167SOPE  C31118861   5.807   0.126   7.793 -0.2265 -0.0954  0.2804
  167SOPE  H11X18862   5.895   0.138   7.860 -1.0308  4.3076  0.8696
  167SOPE  H11Y18863   5.780   0.018   7.794  0.9397 -0.4807 -2.2569
  167SOPE  C31218864   5.699   0.203   7.873  0.7959 -0.4189 -0.3454
  167SOPE  H12X18865   5.599   0.197   7.825 -0.1883  2.1453  1.2441
  167SOPE  H12Y18866   5.721   0.311   7.885 -2.5261  0.1596  1.5361
  167SOPE  C31318867   5.696   0.154   8.022 -0.0890 -0.1185 -0.4860
  167SOPE  H13X18868   5.795   0.155   8.071 -0.4814 -0.7800  0.3491
  167SOPE  H13Y18869   5.658   0.050   8.020  0.4143 -0.2886 -1.3924
  167SOPE  C31418870   5.608   0.229   8.114  0.5066 -0.1449 -0.2644
  167SOPE  H14X18871   5.646   0.333   8.122  0.7115 -0.3759  2.3247
  167SOPE  H14Y18872   5.600   0.181   8.213 -1.3985  1.5291  0.4630
  167SOPE  C31518873   5.465   0.240   8.049  0.9002 -0.0296  0.0635
  167SOPE  H15X18874   5.440   0.134   8.030  0.2246 -0.4019  2.7154
  167SOPE  H15Y18875   5.472   0.299   7.955  1.6164 -0.6230 -0.2696
  167SOPE  C31618876   5.364   0.326   8.125 -0.9748  0.1626  0.8456
  167SOPE  H16X18877   5.276   0.327   8.057 -0.5351  3.6411  0.1314
  167SOPE  H16Y18878   5.414   0.424   8.138  2.0370 -1.4740  2.6597
  167SOPE  C31718879   5.309   0.269   8.257  0.1679  0.3134 -0.0949
  167SOPE  H17X18880   5.339   0.162   8.257 -2.2601 -0.4719 -2.0176
  167SOPE  H17Y18881   5.198   0.265   8.258  0.1833 -0.4550  1.1891
  167SOPE  C31818882   5.355   0.334   8.392  0.5873  0.8132  0.4177
  167SOPE  H18X18883   5.314   0.436   8.408 -0.5426  0.0965  2.4201
  167SOPE  H18Y18884   5.466   0.342   8.398  0.7837  0.2426 -1.8522
  167SOPE  H18Z18885   5.323   0.269   8.477  0.1192  0.4696 -0.0190
  168SOPE     N18886   0.159   5.991   6.071 -0.5791 -0.3272 -0.3648
  168SOPE   HN118887   0.162   5.930   6.155  0.0165 -2.4196 -1.8096
  168SOPE   HN218888   0.217   5.937   6.003 -0.4164  0.7631 -1.1273
  168SOPE   HN318889   0.208   6.080   6.092 -1.5967  0.2099 -0.2200
  168SOPE   C1218890   0.020   5.996   6.022 -0.3935 -0.7549 -0.0231
  168SOPE  H12A18891   0.001   5.903   5.965  0.9067  0.2028 -2.1473
  168SOPE  H12B18892   0.021   6.081   5.950 -0.7988 -0.9944 -0.3176
  168SOPE   C1118893  -0.088   6.012   6.136  0.1449  0.5691 -0.2997
  168SOPE  H11A18894  -0.081   5.926   6.206 -0.4573 -1.2329 -2.3378
  168SOPE  H11B18895  -0.186   5.995   6.088  0.4077 -0.2482 -0.5513
  168SOPE     P18896  -0.171   6.258   6.204 -0.1140 -0.3509 -0.3618
  168SOPE   O1318897  -0.192   6.304   6.065 -0.1155  0.0037 -0.9037
  168SOPE   O1418898  -0.119   6.356   6.301  0.3909  0.3088 -0.2522
  168SOPE   O1218899  -0.070   6.140   6.203 -0.2647 -0.0431  0.6471
  168SOPE   O1118900  -0.310   6.199   6.268  0.1783 -0.2752  0.0777
  168SOPE    C118901  -0.299   6.114   6.378 -0.7776 -0.1144 -0.4355
  168SOPE    HA18902  -0.212   6.140   6.441 -2.1546  0.4964  1.2799
  168SOPE    HB18903  -0.285   6.008   6.348 -1.3858 -0.2478 -0.2451
  168SOPE    C218904  -0.418   6.119   6.479 -0.5143 -0.3662 -0.0244
  168SOPE    HS18905  -0.517   6.105   6.432 -2.4289  3.7701  2.1919
  168SOPE   O2118906  -0.416   6.252   6.550 -0.4334  0.5567 -0.2938
  168SOPE   C2118907  -0.528   6.320   6.549 -0.2968 -0.0776  0.0796
  168SOPE   O2218908  -0.637   6.282   6.507 -0.7675  0.1270  0.1210
  168SOPE   C2218909  -0.501   6.454   6.613 -0.2070 -0.1011  0.0008
  168SOPE   H2R18910  -0.588   6.519   6.588 -0.8012 -1.0339 -0.3888
  168SOPE   H2S18911  -0.414   6.499   6.560 -0.2065  1.0779  0.9543
  168SOPE    C318912  -0.390   6.003   6.585  0.7732 -0.6364  0.4291
  168SOPE    HX18913  -0.285   6.007   6.621  1.4374 -0.5945 -1.4107
  168SOPE    HY18914  -0.404   5.907   6.533  0.8159 -0.7372  0.6018
  168SOPE   O3118915  -0.481   6.017   6.697  0.4430  0.9067  0.2926
  168SOPE   C3118916  -0.595   5.951   6.690 -0.0874  0.4100 -0.1936
  168SOPE   O3218917  -0.626   5.871   6.599 -0.0896 -0.6420 -0.6168
  168SOPE   C3218918  -0.687   5.997   6.806 -0.1811  0.2983 -0.1060
  168SOPE   H2X18919  -0.747   6.075   6.756  0.5052  0.5233 -0.5863
  168SOPE   H2Y18920  -0.632   6.044   6.891 -0.5799  1.7619 -0.6387
  168SOPE   C2318921  -0.495   6.451   6.769 -0.2428 -0.5378  0.2185
  168SOPE   H3R18922  -0.501   6.555   6.807  1.4866  0.1950 -1.3839
  168SOPE   H3S18923  -0.395   6.415   6.802 -0.3926  0.0835  1.3957
  168SOPE   C2418924  -0.600   6.370   6.846  0.6082  0.7711 -0.0847
  168SOPE   H4R18925  -0.695   6.371   6.788  0.7160 -1.4769 -0.3802
  168SOPE   H4S18926  -0.571   6.263   6.835 -0.9986  0.4432 -1.7347
  168SOPE   C2518927  -0.607   6.402   6.992 -0.4072 -0.4135 -0.0681
  168SOPE   H5R18928  -0.511   6.360   7.029  0.3213  1.3852  0.1708
  168SOPE   H5S18929  -0.616   6.509   7.020  0.2944 -0.3196 -0.1632
  168SOPE   C2618930  -0.728   6.336   7.058  0.7575 -0.7373 -0.5796
  168SOPE   H6R18931  -0.819   6.392   7.027  0.1442  0.2083  2.6196
  168SOPE   H6S18932  -0.722   6.234   7.014 -0.2306  0.1263 -2.8669
  168SOPE   C2718933  -0.730   6.332   7.214 -0.1875 -0.4536 -0.5802
  168SOPE   H7R18934  -0.743   6.437   7.247  1.2894  0.0272 -1.4384
  168SOPE   H7S18935  -0.812   6.275   7.263 -0.7833 -0.5462 -1.6585
  168SOPE   C2818936  -0.597   6.285   7.279 -0.6527 -0.3353 -0.3672
  168SOPE   H8R18937  -0.517   6.352   7.239  1.1909 -1.4866  1.2398
  168SOPE   H8S18938  -0.601   6.311   7.387 -1.5717  2.4461 -0.9703
  168SOPE   C2918939  -0.559   6.141   7.255 -0.4029 -0.8003 -0.4533
  168SOPE   H9118940  -0.485   6.112   7.179  0.7355  0.4632  0.1307
  168SOPE  C21018941  -0.606   6.045   7.339 -0.7940 -0.0182  0.5409
  168SOPE  H10118942  -0.573   5.942   7.317  3.2050  1.1089  0.4686
  168SOPE  C21118943  -0.709   6.066   7.450 -0.6791  0.0141  0.0259
  168SOPE  H11R18944  -0.808   6.020   7.431 -1.1943  1.4831 -0.9490
  168SOPE  H11S18945  -0.732   6.173   7.468 -0.8556  0.0267 -0.2827
  168SOPE  C21218946  -0.670   6.000   7.583  0.1194 -0.2969  0.6203
  168SOPE  H12R18947  -0.570   6.042   7.608  0.0053  1.7580 -1.9104
  168SOPE  H12S18948  -0.669   5.889   7.586 -1.4097 -0.3097  1.3763
  168SOPE  C21318949  -0.770   6.038   7.693  0.1569  0.2389  0.6033
  168SOPE  H13R18950  -0.873   6.011   7.662  1.4147 -2.1952 -1.9053
  168SOPE  H13S18951  -0.778   6.149   7.695  0.4510  0.2804 -0.1068
  168SOPE  C21418952  -0.724   5.981   7.830 -0.1747  0.5520 -0.0369
  168SOPE  H14R18953  -0.619   6.010   7.850 -0.2931  2.0855 -1.4415
  168SOPE  H14S18954  -0.732   5.875   7.796 -1.3484  0.7898 -0.5535
  168SOPE  C21518955  -0.818   6.013   7.944  0.5858 -0.7980 -0.7291
  168SOPE  H15R18956  -0.917   6.051   7.913  0.8790 -0.6790 -1.5457
  168SOPE  H15S18957  -0.772   6.096   8.002  1.1892 -0.2210 -1.9748
  168SOPE  C21618958  -0.844   5.898   8.043  0.7164  0.0398 -0.7508
  168SOPE  H16R18959  -0.918   5.835   7.990  0.7499 -0.8472  0.2113
  168SOPE  H16S18960  -0.910   5.940   8.123 -1.2694 -0.2433 -2.1647
  168SOPE  C21718961  -0.722   5.832   8.098 -0.4259 -0.1937 -0.1880
  168SOPE  H17R18962  -0.648   5.800   8.022  0.5373 -3.6761  1.9990
  168SOPE  H17S18963  -0.758   5.733   8.135  2.4172 -0.4224  2.3435
  168SOPE  C21818964  -0.646   5.915   8.195 -0.7821 -0.2902 -0.1939
  168SOPE  H18R18965  -0.588   5.996   8.146  0.5523 -1.5670 -0.7803
  168SOPE  H18S18966  -0.566   5.853   8.241 -2.2507 -3.6424 -1.8088
  168SOPE  H18T18967  -0.714   5.961   8.270 -2.7519 -0.8151 -1.6066
  168SOPE   C3318968  -0.790   5.894   6.856  0.9623  0.1423 -0.0534
  168SOPE   H3X18969  -0.844   5.834   6.780  0.4379 -0.9731  1.1607
  168SOPE   H3Y18970  -0.871   5.956   6.900  1.0274  0.5611 -0.5221
  168SOPE   C3418971  -0.731   5.798   6.966 -0.8097  0.0397  0.5889
  168SOPE   H4X18972  -0.700   5.864   7.050 -3.2498 -0.5924  2.0920
  168SOPE   H4Y18973  -0.638   5.752   6.926 -1.1623 -0.9781  0.9229
  168SOPE   C3518974  -0.841   5.699   7.004  0.7018 -0.4785  0.1718
  168SOPE   H5X18975  -0.873   5.635   6.919  0.6225  1.0662 -1.0060
  168SOPE   H5Y18976  -0.938   5.750   7.025 -0.8472 -2.3622 -1.8212
  168SOPE   C3618977  -0.809   5.613   7.132  0.6135 -0.2066 -0.1623
  168SOPE   H6X18978  -0.719   5.549   7.123  0.0832 -1.0802  0.4821
  168SOPE   H6Y18979  -0.891   5.540   7.150  0.7287 -0.2895  0.0351
  168SOPE   C3718980  -0.799   5.698   7.262 -0.3382  0.0864 -0.4551
  168SOPE   H7X18981  -0.891   5.758   7.281  0.4731  1.1589  0.2431
  168SOPE   H7Y18982  -0.724   5.779   7.249  0.8129 -0.3571  2.6656
  168SOPE   C3818983  -0.753   5.618   7.382 -0.4114 -0.3060  0.3170
  168SOPE   H8X18984  -0.731   5.682   7.470  3.1485 -2.0131  0.8674
  168SOPE   H8Y18985  -0.653   5.572   7.362  0.3327  1.1420  0.5870
  168SOPE   C3918986  -0.861   5.519   7.432 -0.0290 -0.4913 -0.2404
  168SOPE   H9X18987  -0.858   5.430   7.366  3.5668 -0.8564  0.1994
  168SOPE   H9Y18988  -0.964   5.559   7.425 -0.4052 -1.4932 -0.6042
  168SOPE  C31018989  -0.839   5.454   7.570  0.5003 -0.4081  0.2721
  168SOPE  H10X18990  -0.735   5.416   7.578  0.5687 -0.4854 -0.7847
  168SOPE  H10Y18991  -0.899   5.361   7.564 -0.7010  0.3828 -0.4109
  168SOPE  C31118992  -0.886   5.540   7.697 -0.0793  0.5227 -0.2520
  168SOPE  H11X18993  -0.974   5.601   7.668 -0.1245  0.0467 -1.1380
  168SOPE  H11Y18994  -0.808   5.615   7.724  0.2333 -0.1524  0.7921
  168SOPE  C31218995  -0.889   5.451   7.827 -0.4503 -0.9192 -0.2127
  168SOPE  H12X18996  -0.787   5.407   7.828 -0.5457 -1.1859 -1.3396
  168SOPE  H12Y18997  -0.960   5.367   7.814 -0.2212 -0.9488 -1.4373
  168SOPE  C31318998  -0.904   5.533   7.956  0.6957  0.1851 -0.0334
  168SOPE  H13X18999  -0.975   5.611   7.922  0.5415 -0.3271 -0.8971
  168SOPE  H13Y19000  -0.808   5.578   7.988  0.9557  0.0930 -0.6922
  168SOPE  C31419001  -0.982   5.468   8.075  1.1584  0.5399 -0.1155
  168SOPE  H14X19002  -0.923   5.382   8.114 -1.5866 -1.1994  0.4433
  168SOPE  H14Y19003  -1.078   5.421   8.046  0.6042  1.1003  0.7778
  168SOPE  C31519004  -0.994   5.580   8.186  0.6459 -0.4420 -0.2282
  168SOPE  H15X19005  -1.010   5.672   8.126 -1.7366 -0.4188  0.3690
  168SOPE  H15Y19006  -0.898   5.591   8.242  1.3536 -0.5630 -1.3779
  168SOPE  C31619007  -1.109   5.564   8.279  0.3118  0.6292  0.0724
  168SOPE  H16X19008  -1.196   5.519   8.226  2.4941 -0.9072 -2.4917
  168SOPE  H16Y19009  -1.150   5.664   8.304 -0.1691  0.5319 -0.3100
  168SOPE  C31719010  -1.074   5.490   8.412 -0.2529 -0.2095 -0.9064
  168SOPE  H17X19011  -0.977   5.526   8.453  1.0278 -0.9194 -3.1258
  168SOPE  H17Y19012  -1.058   5.383   8.390 -0.9669 -0.1795 -1.5967
  168SOPE  C31819013  -1.190   5.499   8.514  0.2212 -1.0859  0.3181
  168SOPE  H18X19014  -1.188   5.439   8.608 -2.2685  2.4147  2.8835
  168SOPE  H18Y19015  -1.286   5.490   8.458  1.1963 -0.0389 -1.6182
  168SOPE  H18Z19016  -1.206   5.601   8.554 -1.6167 -2.0422  2.1956
  169SOPE     N19017   6.150   0.748   6.407  0.3992  0.0088  1.0195
  169SOPE   HN119018   6.169   0.735   6.306 -0.1420  3.2926  0.3876
  169SOPE   HN219019   6.079   0.676   6.430 -0.7515  0.3512 -1.1721
  169SOPE   HN319020   6.105   0.841   6.410 -0.3974 -0.1169 -2.5136
  169SOPE   C1219021   6.265   0.737   6.503  0.1801 -0.3620  0.4124
  169SOPE  H12A19022   6.219   0.726   6.603  0.1766 -1.8185  0.2719
  169SOPE  H12B19023   6.324   0.831   6.493 -0.3870 -0.1199 -0.9267
  169SOPE   C1119024   6.353   0.614   6.472 -0.4252 -0.1261  0.2502
  169SOPE  H11A19025   6.438   0.610   6.544 -0.0126 -1.3525 -0.2724
  169SOPE  H11B19026   6.373   0.618   6.363  1.4202 -1.7385  0.4688
  169SOPE     P19027   6.348   0.363   6.447 -0.3306  0.2213 -0.0205
  169SOPE   O1319028   6.418   0.396   6.324 -0.1160 -0.1224  0.7609
  169SOPE   O1419029   6.247   0.250   6.439 -0.3092 -0.9669  0.7121
  169SOPE   O1219030   6.279   0.494   6.492  0.7635 -0.6637 -0.2176
  169SOPE   O1119031   6.449   0.340   6.565 -0.0852  0.2195  0.3241
  169SOPE    C119032   6.410   0.347   6.695  0.0834 -0.4837 -0.0839
  169SOPE    HA19033   6.303   0.330   6.717  0.2810  0.2688  1.6477
  169SOPE    HB19034   6.431   0.449   6.734  0.9972  0.1157 -2.0203
  169SOPE    C219035   6.472   0.234   6.786  0.0478  0.4221  0.2379
  169SOPE    HS19036   6.430   0.252   6.888  0.5777 -1.2377  0.7702
  169SOPE   O2119037   6.621   0.231   6.788 -0.0675 -0.3148  0.3030
  169SOPE   C2119038   6.675   0.337   6.845  0.0635 -0.1978 -0.7497
  169SOPE   O2219039   6.613   0.437   6.878  0.1660 -0.2335 -0.3189
  169SOPE   C2219040   6.829   0.314   6.881  0.0418 -0.0322 -0.0726
  169SOPE   H2R19041   6.870   0.413   6.911 -1.1903  0.2667  0.7325
  169SOPE   H2S19042   6.875   0.274   6.788 -1.1545 -0.2194 -0.5991
  169SOPE    C319043   6.423   0.101   6.737 -0.5640  0.6039  0.2339
  169SOPE    HX19044   6.426   0.096   6.626 -0.1422  1.4990  0.2024
  169SOPE    HY19045   6.312   0.103   6.751 -0.5033  0.5891  0.7522
  169SOPE   O3119046   6.471  -0.014   6.817 -0.1753 -0.2866  0.6133
  169SOPE   C3119047   6.576  -0.067   6.746 -0.4369 -0.8325 -0.3393
  169SOPE   O3219048   6.616  -0.037   6.631  0.5086 -0.0151 -0.8418
  169SOPE   C3219049   6.642  -0.179   6.825  0.0767 -0.7620 -0.1588
  169SOPE   H2X19050   6.754  -0.175   6.827  0.1278 -1.7854 -0.7619
  169SOPE   H2Y19051   6.625  -0.266   6.758  0.0678  0.5512 -1.9343
  169SOPE   C2319052   6.840   0.212   6.999 -0.1766  0.3713  0.2694
  169SOPE   H3R19053   6.942   0.170   6.994  0.7894  2.4307  1.2425
  169SOPE   H3S19054   6.766   0.131   6.983 -0.6854  0.5283  1.6506
  169SOPE   C2419055   6.828   0.270   7.136  0.0921 -0.3943 -0.6453
  169SOPE   H4R19056   6.895   0.359   7.142  0.4327 -0.7555  2.4481
  169SOPE   H4S19057   6.721   0.296   7.145 -0.2088 -2.0853  1.7279
  169SOPE   C2519058   6.848   0.175   7.256 -0.4180  0.6456  0.5171
  169SOPE   H5R19059   6.798   0.077   7.239 -0.1646  0.8468 -1.5519
  169SOPE   H5S19060   6.958   0.168   7.264 -0.2194  0.9669 -1.5029
  169SOPE   C2619061   6.783   0.209   7.397  0.0529  0.0384 -0.3016
  169SOPE   H6R19062   6.808   0.126   7.466 -1.7190 -0.2870 -0.0058
  169SOPE   H6S19063   6.820   0.305   7.437  0.1050  0.5724 -1.5789
  169SOPE   C2719064   6.631   0.196   7.403  0.3733 -0.0796 -0.1691
  169SOPE   H7R19065   6.585   0.275   7.339  2.2894  0.6331 -0.7213
  169SOPE   H7S19066   6.609   0.100   7.352  0.8098 -0.1195 -0.2868
  169SOPE   C2819067   6.571   0.191   7.541 -0.0396 -0.7359  0.0614
  169SOPE   H8R19068   6.590   0.090   7.584 -2.4556 -1.6810 -0.9201
  169SOPE   H8S19069   6.627   0.273   7.591 -2.2861  0.7034  0.3851
  169SOPE   C2919070   6.423   0.203   7.550  0.0339 -0.2677 -0.1231
  169SOPE   H9119071   6.377   0.172   7.455 -2.3532  1.1151  0.4949
  169SOPE  C21019072   6.354   0.234   7.663 -0.6455  0.1522  0.4676
  169SOPE  H10119073   6.245   0.227   7.645 -0.7710  0.6930  0.9888
  169SOPE  C21119074   6.393   0.273   7.798 -0.1581  0.7437  0.2621
  169SOPE  H11R19075   6.368   0.378   7.822  1.1482  0.8963  1.1290
  169SOPE  H11S19076   6.504   0.268   7.789 -0.2305  0.0690 -0.2987
  169SOPE  C21219077   6.349   0.164   7.896 -0.5861  0.3449  0.1963
  169SOPE  H12R19078   6.407   0.190   7.987 -0.4773 -0.9976  0.5265
  169SOPE  H12S19079   6.389   0.065   7.865 -0.1972  1.5548 -3.7437
  169SOPE  C21319080   6.212   0.163   7.939  0.5318 -0.9152 -0.0817
  169SOPE  H13R19081   6.139   0.128   7.864  0.1028  0.2319 -0.2209
  169SOPE  H13S19082   6.175   0.265   7.963 -2.3151 -2.1340  1.0754
  169SOPE  C21419083   6.201   0.096   8.071 -0.1745  0.5773 -0.5684
  169SOPE  H14R19084   6.250   0.161   8.146 -0.2003 -1.0872  0.9419
  169SOPE  H14S19085   6.254  -0.001   8.055  2.6803  2.3691 -2.9337
  169SOPE  C21519086   6.058   0.076   8.127  0.5712 -0.0343 -0.3856
  169SOPE  H15R19087   6.007   0.001   8.063 -0.4255 -1.0813  1.5514
  169SOPE  H15S19088   5.998   0.170   8.121  0.6209 -0.0026 -0.3924
  169SOPE  C21619089   6.059   0.015   8.273 -0.4189 -0.6710  0.4163
  169SOPE  H16R19090   6.112   0.073   8.351  0.5580 -1.3386  0.2718
  169SOPE  H16S19091   6.111  -0.084   8.272  0.5951 -0.1538 -0.0178
  169SOPE  C21719092   5.920  -0.004   8.332  0.4019  0.4691  0.0949
  169SOPE  H17R19093   5.929  -0.082   8.411  0.9689  0.1383 -0.2846
  169SOPE  H17S19094   5.848  -0.043   8.256 -0.8535  0.7643  1.1004
  169SOPE  C21819095   5.861   0.128   8.380 -0.0400 -0.0998 -0.7880
  169SOPE  H18R19096   5.930   0.165   8.459  3.5243 -0.9551 -3.2734
  169SOPE  H18S19097   5.758   0.121   8.421 -0.0042 -0.0163 -0.6812
  169SOPE  H18T19098   5.843   0.206   8.303 -0.6224 -0.0855 -0.6462
  169SOPE   C3319099   6.582  -0.203   6.964 -0.3205  0.3568  0.3902
  169SOPE   H3X19100   6.582  -0.314   6.972  0.3061  0.2368 -1.0689
  169SOPE   H3Y19101   6.471  -0.198   6.964 -0.4544 -1.4222 -1.6223
  169SOPE   C3419102   6.659  -0.144   7.084  0.1275  0.0507  0.5742
  169SOPE   H4X19103   6.626  -0.041   7.108  2.4792  0.5119  2.1090
  169SOPE   H4Y19104   6.768  -0.141   7.063  0.0349 -1.7764 -0.4145
  169SOPE   C3519105   6.629  -0.222   7.212  0.0616  0.5317 -0.9410
  169SOPE   H5X19106   6.526  -0.262   7.218 -0.1326  1.1931  0.3708
  169SOPE   H5Y19107   6.649  -0.154   7.297 -0.3928 -0.3169 -0.1455
  169SOPE   C3619108   6.731  -0.340   7.212 -0.4192 -0.2291  0.2618
  169SOPE   H6X19109   6.823  -0.322   7.152 -0.1501  1.9056  1.2412
  169SOPE   H6Y19110   6.679  -0.429   7.170  0.0439  0.0328 -0.9119
  169SOPE   C3719111   6.765  -0.368   7.362 -1.1855  1.0863  0.6184
  169SOPE   H7X19112   6.830  -0.281   7.383 -0.6588  0.4757  1.5942
  169SOPE   H7Y19113   6.817  -0.466   7.356 -1.4811  0.9482  0.2297
  169SOPE   C3819114   6.647  -0.372   7.468  0.0672 -0.2193  0.2332
  169SOPE   H8X19115   6.596  -0.274   7.464  1.1855  0.3496 -0.7885
  169SOPE   H8Y19116   6.569  -0.438   7.426 -2.7549  3.0846 -0.1638
  169SOPE   C3919117   6.702  -0.412   7.599 -0.8202 -0.3149  0.8027
  169SOPE   H9X19118   6.784  -0.486   7.579 -1.1087 -0.1258 -1.2803
  169SOPE   H9Y19119   6.620  -0.461   7.656 -1.0363 -0.3463  0.4664
  169SOPE  C31019120   6.757  -0.299   7.692  0.6706  0.9351  0.1941
  169SOPE  H10X19121   6.824  -0.244   7.623  2.7459 -0.4677  0.9980
  169SOPE  H10Y19122   6.821  -0.334   7.776 -0.9735  1.1521  1.6194
  169SOPE  C31119123   6.645  -0.209   7.746  0.8691  0.4733  0.0507
  169SOPE  H11X19124   6.586  -0.274   7.814 -1.7992  1.2463 -1.3763
  169SOPE  H11Y19125   6.573  -0.176   7.668 -1.2609 -0.1500  1.6498
  169SOPE  C31219126   6.687  -0.082   7.823 -0.0910  0.2102  1.0409
  169SOPE  H12X19127   6.589  -0.039   7.853 -0.8495  0.8627 -2.0530
  169SOPE  H12Y19128   6.730  -0.014   7.747  0.4119 -2.1250 -0.8847
  169SOPE  C31319129   6.778  -0.101   7.943 -0.4651 -0.0629 -0.0271
  169SOPE  H13X19130   6.791  -0.002   7.992 -1.5211  0.7578 -1.3071
  169SOPE  H13Y19131   6.880  -0.137   7.918  0.7983  1.9788  1.8193
  169SOPE  C31419132   6.721  -0.184   8.066  0.3208 -0.1486 -0.7867
  169SOPE  H14X19133   6.801  -0.204   8.141 -0.8653 -0.1705  0.5195
  169SOPE  H14Y19134   6.700  -0.286   8.029 -0.9584  0.4495 -1.7865
  169SOPE  C31519135   6.603  -0.098   8.132 -0.6878  0.1303  0.5527
  169SOPE  H15X19136   6.558  -0.162   8.211 -2.6433  0.9402  0.1565
  169SOPE  H15Y19137   6.513  -0.090   8.069 -0.4842 -0.3125  0.2000
  169SOPE  C31619138   6.637   0.030   8.204  0.0087  0.1224 -0.0904
  169SOPE  H16X19139   6.686   0.109   8.145 -0.5851  2.3326  2.1987
  169SOPE  H16Y19140   6.708   0.008   8.286  0.8913  2.2289 -0.2532
  169SOPE  C31719141   6.518   0.114   8.245  0.1752 -0.2069 -0.7827
  169SOPE  H17X19142   6.466   0.145   8.152 -1.7446  2.7199  1.1141
  169SOPE  H17Y19143   6.554   0.209   8.289  2.1611 -2.2439  2.4245
  169SOPE  C31819144   6.416   0.044   8.339  0.3808 -0.2942 -0.1334
  169SOPE  H18X19145   6.455   0.033   8.442 -1.1589 -1.8317  0.3282
  169SOPE  H18Y19146   6.379  -0.052   8.297 -0.9973  0.9010 -1.7724
  169SOPE  H18Z19147   6.321   0.101   8.347  0.1042 -1.0303  2.5321
  170SOPE     N19148   6.402   1.838   6.486  0.1389 -0.4702 -0.4623
  170SOPE   HN119149   6.467   1.893   6.546 -0.7773  0.8326 -0.6215
  170SOPE   HN219150   6.331   1.910   6.462  1.0168  0.3329 -0.7126
  170SOPE   HN319151   6.365   1.770   6.555  2.3052 -0.7562  0.5181
  170SOPE   C1219152   6.465   1.764   6.376 -0.1994  0.5552  0.6443
  170SOPE  H12A19153   6.374   1.711   6.341  0.6294 -1.8912  1.9429
  170SOPE  H12B19154   6.538   1.692   6.419 -1.9643 -0.6032  1.8519
  170SOPE   C1119155   6.534   1.852   6.271 -0.1072 -0.0191 -0.4714
  170SOPE  H11A19156   6.457   1.890   6.202 -1.0643 -0.6097  0.2443
  170SOPE  H11B19157   6.608   1.794   6.211  1.6576  0.4953  1.0791
  170SOPE     P19158   6.683   2.070   6.247 -0.0353 -0.0264 -0.1108
  170SOPE   O1319159   6.601   2.141   6.149 -0.3872 -0.2982  0.3497
  170SOPE   O1419160   6.800   2.002   6.196 -0.2988 -0.6086  0.8609
  170SOPE   O1219161   6.615   1.959   6.331  1.1186  0.0866  0.3496
  170SOPE   O1119162   6.734   2.172   6.354 -0.4077 -0.2060 -0.9943
  170SOPE    C119163   6.678   2.170   6.489 -0.6545  0.5405 -0.1515
  170SOPE    HA19164   6.569   2.147   6.495 -0.6009  0.4028  0.2567
  170SOPE    HB19165   6.684   2.268   6.541  1.0213 -0.3651  1.4602
  170SOPE    C219166   6.757   2.081   6.587  0.5649 -0.0702 -0.2807
  170SOPE    HS19167   6.741   1.975   6.559  0.0825  0.1090 -0.7027
  170SOPE   O2119168   6.717   2.101   6.722  0.3713  0.4554 -0.1134
  170SOPE   C2119169   6.601   2.046   6.743  0.1843  0.4988 -0.4965
  170SOPE   O2219170   6.537   1.979   6.661 -0.3949  0.2097 -0.3079
  170SOPE   C2219171   6.561   2.059   6.888  0.4292 -0.9132  0.1262
  170SOPE   H2R19172   6.641   2.022   6.956  0.9292  0.7253  0.4770
  170SOPE   H2S19173   6.467   2.000   6.891 -0.2721  0.1065 -0.9202
  170SOPE    C319174   6.911   2.120   6.583 -0.5735 -0.2467  0.3423
  170SOPE    HX19175   6.932   2.221   6.623  0.7170  1.1927 -3.5291
  170SOPE    HY19176   6.947   2.130   6.478  0.2328  1.3418  0.7338
  170SOPE   O3119177   6.990   2.032   6.664  0.1867 -0.0930 -0.0918
  170SOPE   C3119178   7.045   1.930   6.604  0.2912 -0.1809  0.2849
  170SOPE   O3219179   7.040   1.913   6.483  0.0953 -0.5334 -0.0820
  170SOPE   C3219180   7.132   1.855   6.706 -0.4253 -0.2810  0.2933
  170SOPE   H2X19181   7.239   1.869   6.679 -0.6098  2.5204  0.6890
  170SOPE   H2Y19182   7.107   1.747   6.701  0.4110 -0.6365  2.7349
  170SOPE   C2319183   6.521   2.206   6.923  0.7815  0.3844 -1.4879
  170SOPE   H3R19184   6.443   2.237   6.850 -1.3493  1.6849  1.1684
  170SOPE   H3S19185   6.605   2.277   6.903  0.3409  1.4601  0.2958
  170SOPE   C2419186   6.456   2.217   7.062  0.1881  0.5456 -0.9396
  170SOPE   H4R19187   6.368   2.155   7.087  0.2244  1.5159  2.0107
  170SOPE   H4S19188   6.529   2.184   7.139 -0.5716 -1.5045 -1.0603
  170SOPE   C2519189   6.418   2.361   7.089 -0.7021 -0.3377 -0.1288
  170SOPE   H5R19190   6.500   2.421   7.043 -1.8726  1.4454 -0.0013
  170SOPE   H5S19191   6.329   2.370   7.024 -1.1785  0.2124  0.5826
  170SOPE   C2619192   6.397   2.400   7.237  0.1697 -0.0538 -0.0012
  170SOPE   H6R19193   6.495   2.381   7.286 -0.8966 -1.0458  1.8676
  170SOPE   H6S19194   6.377   2.510   7.237  0.0036 -0.0787  0.7211
  170SOPE   C2719195   6.288   2.318   7.301  0.0784  0.5870 -0.2367
  170SOPE   H7R19196   6.209   2.308   7.224 -0.0647  2.2595 -0.3497
  170SOPE   H7S19197   6.347   2.224   7.312 -0.5088  0.2771  0.3751
  170SOPE   C2819198   6.243   2.347   7.446 -0.5776  0.1650  0.7641
  170SOPE   H8R19199   6.189   2.444   7.446 -2.9903 -1.0817  1.0898
  170SOPE   H8S19200   6.168   2.267   7.465 -0.5631 -0.1508 -0.4202
  170SOPE   C2919201   6.353   2.343   7.545  0.6944  0.9279  0.0607
  170SOPE   H9119202   6.417   2.431   7.533 -0.2739  2.1155  2.8530
  170SOPE  C21019203   6.372   2.255   7.647  0.4100 -0.2590  0.2087
  170SOPE  H10119204   6.468   2.266   7.701  0.7038  2.6466 -0.7395
  170SOPE  C21119205   6.283   2.137   7.688 -1.0026  0.8936 -0.9187
  170SOPE  H11R19206   6.341   2.043   7.693 -0.0931  1.5109  2.2012
  170SOPE  H11S19207   6.201   2.121   7.615 -1.8071  0.9127 -0.0281
  170SOPE  C21219208   6.215   2.151   7.824 -0.0118 -0.6996 -0.6422
  170SOPE  H12R19209   6.142   2.071   7.848 -1.7187  0.2659 -2.3515
  170SOPE  H12S19210   6.149   2.241   7.827 -1.0950 -1.4979  1.0276
  170SOPE  C21319211   6.316   2.159   7.936 -0.4479 -0.2718 -0.4869
  170SOPE  H13R19212   6.393   2.235   7.910  0.2157 -0.6569  0.3037
  170SOPE  H13S19213   6.373   2.065   7.952 -1.6530 -0.6048  2.6033
  170SOPE  C21419214   6.252   2.210   8.061 -0.8958 -0.5709 -0.5191
  170SOPE  H14R19215   6.163   2.149   8.085 -0.5801  0.1077  3.0025
  170SOPE  H14S19216   6.213   2.311   8.037  1.7291 -0.1449 -3.6904
  170SOPE  C21519217   6.337   2.201   8.188  0.0326 -0.2941 -0.3665
  170SOPE  H15R19218   6.429   2.260   8.172  0.4310 -1.3076 -2.0637
  170SOPE  H15S19219   6.371   2.097   8.210  1.7415  0.1228 -0.9387
  170SOPE  C21619220   6.259   2.269   8.310 -0.0627 -0.1818  0.0323
  170SOPE  H16R19221   6.191   2.198   8.362  0.6084  0.4672  1.8790
  170SOPE  H16S19222   6.198   2.356   8.278  2.3312  0.8634 -2.0845
  170SOPE  C21719223   6.354   2.316   8.423 -0.9625  0.2271 -0.2527
  170SOPE  H17R19224   6.293   2.354   8.507 -0.2941 -2.1817  1.4111
  170SOPE  H17S19225   6.411   2.395   8.369  4.4246 -2.5641  0.5794
  170SOPE  C21819226   6.442   2.204   8.479 -0.2977 -0.9677  0.2988
  170SOPE  H18R19227   6.482   2.222   8.581 -0.9669 -0.4377  0.4791
  170SOPE  H18S19228   6.517   2.182   8.400  0.2118  0.4733  0.3502
  170SOPE  H18T19229   6.380   2.115   8.502  0.1551 -1.1880  0.6890
  170SOPE   C3319230   7.115   1.905   6.853 -0.6709 -0.0624 -0.1016
  170SOPE   H3X19231   7.110   2.016   6.850 -1.0243 -0.0443 -3.5265
  170SOPE   H3Y19232   7.208   1.870   6.903 -0.0737  0.7826 -0.5857
  170SOPE   C3419233   6.983   1.852   6.909 -1.3343 -0.4261 -0.0615
  170SOPE   H4X19234   6.976   1.742   6.894  1.1295 -0.8926  1.6302
  170SOPE   H4Y19235   6.903   1.887   6.840  1.7869  1.0101 -3.2575
  170SOPE   C3519236   6.950   1.915   7.047  0.0463  0.4310  0.3857
  170SOPE   H5X19237   7.036   1.899   7.114 -0.4341 -0.1594  0.8754
  170SOPE   H5Y19238   6.865   1.858   7.091 -0.8701  1.7008  0.3302
  170SOPE   C3619239   6.915   2.065   7.037 -0.5275 -0.1195 -0.4171
  170SOPE   H6X19240   6.849   2.084   6.949 -0.6042  1.5987 -0.0173
  170SOPE   H6Y19241   7.002   2.129   7.014 -1.4956  0.7851 -1.7097
  170SOPE   C3719242   6.829   2.112   7.158  0.4037 -0.9702  0.7398
  170SOPE   H7X19243   6.740   2.048   7.172  0.7312 -1.1330  2.2853
  170SOPE   H7Y19244   6.788   2.213   7.136 -0.4369 -1.7879 -1.7650
  170SOPE   C3819245   6.916   2.109   7.290 -0.6576 -0.3315  0.2593
  170SOPE   H8X19246   7.014   2.151   7.260 -1.3579  1.8560  0.7795
  170SOPE   H8Y19247   6.932   2.006   7.329  0.4065 -1.2776 -2.4623
  170SOPE   C3919248   6.858   2.201   7.401  0.5813  0.8866  0.3035
  170SOPE   H9X19249   6.755   2.162   7.420  0.9041 -1.0376 -1.4898
  170SOPE   H9Y19250   6.848   2.304   7.360  0.5091  0.6729 -0.2293
  170SOPE  C31019251   6.934   2.190   7.524 -0.3733  0.5120  0.0804
  170SOPE  H10X19252   7.037   2.231   7.516  0.5682 -1.3505  1.7829
  170SOPE  H10Y19253   6.955   2.082   7.538  1.6571  0.5789 -1.8867
  170SOPE  C31119254   6.860   2.248   7.641 -0.0038 -0.2065 -0.5375
  170SOPE  H11X19255   6.754   2.215   7.631 -0.6060  1.0960  0.9879
  170SOPE  H11Y19256   6.855   2.359   7.646 -2.6509 -0.2627 -0.2978
  170SOPE  C31219257   6.893   2.183   7.780  0.1711 -0.1948  0.3455
  170SOPE  H12X19258   7.004   2.187   7.786  0.1515  1.3156  0.0987
  170SOPE  H12Y19259   6.852   2.082   7.801 -0.2369 -0.1935 -0.4000
  170SOPE  C31319260   6.835   2.262   7.902  0.2113  0.2557  0.4390
  170SOPE  H13X19261   6.794   2.349   7.848 -2.4653 -0.8463  0.5134
  170SOPE  H13Y19262   6.913   2.295   7.974  1.0046  0.8263 -0.6641
  170SOPE  C31419263   6.712   2.199   7.965  0.0034 -0.3612  0.8586
  170SOPE  H14X19264   6.731   2.091   7.984  0.3874 -0.0821  2.2350
  170SOPE  H14Y19265   6.625   2.193   7.896  1.0059 -0.2948 -0.4469
  170SOPE  C31519266   6.665   2.264   8.098  0.2256  0.5779  0.8086
  170SOPE  H15X19267   6.591   2.197   8.146 -0.8049  1.2562  0.2127
  170SOPE  H15Y19268   6.610   2.357   8.071  0.7973 -0.2092 -4.0707
  170SOPE  C31619269   6.773   2.295   8.207  0.9392  0.5055  0.8731
  170SOPE  H16X19270   6.724   2.320   8.304  0.5106  0.0250  0.7884
  170SOPE  H16Y19271   6.847   2.370   8.173  0.4413  0.0762 -1.3315
  170SOPE  C31719272   6.864   2.176   8.249 -0.7407  0.2393  0.0201
  170SOPE  H17X19273   6.932   2.207   8.331 -0.1607  1.6777 -0.9683
  170SOPE  H17Y19274   6.928   2.153   8.161 -0.7073  0.4951 -0.0236
  170SOPE  C31819275   6.799   2.046   8.297 -0.3778  0.7137  0.8877
  170SOPE  H18X19276   6.861   1.996   8.375  1.6873  2.1720  0.2615
  170SOPE  H18Y19277   6.773   1.977   8.213  0.3564  2.5941 -0.9790
  170SOPE  H18Z19278   6.703   2.071   8.346 -1.8786  0.5370 -1.7451
  171SOPE     N19279   6.041   1.855   6.035  0.1898  0.3994 -0.0258
  171SOPE   HN119280   5.994   1.945   6.014  1.2701  1.1010  0.5053
  171SOPE   HN219281   6.094   1.853   6.124  2.8871  0.1205 -1.5419
  171SOPE   HN319282   6.108   1.836   5.957  0.6779 -1.1973  0.7347
  171SOPE   C1219283   5.942   1.740   6.027 -0.2820  0.7136  0.6088
  171SOPE  H12A19284   5.987   1.660   5.964  0.1092  0.7241  0.8714
  171SOPE  H12B19285   5.860   1.776   5.961 -1.9412 -0.3211  1.9763
  171SOPE   C1119286   5.890   1.687   6.162  0.1720  0.0733 -0.4514
  171SOPE  H11A19287   5.816   1.613   6.126  0.4591  1.0440 -3.2724
  171SOPE  H11B19288   5.844   1.767   6.223 -1.3027  1.4185 -3.1590
  171SOPE     P19289   6.072   1.664   6.350  0.1255 -0.4484  0.2412
  171SOPE   O1319290   6.124   1.799   6.316 -0.2527  0.2652 -0.6409
  171SOPE   O1419291   6.164   1.560   6.398  0.1723 -0.8393 -0.4722
  171SOPE   O1219292   5.989   1.609   6.229 -0.5730 -0.5318 -0.2461
  171SOPE   O1119293   5.964   1.680   6.465  0.9059 -0.7277 -0.0045
  171SOPE    C119294   5.859   1.595   6.500  0.6071  0.3321  0.3785
  171SOPE    HA19295   5.872   1.493   6.458  1.9939 -0.0130  1.5543
  171SOPE    HB19296   5.765   1.641   6.464 -1.1817 -2.3341  1.3802
  171SOPE    C219297   5.843   1.570   6.651  0.4717 -0.0116  0.4358
  171SOPE    HS19298   5.755   1.508   6.678  0.2535 -0.9767 -2.1735
  171SOPE   O2119299   5.829   1.691   6.719 -0.0361  0.4231  0.9388
  171SOPE   C2119300   5.727   1.768   6.687 -0.1557  0.3573 -0.1019
  171SOPE   O2219301   5.622   1.733   6.634  0.0310  0.2930 -0.1892
  171SOPE   C2219302   5.750   1.905   6.741 -0.5959 -0.1788  0.2178
  171SOPE   H2R19303   5.800   1.972   6.668 -1.9840  0.5267 -0.1219
  171SOPE   H2S19304   5.799   1.916   6.840 -1.8836  0.4963  0.8094
  171SOPE    C319305   5.975   1.501   6.700 -0.2969 -0.5015  0.5953
  171SOPE    HX19306   6.062   1.551   6.652 -1.3404  0.7769 -0.0277
  171SOPE    HY19307   5.975   1.400   6.653  1.8025 -0.3522  0.1594
  171SOPE   O3119308   5.981   1.497   6.844 -0.6222  0.5491 -0.0782
  171SOPE   C3119309   6.051   1.593   6.897 -0.3597 -0.0994 -1.5746
  171SOPE   O3219310   6.098   1.692   6.838 -0.4059  0.2869 -0.1837
  171SOPE   C3219311   6.057   1.579   7.050  0.2142  0.5068  0.3677
  171SOPE   H2X19312   6.034   1.474   7.075 -0.2646  0.4410 -0.3053
  171SOPE   H2Y19313   5.991   1.652   7.102 -1.7657 -0.2649 -0.9441
  171SOPE   C2319314   5.609   1.970   6.765 -0.1969  0.6522 -0.7853
  171SOPE   H3R19315   5.543   1.958   6.677  1.1502 -0.4601 -1.6952
  171SOPE   H3S19316   5.629   2.079   6.766  1.2823  0.5869  4.0067
  171SOPE   C2419317   5.548   1.912   6.891  0.4821  0.3529  0.0660
  171SOPE   H4R19318   5.453   1.969   6.903 -0.2799 -0.4067 -1.9355
  171SOPE   H4S19319   5.535   1.802   6.891  1.7960  0.1784  0.7256
  171SOPE   C2519320   5.624   1.944   7.021 -1.2118 -0.6844  0.7768
  171SOPE   H5R19321   5.722   1.890   7.026 -0.3304  0.5417 -1.6111
  171SOPE   H5S19322   5.632   2.054   7.031 -0.0968 -0.7087  0.2845
  171SOPE   C2619323   5.555   1.921   7.153 -0.0269 -0.0213 -0.3315
  171SOPE   H6R19324   5.571   2.005   7.225 -0.3830 -0.3824  0.1825
  171SOPE   H6S19325   5.445   1.926   7.142 -0.0923  1.1409  0.5244
  171SOPE   C2719326   5.598   1.793   7.228 -0.0158  0.6769 -0.4522
  171SOPE   H7R19327   5.571   1.706   7.164  0.2822 -0.7201  1.2628
  171SOPE   H7S19328   5.709   1.793   7.242  0.1371 -2.0189 -1.1888
  171SOPE   C2819329   5.529   1.766   7.367 -0.1792  0.2681  0.3252
  171SOPE   H8R19330   5.587   1.686   7.418  1.4233  1.4012  0.3513
  171SOPE   H8S19331   5.544   1.864   7.416 -0.0303  0.9971 -1.1195
  171SOPE   C2919332   5.383   1.738   7.355 -0.0241 -0.2980 -0.0932
  171SOPE   H9119333   5.332   1.826   7.312  2.4716  1.6507  0.6773
  171SOPE  C21019334   5.310   1.629   7.393  0.2541 -0.3598 -0.3737
  171SOPE  H10119335   5.201   1.634   7.379  0.1553  1.9156  0.6485
  171SOPE  C21119336   5.376   1.510   7.452 -0.3396 -0.1670  0.1940
  171SOPE  H11R19337   5.454   1.546   7.523 -1.5338 -0.2226  1.5802
  171SOPE  H11S19338   5.435   1.454   7.376 -0.6596 -1.2685  0.7454
  171SOPE  C21219339   5.275   1.414   7.528 -0.1135  1.2497 -0.1167
  171SOPE  H12R19340   5.331   1.321   7.556 -1.5628  0.1316 -0.8196
  171SOPE  H12S19341   5.193   1.379   7.463 -0.4671  0.9736  0.4732
  171SOPE  C21319342   5.222   1.483   7.652 -0.3145 -0.0189 -0.4656
  171SOPE  H13R19343   5.151   1.408   7.694  1.1769 -2.0213 -1.3353
  171SOPE  H13S19344   5.162   1.575   7.636  1.1547  1.3655  1.4408
  171SOPE  C21419345   5.331   1.508   7.757 -0.1931  0.4359 -0.1192
  171SOPE  H14R19346   5.348   1.618   7.758 -0.6825  0.5139  0.9767
  171SOPE  H14S19347   5.425   1.456   7.728  0.4465  2.1995 -1.4250
  171SOPE  C21519348   5.285   1.477   7.900  0.4080 -0.1456  0.1129
  171SOPE  H15R19349   5.177   1.490   7.919  0.0192 -2.6649 -0.0120
  171SOPE  H15S19350   5.331   1.541   7.979 -1.8453  0.8944  0.6474
  171SOPE  C21619351   5.318   1.338   7.937 -0.0927  0.6413  0.3579
  171SOPE  H16R19352   5.418   1.305   7.902 -0.5079  0.1316 -0.3977
  171SOPE  H16S19353   5.259   1.261   7.882  1.0384  0.4503 -0.6189
  171SOPE  C21719354   5.298   1.312   8.091  0.5305  0.2278  0.4314
  171SOPE  H17R19355   5.201   1.356   8.122 -1.1773 -0.6292 -3.0832
  171SOPE  H17S19356   5.377   1.368   8.144  0.1763 -0.8183  2.1380
  171SOPE  C21819357   5.312   1.165   8.129  0.2375 -0.5889 -0.2106
  171SOPE  H18R19358   5.248   1.090   8.079 -0.6040  0.3037 -0.5048
  171SOPE  H18S19359   5.292   1.147   8.237 -0.0754  1.8149  0.2023
  171SOPE  H18T19360   5.417   1.130   8.117  1.0465  0.6837  2.3336
  171SOPE   C3319361   6.197   1.614   7.106  0.1550  0.3012 -0.3332
  171SOPE   H3X19362   6.232   1.718   7.089  0.9247 -0.0093 -0.6714
  171SOPE   H3Y19363   6.273   1.559   7.047 -1.5155  0.1876 -2.5078
  171SOPE   C3419364   6.209   1.566   7.249  0.4600 -0.1071 -0.3258
  171SOPE   H4X19365   6.310   1.573   7.293 -0.8508  2.3171  2.6263
  171SOPE   H4Y19366   6.181   1.459   7.261 -3.0100  0.2491 -3.3857
  171SOPE   C3519367   6.125   1.650   7.349  0.1976 -0.0909 -0.0961
  171SOPE   H5X19368   6.017   1.634   7.329 -0.9042 -1.0799  5.0879
  171SOPE   H5Y19369   6.145   1.753   7.313  0.5077 -0.3772 -0.7586
  171SOPE   C3619370   6.174   1.612   7.490 -0.1366  0.3050  0.5122
  171SOPE   H6X19371   6.285   1.611   7.487 -0.0864  2.4763  0.0932
  171SOPE   H6Y19372   6.146   1.504   7.495 -0.0311  0.2427 -0.1178
  171SOPE   C3719373   6.115   1.704   7.602 -0.2976 -0.1696  0.7257
  171SOPE   H7X19374   6.006   1.692   7.586 -0.7043  0.2512  2.8638
  171SOPE   H7Y19375   6.143   1.807   7.575  1.4402 -1.1692 -1.5462
  171SOPE   C3819376   6.153   1.665   7.740 -0.2144  0.8578  0.0648
  171SOPE   H8X19377   6.263   1.649   7.730 -0.1047 -0.3179  2.4952
  171SOPE   H8Y19378   6.099   1.570   7.761 -3.6839  2.3622 -1.3518
  171SOPE   C3919379   6.118   1.768   7.854  0.4679 -0.1796  0.2541
  171SOPE   H9X19380   6.007   1.768   7.853  0.4307 -1.6433  1.4841
  171SOPE   H9Y19381   6.162   1.866   7.826 -4.5587  2.8659  1.7003
  171SOPE  C31019382   6.166   1.737   8.000 -0.4956  0.1206 -0.3104
  171SOPE  H10X19383   6.276   1.726   8.002 -0.4660  0.2106 -1.1638
  171SOPE  H10Y19384   6.113   1.647   8.036  0.3809 -0.4931 -0.5333
  171SOPE  C31119385   6.125   1.845   8.102  0.0491 -0.2703 -0.8206
  171SOPE  H11X19386   6.180   1.936   8.071 -1.4424  0.3042 -1.8830
  171SOPE  H11Y19387   6.155   1.810   8.203 -2.1419 -0.8579 -0.3244
  171SOPE  C31219388   5.976   1.885   8.091  0.0365 -0.4232 -0.2717
  171SOPE  H12X19389   5.910   1.796   8.079 -0.1805 -0.0602 -1.9829
  171SOPE  H12Y19390   5.959   1.958   8.009  2.3804  2.3687  1.5029
  171SOPE  C31319391   5.932   1.955   8.224  0.3303 -0.5940  0.9769
  171SOPE  H13X19392   5.963   2.062   8.227  1.3328 -0.8110 -0.5974
  171SOPE  H13Y19393   5.973   1.906   8.316 -1.4662 -0.6200  1.8005
  171SOPE  C31419394   5.781   1.937   8.243 -0.0818  0.0375  0.4584
  171SOPE  H14X19395   5.760   1.829   8.229  2.9991 -0.4726 -1.0578
  171SOPE  H14Y19396   5.731   2.002   8.168  0.7363 -2.8574 -2.8497
  171SOPE  C31519397   5.730   1.972   8.388 -0.5103  0.7339 -0.1654
  171SOPE  H15X19398   5.771   1.904   8.466  0.4235  0.8950 -0.5085
  171SOPE  H15Y19399   5.622   1.947   8.390 -0.0652 -1.4146  0.3993
  171SOPE  C31619400   5.749   2.120   8.409  0.2863  0.3144 -0.5755
  171SOPE  H16X19401   5.718   2.175   8.317  0.4012 -1.1407 -1.5112
  171SOPE  H16Y19402   5.856   2.135   8.436 -0.2158  1.0949  1.1030
  171SOPE  C31719403   5.667   2.180   8.520  0.7667 -0.3611 -0.6317
  171SOPE  H17X19404   5.668   2.112   8.608  1.5936 -0.2702 -0.5612
  171SOPE  H17Y19405   5.560   2.197   8.494  0.1018 -2.3441  0.5900
  171SOPE  C31819406   5.731   2.306   8.577  0.2126 -0.0908 -0.2776
  171SOPE  H18X19407   5.698   2.394   8.518 -3.1579  2.4967  4.7868
  171SOPE  H18Y19408   5.841   2.297   8.592 -0.1656 -1.0357  2.3929
  171SOPE  H18Z19409   5.689   2.345   8.672 -0.0037 -0.8523 -0.0578
  172SOPE     N19410   1.042   6.154   6.537 -0.3633  0.4110  0.1874
  172SOPE   HN119411   0.979   6.185   6.613 -1.3997 -0.6948 -0.1878
  172SOPE   HN219412   1.107   6.220   6.490 -1.1594 -1.5596 -4.2411
  172SOPE   HN319413   0.978   6.118   6.463 -0.4379  0.5655  0.1776
  172SOPE   C1219414   1.113   6.032   6.580  0.5033  0.3519 -0.0491
  172SOPE  H12A19415   1.198   6.073   6.637  1.4606 -3.9810  1.9742
  172SOPE  H12B19416   1.151   5.972   6.495 -1.0038 -0.2437 -0.3470
  172SOPE   C1119417   1.026   5.946   6.672 -0.2592  0.0842 -0.6756
  172SOPE  H11A19418   1.004   6.000   6.767 -0.8924  0.5710 -1.0868
  172SOPE  H11B19419   1.075   5.849   6.694 -0.9511 -0.3276 -0.9257
  172SOPE     P19420   0.880   5.796   6.516 -0.3324  0.2493  0.2503
  172SOPE   O1319421   0.993   5.773   6.420  0.2235 -0.8148  0.3111
  172SOPE   O1419422   0.746   5.795   6.450 -0.3595  0.8269 -0.2885
  172SOPE   O1219423   0.900   5.925   6.605 -0.0520 -0.0935  0.4062
  172SOPE   O1119424   0.881   5.678   6.623 -0.0444 -0.5952  0.0995
  172SOPE    C119425   0.772   5.655   6.713  0.2601  0.8726 -0.1178
  172SOPE    HA19426   0.679   5.666   6.654  1.1295  1.3628 -1.4342
  172SOPE    HB19427   0.766   5.733   6.792 -1.9737 -0.9456  1.6833
  172SOPE    C219428   0.759   5.505   6.762 -0.4028 -0.3987 -0.2302
  172SOPE    HS19429   0.670   5.497   6.828  0.4203 -2.9003  0.6978
  172SOPE   O2119430   0.876   5.463   6.841  0.2022  0.1733 -0.0565
  172SOPE   C2119431   0.898   5.527   6.958  0.2290  0.3533 -0.0993
  172SOPE   O2219432   0.830   5.620   7.000 -0.2729 -0.5052  0.2193
  172SOPE   C2219433   1.034   5.490   7.002 -0.6720 -0.1221  0.5132
  172SOPE   H2R19434   1.111   5.559   6.962 -0.6163 -0.8743 -0.6976
  172SOPE   H2S19435   1.060   5.387   6.971 -0.7195  0.2929 -0.9502
  172SOPE    C319436   0.745   5.406   6.641 -0.0228  0.3558 -0.0422
  172SOPE    HX19437   0.819   5.419   6.559  0.2732 -0.3738  0.0984
  172SOPE    HY19438   0.640   5.429   6.612  0.1634  1.4096  0.0993
  172SOPE   O3119439   0.736   5.270   6.698 -0.1807  0.0412  0.8413
  172SOPE   C3119440   0.852   5.209   6.705  0.2015  0.1681 -0.3961
  172SOPE   O3219441   0.954   5.249   6.656  0.2317 -0.1252  0.0997
  172SOPE   C3219442   0.850   5.087   6.796 -0.3862 -0.0546  0.6138
  172SOPE   H2X19443   0.908   5.009   6.743 -0.4540  0.3196 -0.0190
  172SOPE   H2Y19444   0.751   5.036   6.806 -1.0303  0.8019 -1.0673
  172SOPE   C2319445   1.048   5.501   7.157 -0.3820  0.0155 -0.3001
  172SOPE   H3R19446   0.978   5.435   7.210  0.1426  0.6608  1.2518
  172SOPE   H3S19447   1.030   5.608   7.181  2.4082  0.0743  2.0069
  172SOPE   C2419448   1.190   5.466   7.207  0.2740 -0.3053 -0.5026
  172SOPE   H4R19449   1.223   5.363   7.182 -0.4114 -0.5104 -0.5857
  172SOPE   H4S19450   1.267   5.531   7.161  0.6383  0.1222  0.6864
  172SOPE   C2519451   1.202   5.476   7.367  0.8412  0.2735  0.4283
  172SOPE   H5R19452   1.164   5.575   7.400  1.2447  0.6689 -0.2714
  172SOPE   H5S19453   1.127   5.404   7.406 -1.5666  1.4781 -1.6158
  172SOPE   C2619454   1.341   5.443   7.431  0.0290 -0.3726 -0.0477
  172SOPE   H6R19455   1.374   5.343   7.396 -0.2175  0.0149 -1.4800
  172SOPE   H6S19456   1.412   5.508   7.374  0.2559 -0.5573  0.0238
  172SOPE   C2719457   1.360   5.471   7.584  0.6543 -0.6854  0.3711
  172SOPE   H7R19458   1.296   5.554   7.620  1.4767 -0.3595  1.1221
  172SOPE   H7S19459   1.333   5.378   7.637 -0.5651  0.3786  1.6922
  172SOPE   C2819460   1.506   5.506   7.627 -0.4906 -0.1323 -0.2661
  172SOPE   H8R19461   1.551   5.590   7.569  0.3623  0.8550  1.7340
  172SOPE   H8S19462   1.501   5.548   7.729  2.1116 -1.8973  0.6801
  172SOPE   C2919463   1.599   5.391   7.621  0.4936  0.1960  0.0668
  172SOPE   H9119464   1.606   5.337   7.525 -0.8751 -0.8381  0.5194
  172SOPE  C21019465   1.670   5.334   7.717  0.3305 -0.4329 -0.0904
  172SOPE  H10119466   1.719   5.238   7.694 -0.5039 -1.1172  0.9047
  172SOPE  C21119467   1.679   5.371   7.860  0.1493  0.1614  0.4484
  172SOPE  H11R19468   1.658   5.480   7.870 -0.8999 -0.1831  2.4489
  172SOPE  H11S19469   1.771   5.329   7.907 -0.4138  1.0786  2.5031
  172SOPE  C21219470   1.567   5.303   7.939  0.5539  0.1890 -0.2669
  172SOPE  H12R19471   1.569   5.193   7.924  2.5692 -0.0746  1.4971
  172SOPE  H12S19472   1.471   5.349   7.907  0.0096 -1.1321 -0.5899
  172SOPE  C21319473   1.576   5.332   8.086  0.2857  0.2125 -0.7291
  172SOPE  H13R19474   1.669   5.292   8.132 -1.9151 -2.4989  1.7406
  172SOPE  H13S19475   1.492   5.287   8.142  0.0161  1.2099 -0.3072
  172SOPE  C21419476   1.578   5.482   8.133  0.8855 -0.1869  0.1402
  172SOPE  H14R19477   1.510   5.538   8.067  0.1741 -1.3643 -0.1577
  172SOPE  H14S19478   1.677   5.528   8.114  0.7464 -0.5078 -1.4764
  172SOPE  C21519479   1.533   5.515   8.279 -0.4554  0.4373 -0.5465
  172SOPE  H15R19480   1.436   5.465   8.301 -0.9557  0.8085 -1.8373
  172SOPE  H15S19481   1.509   5.622   8.289 -0.1955  0.5113 -0.6849
  172SOPE  C21619482   1.636   5.484   8.389 -0.1303  0.4905  0.2866
  172SOPE  H16R19483   1.737   5.512   8.352  0.8089 -1.5490  1.1755
  172SOPE  H16S19484   1.623   5.376   8.409 -1.0088  0.4486 -0.4549
  172SOPE  C21719485   1.609   5.552   8.524  0.6860 -0.1351 -0.1248
  172SOPE  H17R19486   1.507   5.517   8.550  0.8550 -0.9451 -0.5257
  172SOPE  H17S19487   1.601   5.661   8.509 -1.1137 -0.0609  1.0179
  172SOPE  C21819488   1.707   5.528   8.634 -0.0766  0.0464  0.2805
  172SOPE  H18R19489   1.808   5.555   8.596 -0.7803  0.0049 -1.6746
  172SOPE  H18S19490   1.725   5.423   8.667  1.8506  0.1558 -0.2792
  172SOPE  H18T19491   1.680   5.586   8.725 -0.0326  2.5784 -1.2316
  172SOPE   C3319492   0.940   5.101   6.918  0.9050 -0.5758 -0.6596
  172SOPE   H3X19493   0.890   5.173   6.986 -0.5286 -1.7604 -0.4183
  172SOPE   H3Y19494   1.038   5.150   6.900  0.0167  2.7745  2.4180
  172SOPE   C3419495   0.964   4.970   7.002 -0.0202 -0.8091 -0.1655
  172SOPE   H4X19496   1.003   4.898   6.927 -1.2429 -0.7034 -0.9179
  172SOPE   H4Y19497   0.875   4.930   7.054 -0.8664 -0.1274 -1.0626
  172SOPE   C3519498   1.076   4.997   7.109 -0.9478  0.5017  0.0837
  172SOPE   H5X19499   1.156   5.065   7.074 -0.5173 -0.7322 -1.4318
  172SOPE   H5Y19500   1.133   4.904   7.131  1.8112  1.4455 -2.4867
  172SOPE   C3619501   1.042   5.042   7.249  0.3857 -1.2133 -0.7682
  172SOPE   H6X19502   0.955   4.982   7.282 -0.5064  0.6602  0.4779
  172SOPE   H6Y19503   1.006   5.147   7.245  1.1899 -0.9426 -1.1841
  172SOPE   C3719504   1.167   5.031   7.338  0.7582  0.3704 -0.9275
  172SOPE   H7X19505   1.252   5.089   7.298  2.1318 -0.5561  0.5420
  172SOPE   H7Y19506   1.205   4.927   7.344  0.1659  0.1985  0.1095
  172SOPE   C3819507   1.140   5.076   7.484 -1.0800 -0.7071 -0.1335
  172SOPE   H8X19508   1.057   5.013   7.522  1.2516 -3.1418  1.2516
  172SOPE   H8Y19509   1.111   5.183   7.487 -0.8225 -0.6578  1.1163
  172SOPE   C3919510   1.270   5.056   7.576  0.1946  0.2311 -0.3756
  172SOPE   H9X19511   1.339   5.142   7.562  1.6159 -0.7240  0.5814
  172SOPE   H9Y19512   1.326   4.976   7.524 -0.0827 -0.9674  1.0938
  172SOPE  C31019513   1.250   5.017   7.722 -0.0996 -0.2248 -1.0576
  172SOPE  H10X19514   1.162   4.953   7.746 -0.6200  0.0596 -2.1331
  172SOPE  H10Y19515   1.250   5.110   7.783 -0.7305 -0.7080 -0.3091
  172SOPE  C31119516   1.377   4.948   7.781 -0.0637  0.7210 -0.0027
  172SOPE  H11X19517   1.461   5.016   7.753 -1.7581  2.8692 -0.1224
  172SOPE  H11Y19518   1.395   4.853   7.726 -0.8001 -0.0818  1.1047
  172SOPE  C31219519   1.365   4.923   7.932 -0.1430  0.1751 -0.2065
  172SOPE  H12X19520   1.280   4.852   7.943 -0.1882  0.1693 -0.5656
  172SOPE  H12Y19521   1.332   5.018   7.980 -2.0164 -0.6911  0.3157
  172SOPE  C31319522   1.486   4.854   7.989  0.2767 -1.1089  0.1419
  172SOPE  H13X19523   1.574   4.905   7.944 -2.0682  0.2665 -3.3460
  172SOPE  H13Y19524   1.491   4.753   7.944  0.5408 -0.0914 -2.2759
  172SOPE  C31419525   1.486   4.831   8.145 -0.0201  0.4759 -0.3895
  172SOPE  H14X19526   1.582   4.776   8.163 -0.1342  0.0650 -1.0090
  172SOPE  H14Y19527   1.397   4.768   8.167  0.3209  0.5305  1.2751
  172SOPE  C31519528   1.492   4.955   8.238 -0.8615  0.2084  0.3472
  172SOPE  H15X19529   1.405   5.020   8.215  1.0529  2.4756 -0.9754
  172SOPE  H15Y19530   1.585   5.013   8.221 -0.3547 -0.7658 -0.3246
  172SOPE  C31619531   1.497   4.910   8.389 -0.1509 -0.3697  0.1591
  172SOPE  H16X19532   1.408   4.851   8.419 -0.6050  0.7789  1.1293
  172SOPE  H16Y19533   1.480   4.994   8.459 -0.2116  1.8281 -2.3088
  172SOPE  C31719534   1.622   4.835   8.428 -0.0092  0.2899  0.1239
  172SOPE  H17X19535   1.612   4.737   8.377 -1.5860  0.4613  0.0610
  172SOPE  H17Y19536   1.609   4.801   8.533  0.7046 -1.9647 -0.4644
  172SOPE  C31819537   1.749   4.911   8.399  0.0487 -0.0529 -0.4137
  172SOPE  H18X19538   1.754   5.012   8.445 -1.0750 -0.1374 -0.0846
  172SOPE  H18Y19539   1.757   4.935   8.291 -0.8590  0.4113 -0.3873
  172SOPE  H18Z19540   1.844   4.864   8.432 -0.5934  0.4308  2.4408
  173SAPI   C1219541   2.441   5.368  11.190 -0.4442 -0.6930  0.6111
  173SAPI    H219542   2.544   5.325  11.191 -0.1819 -0.0976 -0.2275
  173SAPI    O219543   2.350   5.261  11.168  0.1633 -0.0186  0.5357
  173SAPI   HO219544   2.366   5.191  11.231  0.6356  0.2369  0.6977
  173SAPI   C1319545   2.425   5.436  11.321 -0.2880  0.2064  0.1140
  173SAPI    H319546   2.496   5.520  11.334 -0.2752 -0.0109  1.6893
  173SAPI    O319547   2.445   5.337  11.419 -0.2161  0.3484  0.2087
  173SAPI   HO319548   2.383   5.361  11.488  0.7341 -0.9677  1.6002
  173SAPI   C1419549   2.288   5.503  11.335 -0.2938  0.1161  0.4464
  173SAPI    H419550   2.215   5.420  11.325 -0.1662 -0.1646  1.6422
  173SAPI    O419551   2.261   5.564  11.462 -0.1367  0.0238  0.0154
  173SAPI   HO419552   2.170   5.542  11.485  0.2682 -2.4989 -0.5319
  173SAPI   C1519553   2.263   5.598  11.219  0.4937 -0.3611  0.2001
  173SAPI    H519554   2.337   5.681  11.228  0.1043 -0.0570  0.6343
  173SAPI    O519555   2.132   5.663  11.231  0.2301  0.3422 -0.2396
  173SAPI   HO519556   2.063   5.597  11.227 -0.1367  0.6902  0.2924
  173SAPI   C1619557   2.291   5.533  11.080 -0.4125  0.0894  0.1445
  173SAPI    H619558   2.223   5.447  11.063  1.1133 -1.4882  1.6020
  173SAPI    O619559   2.279   5.627  10.972 -0.0087 -0.2799  0.0954
  173SAPI   HO619560   2.222   5.581  10.909  0.4906  3.3658 -3.4671
  173SAPI   C1119561   2.430   5.475  11.085  0.3557  0.6738 -0.2062
  173SAPI    H119562   2.503   5.553  11.114  1.7357 -1.3521  2.1908
  173SAPI     P19563   2.622   5.376  10.917 -0.1047 -0.0351 -0.0180
  173SAPI   O1319564   2.613   5.259  10.828 -0.1410  0.5624 -0.5323
  173SAPI   O1419565   2.715   5.364  11.035  0.1886  0.5055 -0.4982
  173SAPI   O1219566   2.472   5.426  10.963  0.3741  0.0494  0.0006
  173SAPI   O1119567   2.682   5.499  10.834  0.0912  0.0653 -0.3898
  173SAPI    C119568   2.599   5.559  10.735 -0.2783 -0.1183  0.1852
  173SAPI    HA19569   2.492   5.571  10.762 -0.0434  2.1927  0.2627
  173SAPI    HB19570   2.617   5.668  10.725 -2.8310  0.3045 -0.5851
  173SAPI    C219571   2.602   5.491  10.596 -0.0055  0.3054 -0.3397
  173SAPI    HS19572   2.584   5.383  10.614 -2.7160  0.9004  0.9646
  173SAPI   O2119573   2.735   5.515  10.545 -0.3092  0.1068 -0.0980
  173SAPI   C2119574   2.792   5.421  10.472  0.4189 -0.1675 -0.1271
  173SAPI   O2219575   2.747   5.311  10.453 -0.7273 -0.8170  0.7810
  173SAPI   C2219576   2.942   5.462  10.438 -0.0780 -0.1560  0.3392
  173SAPI   H2R19577   2.963   5.548  10.505 -1.7883 -0.1678  0.9399
  173SAPI   H2S19578   3.008   5.378  10.468  1.8601  1.4074  0.6696
  173SAPI    C319579   2.504   5.542  10.492  0.4449 -0.6723 -0.3602
  173SAPI    HX19580   2.512   5.651  10.470 -1.3950 -0.1937  1.0515
  173SAPI    HY19581   2.401   5.545  10.534  1.0883  0.7453  1.2652
  173SAPI   O3119582   2.506   5.474  10.369 -0.0858  0.6437 -0.2312
  173SAPI   C3119583   2.467   5.344  10.378 -2.0139  0.4719  0.3321
  173SAPI   O3219584   2.414   5.288  10.473 -0.6615  0.3873 -0.4203
  173SAPI   C3219585   2.499   5.269  10.246 -0.1163 -0.2543  0.2593
  173SAPI   H2X19586   2.486   5.166  10.286 -2.5106  0.1102  0.5686
  173SAPI   H2Y19587   2.597   5.304  10.209  0.6712 -0.5529  1.9483
  173SAPI   C2319588   2.969   5.466  10.281  0.1954 -0.1994  0.3162
  173SAPI   H3R19589   2.896   5.402  10.226 -0.2161 -0.5600  1.2423
  173SAPI   H3S19590   3.067   5.421  10.255 -0.1492 -0.2656 -0.9133
  173SAPI   C2419591   2.954   5.613  10.223 -0.5108  0.8804  0.1590
  173SAPI   H4R19592   2.964   5.617  10.112 -1.5772  3.4008  0.0869
  173SAPI   H4S19593   3.049   5.662  10.252  0.0399 -0.7453  1.2654
  173SAPI   C2519594   2.836   5.693  10.278 -0.4023 -0.1766  0.2209
  173SAPI   H5R19595   2.845   5.722  10.384  0.6505  1.9653 -0.3853
  173SAPI   C2619596   2.723   5.726  10.214 -0.1802  0.0058  0.1934
  173SAPI   H6R19597   2.645   5.785  10.264 -0.4270  0.7776 -1.0475
  173SAPI   C2719598   2.696   5.701  10.068 -0.4948 -0.4969  0.6128
  173SAPI   H7R19599   2.793   5.719  10.016 -0.8416  2.8674  0.8758
  173SAPI   H7S19600   2.631   5.777  10.020  0.7198  0.3249  0.2164
  173SAPI   C2819601   2.638   5.566  10.054 -0.1438  0.5773 -0.4468
  173SAPI   H8R19602   2.657   5.495  10.136 -0.7851 -2.3166 -2.6353
  173SAPI   C2919603   2.550   5.532   9.964  0.6787 -0.1129  0.7345
  173SAPI   H9R19604   2.494   5.438   9.971  1.2537 -0.3729  2.1772
  173SAPI  C21019605   2.494   5.623   9.862 -0.3096 -0.0823  0.6834
  173SAPI  H10R19606   2.472   5.725   9.901  0.6148  0.3287  0.1587
  173SAPI  H10S19607   2.393   5.584   9.837 -0.1931 -1.1033  1.7293
  173SAPI  C21119608   2.586   5.652   9.742  0.1697 -0.1179  0.5066
  173SAPI  H11R19609   2.674   5.709   9.777 -0.4444  0.2870  1.4180
  173SAPI  C21219610   2.565   5.622   9.613 -0.2025  0.1790  0.5527
  173SAPI  H12R19611   2.641   5.658   9.542  0.2120  1.9524  1.8454
  173SAPI  C21319612   2.447   5.542   9.555 -1.0084  0.1367 -0.4404
  173SAPI  H13R19613   2.384   5.502   9.638 -1.2813 -1.1185 -1.2242
  173SAPI  H13S19614   2.490   5.449   9.513 -1.6382  0.3389 -1.5744
  173SAPI  C21419615   2.369   5.613   9.443  0.0662  0.0174  0.4752
  173SAPI  H14R19616   2.302   5.690   9.483  1.5627  0.7380  1.7261
  173SAPI  C21519617   2.361   5.570   9.314  0.1013 -0.0437  0.5026
  173SAPI  H15R19618   2.295   5.629   9.247  0.0318 -1.1993 -0.4789
  173SAPI  C21619619   2.428   5.459   9.248 -0.4861  0.4040  0.2905
  173SAPI  H16R19620   2.365   5.428   9.162 -0.4991  1.8830 -0.2487
  173SAPI  H16S19621   2.421   5.368   9.312 -0.3529 -0.4129 -0.8320
  173SAPI  C21719622   2.577   5.496   9.200  0.4998 -0.1317 -0.6928
  173SAPI  H17R19623   2.616   5.397   9.168  0.1184 -0.9391  1.2571
  173SAPI  H17S19624   2.637   5.532   9.286  1.0243 -1.9684 -0.2541
  173SAPI  C21819625   2.599   5.608   9.092 -0.2178  0.5780 -0.3107
  173SAPI  H18R19626   2.708   5.621   9.102 -0.2072  0.5112 -0.3417
  173SAPI  H18S19627   2.545   5.704   9.108 -1.5747  0.0286 -1.3751
  173SAPI  C21919628   2.566   5.559   8.953 -0.8256  0.5010  0.2813
  173SAPI  H19R19629   2.458   5.559   8.931 -0.4008  1.1649 -2.0582
  173SAPI  H19S19630   2.604   5.454   8.945 -0.3666  0.8089 -2.4151
  173SAPI  C22019631   2.627   5.649   8.846 -0.6047 -1.0176  0.6073
  173SAPI  H20R19632   2.565   5.742   8.843 -0.3554 -0.8106  1.6055
  173SAPI  H20S19633   2.631   5.607   8.743  2.6572 -1.2454  0.7282
  173SAPI  H20T19634   2.725   5.693   8.871 -1.8757  2.4120  0.1818
  173SAPI   C3319635   2.380   5.294  10.150 -0.4438 -0.0924 -0.2830
  173SAPI   H3X19636   2.410   5.276  10.044 -0.7313  2.0306 -0.7821
  173SAPI   H3Y19637   2.363   5.404  10.144  0.9466  0.0790 -2.7067
  173SAPI   C3419638   2.252   5.225  10.189 -0.6421 -0.2238  0.0454
  173SAPI   H4X19639   2.220   5.261  10.289  1.8527  0.4119  0.6726
  173SAPI   H4Y19640   2.266   5.115  10.183 -0.9343 -0.1908 -1.8745
  173SAPI   C3519641   2.142   5.265  10.088 -0.3313  0.4844 -0.1218
  173SAPI   H5X19642   2.062   5.188  10.101 -0.4013  1.0198  4.1386
  173SAPI   H5Y19643   2.180   5.258   9.984  0.2175  1.4170  0.0097
  173SAPI   C3619644   2.085   5.405  10.108  0.4310  0.5337 -0.7422
  173SAPI   H6X19645   2.126   5.439  10.206  0.7874 -0.9752 -0.3472
  173SAPI   H6Y19646   1.974   5.415  10.113  0.6595  4.0610  0.5249
  173SAPI   C3719647   2.133   5.522  10.012  0.5330  0.4628 -0.2487
  173SAPI   H7X19648   2.231   5.499   9.966  0.4052 -1.9445  0.5593
  173SAPI   H7Y19649   2.144   5.612  10.075 -0.1133 -0.0373  0.6020
  173SAPI   C3819650   2.035   5.547   9.893  0.2608 -0.6100  0.7237
  173SAPI   H8X19651   2.070   5.627   9.825 -1.0238 -0.9896 -0.4244
  173SAPI   H8Y19652   1.945   5.592   9.940 -0.6617  2.7865 -3.7043
  173SAPI   C3919653   2.009   5.426   9.799  0.2324 -0.1724 -0.3306
  173SAPI   H9X19654   1.911   5.456   9.757  1.5215  1.9180 -2.0670
  173SAPI   H9Y19655   2.003   5.326   9.847 -0.2899 -0.3431 -0.7409
  173SAPI  C31019656   2.099   5.423   9.683 -0.2085 -0.5845 -0.0209
  173SAPI  H10X19657   2.202   5.397   9.716 -0.0109  0.8777  0.5879
  173SAPI  H10Y19658   2.105   5.526   9.643  1.4560 -0.2187  1.0420
  173SAPI  C31119659   2.042   5.322   9.578  0.1218  0.1864  1.1373
  173SAPI  H11X19660   1.943   5.351   9.536  0.1604 -1.9730 -0.6493
  173SAPI  H11Y19661   2.024   5.229   9.636 -1.2244 -0.6059 -0.4524
  173SAPI  C31219662   2.137   5.291   9.470  0.0224 -0.5116  0.0488
  173SAPI  H12X19663   2.225   5.238   9.513  0.7956 -0.1092 -0.9725
  173SAPI  H12Y19664   2.168   5.389   9.427 -1.9054 -0.0283 -0.3030
  173SAPI  C31319665   2.090   5.192   9.362  0.1567 -0.0878 -0.4145
  173SAPI  H13X19666   2.007   5.241   9.306 -0.0471  1.1459  0.9029
  173SAPI  H13Y19667   2.059   5.097   9.410  1.3751 -0.8445 -1.0968
  173SAPI  C31419668   2.198   5.148   9.263  0.4133  0.2264 -0.1186
  173SAPI  H14X19669   2.291   5.145   9.323  0.1320 -1.7067  0.3036
  173SAPI  H14Y19670   2.220   5.230   9.191  0.3636  0.1138 -0.2630
  173SAPI  C31519671   2.176   5.019   9.186  0.5110 -0.0671  0.2329
  173SAPI  H15X19672   2.071   5.017   9.150  0.6833  0.4337 -0.3087
  173SAPI  H15Y19673   2.187   4.935   9.258 -0.3959  0.5536  1.1376
  173SAPI  C31619674   2.275   5.005   9.071 -0.1484 -1.1695  0.0079
  173SAPI  H16X19675   2.373   5.003   9.122  0.8949 -1.9804 -1.9496
  173SAPI  H16Y19676   2.281   5.093   9.003 -0.7504 -0.3733  0.9510
  173SAPI  C31719677   2.265   4.886   8.976  0.5456  0.3690 -0.5878
  173SAPI  H17X19678   2.342   4.894   8.896  1.9777 -0.2400  0.6750
  173SAPI  H17Y19679   2.167   4.882   8.924  1.0073 -0.2347 -1.4383
  173SAPI  C31819680   2.295   4.753   9.055 -0.6048 -0.3607  0.9880
  173SAPI  H18X19681   2.386   4.746   9.118  0.7444  0.3082 -0.8027
  173SAPI  H18Y19682   2.301   4.667   8.984 -1.5494  0.4124 -0.0537
  173SAPI  H18Z19683   2.206   4.733   9.118 -1.4781 -2.0004 -0.6556
  174SAPI   C1219684   6.182   2.303  10.797 -0.4582 -0.0203 -0.2451
  174SAPI    H219685   6.103   2.269  10.727  1.4379 -2.3727 -1.3668
  174SAPI    O219686   6.297   2.289  10.726  0.0487 -0.5749 -0.0757
  174SAPI   HO219687   6.282   2.222  10.659  0.8970 -2.1426  1.2450
  174SAPI   C1319688   6.151   2.451  10.837 -0.1793  0.9558  0.5087
  174SAPI    H319689   6.054   2.443  10.890 -0.6992 -3.1093 -0.6548
  174SAPI    O319690   6.134   2.539  10.726 -0.0048  0.4349  0.3179
  174SAPI   HO319691   6.199   2.519  10.658  0.0784  2.2725 -0.1820
  174SAPI   C1419692   6.257   2.506  10.929 -0.2527 -0.0131  0.4802
  174SAPI    H419693   6.358   2.501  10.881 -1.3127 -1.1771 -1.7942
  174SAPI    O419694   6.230   2.637  10.970  0.0011  0.3100  0.5134
  174SAPI   HO419695   6.309   2.689  10.955  2.4721 -3.0405  0.8733
  174SAPI   C1519696   6.267   2.412  11.051  0.4162 -0.6328  0.3474
  174SAPI    H519697   6.164   2.428  11.090  0.5911  0.0948  0.5192
  174SAPI    O519698   6.361   2.456  11.154 -0.2184  0.4348  0.4593
  174SAPI   HO519699   6.362   2.395  11.228 -0.4179  2.1474  1.9527
  174SAPI   C1619700   6.285   2.266  11.014 -0.0499 -0.3626  0.2293
  174SAPI    H619701   6.386   2.252  10.968  1.1437  2.8597  1.5345
  174SAPI    O619702   6.290   2.180  11.131 -0.0072 -0.2503 -0.2251
  174SAPI   HO619703   6.300   2.090  11.100 -2.0842 -0.0166 -1.7703
  174SAPI   C1119704   6.174   2.215  10.917  0.6333 -0.3314 -0.5453
  174SAPI    H119705   6.083   2.225  10.980  0.8603 -1.9902  0.1060
  174SAPI     P19706   6.085   1.987  10.811 -0.4557 -0.7226 -0.1855
  174SAPI   O1319707   5.958   2.060  10.806  0.4072 -0.3595 -0.4732
  174SAPI   O1419708   6.081   1.857  10.877 -0.1862  0.3141  0.2476
  174SAPI   O1219709   6.196   2.075  10.895  0.2960  0.2231 -0.5711
  174SAPI   O1119710   6.155   1.987  10.669 -0.7546  0.2524 -0.6483
  174SAPI    C119711   6.165   1.870  10.586  0.0505  0.5842  1.0144
  174SAPI    HA19712   6.215   1.787  10.641  1.0987 -0.3392 -1.2197
  174SAPI    HB19713   6.072   1.822  10.551  1.5798 -2.5053  0.8202
  174SAPI    C219714   6.240   1.893  10.452 -0.0753  0.1773  0.5528
  174SAPI    HS19715   6.346   1.922  10.466 -0.0710  0.0645  0.7499
  174SAPI   O2119716   6.173   1.996  10.368 -0.5770  0.4015  0.3187
  174SAPI   C2119717   6.210   2.123  10.386  0.1466  0.0980  0.5969
  174SAPI   O2219718   6.290   2.165  10.464  0.0239  0.2104 -0.3454
  174SAPI   C2219719   6.135   2.218  10.285 -0.4538 -0.3623  0.3224
  174SAPI   H2R19720   6.058   2.162  10.228 -0.3616  0.8529 -1.0432
  174SAPI   H2S19721   6.081   2.285  10.355  0.7543  3.5355 -2.1675
  174SAPI    C319722   6.251   1.754  10.380  0.8699  0.5336  0.6329
  174SAPI    HX19723   6.151   1.708  10.387  1.1785 -0.6848 -1.7496
  174SAPI    HY19724   6.329   1.695  10.433  1.0339  0.5088  0.3695
  174SAPI   O3119725   6.277   1.761  10.238 -0.2599  0.7730 -0.2988
  174SAPI   C3119726   6.267   1.649  10.167 -0.1001 -0.9212 -0.4234
  174SAPI   O3219727   6.231   1.540  10.208 -0.1973  0.1535 -0.2907
  174SAPI   C3219728   6.342   1.661  10.030  0.2645  0.0725  0.6460
  174SAPI   H2X19729   6.448   1.655  10.060  0.6362 -1.6777 -0.8428
  174SAPI   H2Y19730   6.311   1.758   9.987  1.5617  0.5441  0.7537
  174SAPI   C2319731   6.233   2.299  10.195 -0.4908  0.0491 -0.1201
  174SAPI   H3R19732   6.320   2.342  10.249 -0.7083  3.8276 -2.4648
  174SAPI   H3S19733   6.176   2.375  10.138  2.1027  0.2278 -2.7244
  174SAPI   C2419734   6.287   2.211  10.080 -0.1706 -0.3051 -0.0053
  174SAPI   H4R19735   6.337   2.124  10.128  1.8444  0.5974 -0.3317
  174SAPI   H4S19736   6.367   2.268  10.028 -0.5019 -0.2501 -0.4603
  174SAPI   C2519737   6.187   2.145   9.988 -0.2866 -0.2808  0.4953
  174SAPI   H5R19738   6.141   2.052  10.025 -0.8819 -0.3075 -0.2885
  174SAPI   C2619739   6.146   2.192   9.870  0.3635  0.7758  0.4823
  174SAPI   H6R19740   6.074   2.124   9.823  0.5791  1.1596 -0.4232
  174SAPI   C2719741   6.190   2.318   9.795 -0.1798  0.5339 -0.0991
  174SAPI   H7R19742   6.300   2.310   9.782 -0.1406  0.3320  0.3090
  174SAPI   H7S19743   6.165   2.411   9.851 -0.3685  1.6703 -2.0085
  174SAPI   C2819744   6.143   2.342   9.658  0.7482  0.9225 -0.0341
  174SAPI   H8R19745   6.054   2.279   9.640  2.7293 -2.1462  0.2451
  174SAPI   C2919746   6.186   2.426   9.569  0.0446 -0.3577  0.8586
  174SAPI   H9R19747   6.140   2.428   9.468 -0.7445 -2.4878  1.1134
  174SAPI  C21019748   6.308   2.515   9.582 -0.6954  0.0693  0.0490
  174SAPI  H10R19749   6.398   2.455   9.555 -0.7666 -0.2582  0.5226
  174SAPI  H10S19750   6.320   2.550   9.687  1.7976  0.3627 -0.2555
  174SAPI  C21119751   6.315   2.638   9.495  0.2723  0.0198 -0.0490
  174SAPI  H11R19752   6.321   2.730   9.555  0.1092 -0.5374  0.8480
  174SAPI  C21219753   6.312   2.646   9.357 -0.1201 -0.0170 -0.5668
  174SAPI  H12R19754   6.319   2.747   9.314 -1.2963  0.1851 -0.3096
  174SAPI  C21319755   6.321   2.533   9.263  0.5017 -0.5902 -0.5179
  174SAPI  H13R19756   6.287   2.442   9.316 -0.3181 -1.6384 -2.7505
  174SAPI  H13S19757   6.426   2.519   9.230  1.3795 -1.5153  2.4085
  174SAPI  C21419758   6.234   2.556   9.140  0.2160 -0.2217 -0.4725
  174SAPI  H14R19759   6.145   2.491   9.137  0.8463 -1.1818  0.6166
  174SAPI  C21519760   6.260   2.639   9.037  0.0360 -0.1616 -0.1526
  174SAPI  H15R19761   6.199   2.636   8.945 -2.1215  0.1265  1.1938
  174SAPI  C21619762   6.378   2.731   9.028  0.9086  0.8239  0.2344
  174SAPI  H16R19763   6.453   2.709   9.106  1.9420  0.9643 -0.7007
  174SAPI  H16S19764   6.353   2.836   9.054 -1.0694  0.0549  1.7346
  174SAPI  C21719765   6.459   2.736   8.898  0.5003 -0.5272 -0.3150
  174SAPI  H17R19766   6.543   2.809   8.891  0.3886 -0.5101 -1.8012
  174SAPI  H17S19767   6.392   2.770   8.816 -1.9966  1.8387  2.4749
  174SAPI  C21819768   6.523   2.612   8.858 -0.8664  0.1374  0.5999
  174SAPI  H18R19769   6.448   2.531   8.844 -0.8928  0.3973 -0.9465
  174SAPI  H18S19770   6.601   2.575   8.928  1.7643  0.2197 -2.1179
  174SAPI  C21919771   6.598   2.641   8.728  0.8829  0.4242 -0.1583
  174SAPI  H19R19772   6.692   2.700   8.737  1.3817 -0.2676 -0.6554
  174SAPI  H19S19773   6.526   2.704   8.673 -1.1809 -1.0774  0.6952
  174SAPI  C22019774   6.622   2.508   8.646 -0.0964  0.0783 -0.5891
  174SAPI  H20R19775   6.670   2.512   8.545  1.4432  0.9368  0.1421
  174SAPI  H20S19776   6.525   2.455   8.648  0.8597 -1.7759 -0.5271
  174SAPI  H20T19777   6.683   2.437   8.707 -1.6234 -1.4087 -0.7160
  174SAPI   C3319778   6.311   1.549   9.930  0.5651  0.1497  0.5627
  174SAPI   H3X19779   6.205   1.525   9.950  0.0622  1.9681  0.2985
  174SAPI   H3Y19780   6.370   1.457   9.949  0.4715  0.0901  0.5650
  174SAPI   C3419781   6.323   1.590   9.781 -0.2411 -0.0781  0.1971
  174SAPI   H4X19782   6.252   1.671   9.755  0.5906 -0.4047 -3.6759
  174SAPI   H4Y19783   6.282   1.497   9.736  1.1065 -0.7653  0.3346
  174SAPI   C3519784   6.468   1.623   9.749 -0.0271 -0.2692  0.6186
  174SAPI   H5X19785   6.530   1.537   9.783 -2.3027 -0.9595  3.3465
  174SAPI   H5Y19786   6.500   1.711   9.809  1.1260  1.7354 -2.6899
  174SAPI   C3619787   6.498   1.653   9.602 -0.2820  0.1029  0.9814
  174SAPI   H6X19788   6.598   1.699   9.586 -1.4161  1.9312 -1.4353
  174SAPI   H6Y19789   6.429   1.726   9.555  0.4795  0.2040 -0.0085
  174SAPI   C3719790   6.490   1.528   9.513  0.0870 -0.0156  0.5217
  174SAPI   H7X19791   6.403   1.463   9.538  1.1042 -1.2008  1.0996
  174SAPI   H7Y19792   6.578   1.466   9.540  0.0111 -0.2150  0.3126
  174SAPI   C3819793   6.500   1.567   9.366  0.1950  0.1488  0.7167
  174SAPI   H8X19794   6.515   1.472   9.310  0.2045  0.0570  0.8756
  174SAPI   H8Y19795   6.587   1.631   9.344  0.8111 -1.8112 -3.4744
  174SAPI   C3919796   6.369   1.632   9.315  0.3032 -0.0194 -0.1572
  174SAPI   H9X19797   6.347   1.722   9.377  1.7198 -0.1327  0.5522
  174SAPI   H9Y19798   6.279   1.568   9.327  1.4055 -1.5564  0.2246
  174SAPI  C31019799   6.386   1.681   9.173 -0.1868  0.3671  0.4879
  174SAPI  H10X19800   6.420   1.607   9.098 -0.4680  2.4620 -1.8215
  174SAPI  H10Y19801   6.472   1.749   9.192  0.9052 -0.2802 -1.7678
  174SAPI  C31119802   6.255   1.746   9.133 -0.4667 -0.3489  0.2957
  174SAPI  H11X19803   6.218   1.818   9.210  0.7522  2.5496 -1.6359
  174SAPI  H11Y19804   6.179   1.665   9.127 -2.5464  1.4641  0.8738
  174SAPI  C31219805   6.271   1.821   9.002  0.1711 -0.0251 -0.2530
  174SAPI  H12X19806   6.325   1.917   9.012 -2.4562  1.7176 -1.7693
  174SAPI  H12Y19807   6.167   1.847   8.975  0.5666  2.0040  0.0411
  174SAPI  C31319808   6.329   1.734   8.883 -0.3889  0.4576  0.0694
  174SAPI  H13X19809   6.265   1.647   8.856  0.0380 -0.7141  2.6289
  174SAPI  H13Y19810   6.415   1.673   8.916 -1.5909 -0.3287  1.9106
  174SAPI  C31419811   6.365   1.817   8.762 -0.3041 -0.0902  0.2648
  174SAPI  H14X19812   6.403   1.915   8.800 -0.7387 -0.2632  1.1571
  174SAPI  H14Y19813   6.271   1.859   8.721 -0.1363 -0.1402 -0.1817
  174SAPI  C31519814   6.450   1.740   8.657 -0.5222  0.7101  0.6652
  174SAPI  H15X19815   6.421   1.633   8.649  2.6112 -0.2673  1.0182
  174SAPI  H15Y19816   6.552   1.730   8.699  0.4561  1.3295 -1.4277
  174SAPI  C31619817   6.431   1.803   8.516  0.0543 -0.4727 -0.7958
  174SAPI  H16X19818   6.438   1.914   8.524 -0.8868 -0.5061  0.7701
  174SAPI  H16Y19819   6.325   1.787   8.485 -0.0363 -1.0083 -0.2130
  174SAPI  C31719820   6.523   1.764   8.408 -0.4496  0.2823 -0.7414
  174SAPI  H17X19821   6.532   1.655   8.391 -0.3007  0.1549  0.1251
  174SAPI  H17Y19822   6.624   1.795   8.445  0.4024 -1.9518 -1.0348
  174SAPI  C31819823   6.484   1.833   8.272  0.2971 -0.0878 -0.2410
  174SAPI  H18X19824   6.471   1.941   8.295 -0.4568 -0.2178 -0.0350
  174SAPI  H18Y19825   6.386   1.799   8.231  1.1927 -1.7132 -1.0985
  174SAPI  H18Z19826   6.566   1.835   8.197 -1.8559  0.6725 -2.7418
  175SAPI   C1219827   3.452   5.155   6.479  0.4224  0.8712 -0.7020
  175SAPI    H219828   3.518   5.180   6.565  0.1012  3.3145 -1.1098
  175SAPI    O219829   3.531   5.107   6.369  0.6041  0.3154  0.1628
  175SAPI   HO219830   3.621   5.091   6.396  0.9360 -1.4483 -1.7171
  175SAPI   C1319831   3.338   5.062   6.510 -0.1115  0.6302  0.2411
  175SAPI    H319832   3.284   5.099   6.599  1.4288 -0.6576  1.7744
  175SAPI    O319833   3.386   4.932   6.553  0.0990  0.1479 -0.5770
  175SAPI   HO319834   3.481   4.939   6.563  0.0361  1.2054 -0.5952
  175SAPI   C1419835   3.237   5.046   6.393 -0.5048  0.3485  0.5730
  175SAPI    H419836   3.289   5.008   6.302  1.7345  0.6892  1.6444
  175SAPI    O419837   3.143   4.950   6.426 -0.1578 -0.4804 -0.0520
  175SAPI   HO419838   3.193   4.868   6.425 -0.0041 -0.3823 -0.4155
  175SAPI   C1519839   3.180   5.184   6.355 -0.1941  0.1911 -0.5554
  175SAPI    H519840   3.135   5.218   6.451  2.5069  1.6035  0.3354
  175SAPI    O519841   3.078   5.170   6.259 -0.2573  0.1224 -0.3341
  175SAPI   HO519842   3.017   5.244   6.269 -0.6882 -0.2053 -0.4729
  175SAPI   C1619843   3.299   5.281   6.325  0.9166 -0.4819  0.5744
  175SAPI    H619844   3.359   5.228   6.249  1.4365 -1.5288  1.6910
  175SAPI    O619845   3.244   5.402   6.269 -0.3164 -0.0878 -0.3900
  175SAPI   HO619846   3.252   5.469   6.337  0.8126  0.5896 -1.1628
  175SAPI   C1119847   3.389   5.293   6.443 -0.4064  0.4683 -0.8839
  175SAPI    H119848   3.333   5.331   6.531  1.9490  0.4400  0.7348
  175SAPI     P19849   3.488   5.538   6.444  0.4041  0.6326  0.0890
  175SAPI   O1319850   3.350   5.580   6.423  0.2770 -0.7449 -0.3130
  175SAPI   O1419851   3.591   5.600   6.369 -0.0583  0.0342 -0.8155
  175SAPI   O1219852   3.502   5.378   6.404 -0.0844 -0.4103 -0.8289
  175SAPI   O1119853   3.527   5.548   6.598 -0.6919 -0.6446  0.1794
  175SAPI    C119854   3.618   5.449   6.656  1.2429 -0.4184  0.4015
  175SAPI    HA19855   3.578   5.348   6.633 -0.1815  0.4321 -1.1593
  175SAPI    HB19856   3.718   5.461   6.611  1.2059  2.0832  0.8422
  175SAPI    C219857   3.621   5.446   6.813 -0.2325 -0.5541  0.3906
  175SAPI    HS19858   3.664   5.347   6.838  1.5254 -0.4816 -1.9150
  175SAPI   O2119859   3.495   5.467   6.873 -0.2132 -0.1318  0.0250
  175SAPI   C2119860   3.396   5.378   6.854 -1.2215 -0.5837 -0.3392
  175SAPI   O2219861   3.404   5.280   6.782 -0.2552  0.0135  0.3803
  175SAPI   C2219862   3.272   5.407   6.938  0.2437  0.3765  0.1949
  175SAPI   H2R19863   3.263   5.518   6.950  0.1517  0.6857 -2.2177
  175SAPI   H2S19864   3.197   5.383   6.860 -0.4106  1.5642  0.4332
  175SAPI    C319865   3.730   5.554   6.858  0.3538 -0.2855 -1.2604
  175SAPI    HX19866   3.678   5.651   6.847  0.3984 -0.1050 -0.0146
  175SAPI    HY19867   3.813   5.541   6.786  0.5283 -0.7022 -0.9886
  175SAPI   O3119868   3.767   5.541   7.002 -0.3581  0.5719  0.2526
  175SAPI   C3119869   3.857   5.443   7.025  0.3895 -0.0256 -0.1062
  175SAPI   O3219870   3.930   5.392   6.944 -0.1169 -0.0418 -0.4267
  175SAPI   C3219871   3.839   5.393   7.164  0.5943  0.1117  0.2535
  175SAPI   H2X19872   3.808   5.287   7.149  1.9502 -0.0982 -1.2321
  175SAPI   H2Y19873   3.752   5.449   7.205  1.3413  1.0249  0.6217
  175SAPI   C2319874   3.251   5.318   7.064  0.2459 -0.3299 -0.4588
  175SAPI   H3R19875   3.346   5.310   7.120  0.3540 -0.5247 -0.6693
  175SAPI   H3S19876   3.224   5.214   7.035  0.3460 -0.3359 -0.5330
  175SAPI   C2419877   3.134   5.377   7.148  0.1720 -0.1881 -0.1210
  175SAPI   H4R19878   3.048   5.380   7.079  1.7808  0.3984 -2.1908
  175SAPI   H4S19879   3.164   5.476   7.189  1.2512 -1.0722  1.3461
  175SAPI   C2519880   3.102   5.273   7.252  0.0663  0.1005  0.3073
  175SAPI   H5R19881   3.048   5.189   7.206 -0.2258 -0.6421  1.9211
  175SAPI   C2619882   3.139   5.272   7.378 -0.1211  0.1968 -0.0307
  175SAPI   H6R19883   3.110   5.184   7.437 -1.9973  0.2550 -0.7992
  175SAPI   C2719884   3.221   5.384   7.443 -0.3210 -0.2251  0.6629
  175SAPI   H7R19885   3.174   5.408   7.540 -0.0296  1.9101  0.3428
  175SAPI   H7S19886   3.222   5.472   7.374  4.1079 -0.8117 -0.3492
  175SAPI   C2819887   3.367   5.358   7.473  0.3413 -0.6755  0.0013
  175SAPI   H8R19888   3.437   5.405   7.402  0.4410 -0.3840  0.2921
  175SAPI   C2919889   3.414   5.301   7.581 -0.4348 -0.6295 -0.0981
  175SAPI   H9R19890   3.523   5.287   7.587 -0.7365 -2.9271  1.5291
  175SAPI  C21019891   3.337   5.244   7.703 -0.0645  0.0715  0.1129
  175SAPI  H10R19892   3.395   5.160   7.747 -2.4208 -1.1497  1.0554
  175SAPI  H10S19893   3.242   5.203   7.661  0.8916 -2.1458 -0.0060
  175SAPI  C21119894   3.311   5.342   7.819  1.1228  0.7184  0.1440
  175SAPI  H11R19895   3.217   5.400   7.816  0.1351 -0.8357 -1.3971
  175SAPI  C21219896   3.402   5.353   7.921  0.0679  0.4512  0.1796
  175SAPI  H12R19897   3.390   5.432   7.997 -0.3856 -3.4061  4.5531
  175SAPI  C21319898   3.538   5.281   7.937  0.0331  0.6330 -0.4089
  175SAPI  H13R19899   3.614   5.349   7.981  0.8163  0.6178 -1.7192
  175SAPI  H13S19900   3.584   5.267   7.837 -0.9554  0.9044 -0.9158
  175SAPI  C21419901   3.527   5.142   8.005  0.3145 -0.1219 -0.2797
  175SAPI  H14R19902   3.515   5.061   7.932 -0.0353  0.0264 -0.3866
  175SAPI  C21519903   3.519   5.121   8.134  0.4236  0.0345  0.3216
  175SAPI  H15R19904   3.500   5.016   8.162 -0.5248 -0.3264 -1.4986
  175SAPI  C21619905   3.528   5.229   8.236  0.2276  0.1479  0.3703
  175SAPI  H16R19906   3.470   5.318   8.205  0.3945  0.1810  0.1549
  175SAPI  H16S19907   3.634   5.263   8.241  0.1381  0.7981 -1.4615
  175SAPI  C21719908   3.482   5.168   8.379  0.2339  0.4691 -0.3012
  175SAPI  H17R19909   3.506   5.244   8.456 -0.3124  0.0626  0.2904
  175SAPI  H17S19910   3.526   5.070   8.407 -1.2604  0.2950  1.6536
  175SAPI  C21819911   3.331   5.137   8.387  0.3798  0.8515 -0.5655
  175SAPI  H18R19912   3.306   5.093   8.486  0.9496  0.9166 -0.3900
  175SAPI  H18S19913   3.287   5.068   8.312  0.7326 -0.4197  0.3526
  175SAPI  C21919914   3.251   5.263   8.368  0.1311 -0.1475  0.4416
  175SAPI  H19R19915   3.279   5.295   8.265 -0.4724 -0.9886 -0.0011
  175SAPI  H19S19916   3.277   5.347   8.436  0.3972 -0.4966  0.7716
  175SAPI  C22019917   3.098   5.235   8.361  0.0135 -0.5708  0.3612
  175SAPI  H20R19918   3.065   5.195   8.459 -0.4032  1.5707  1.1542
  175SAPI  H20S19919   3.073   5.167   8.277  1.0775 -0.6403  0.0803
  175SAPI  H20T19920   3.042   5.329   8.340  0.9315 -0.3346 -1.2098
  175SAPI   C3319921   3.960   5.403   7.254 -0.5944  0.1121  0.3878
  175SAPI   H3X19922   3.985   5.511   7.253 -0.6895  0.1439 -1.4134
  175SAPI   H3Y19923   4.044   5.349   7.206  0.0142  2.9961 -2.1225
  175SAPI   C3419924   3.949   5.349   7.398 -0.1349 -0.3901 -0.7169
  175SAPI   H4X19925   4.038   5.391   7.451 -0.0222  0.4568 -1.5401
  175SAPI   H4Y19926   3.976   5.241   7.396 -0.5086 -0.4826 -0.6955
  175SAPI   C3519927   3.823   5.359   7.484 -0.3217 -0.2269 -0.0527
  175SAPI   H5X19928   3.840   5.321   7.587 -1.2655  0.2715  0.3041
  175SAPI   H5Y19929   3.747   5.298   7.429 -1.8360  0.4798  1.1859
  175SAPI   C3619930   3.772   5.500   7.504  0.1238  0.1849 -0.0454
  175SAPI   H6X19931   3.682   5.501   7.569 -0.4753  2.2473 -0.8303
  175SAPI   H6Y19932   3.742   5.529   7.401  3.2333  0.1313 -1.0646
  175SAPI   C3719933   3.870   5.609   7.551 -0.0534  0.8713 -0.3361
  175SAPI   H7X19934   3.807   5.697   7.575 -0.5024  0.0716  1.6373
  175SAPI   H7Y19935   3.934   5.621   7.462  0.9262 -1.1343  0.0487
  175SAPI   C3819936   3.952   5.573   7.676  0.2528  0.6524  0.0751
  175SAPI   H8X19937   4.041   5.639   7.682  1.1626 -0.4406 -0.8903
  175SAPI   H8Y19938   3.993   5.474   7.648  0.6534  1.3310 -1.9178
  175SAPI   C3919939   3.868   5.572   7.797  0.0494 -0.2455  0.2008
  175SAPI   H9X19940   3.808   5.479   7.804 -1.8550  0.9374  0.1484
  175SAPI   H9Y19941   3.798   5.658   7.793  0.8328  0.4327  0.8901
  175SAPI  C31019942   3.948   5.596   7.926  0.3030  0.1508 -0.4714
  175SAPI  H10X19943   4.007   5.690   7.913 -1.4817  1.3379 -0.2972
  175SAPI  H10Y19944   4.018   5.510   7.933  0.5501  0.3864  0.0340
  175SAPI  C31119945   3.860   5.594   8.050 -0.1679 -0.5914 -0.3394
  175SAPI  H11X19946   3.823   5.492   8.070 -0.0769 -0.4680  0.4770
  175SAPI  H11Y19947   3.773   5.655   8.019 -1.6850 -2.8524 -0.7103
  175SAPI  C31219948   3.938   5.636   8.172 -0.9779 -0.8869  0.2126
  175SAPI  H12X19949   3.977   5.740   8.167 -0.0810 -1.1903  0.6167
  175SAPI  H12Y19950   4.021   5.562   8.180  0.5915  0.6986 -0.8084
  175SAPI  C31319951   3.861   5.616   8.304 -0.1975 -0.1374  0.8105
  175SAPI  H13X19952   3.928   5.636   8.390  0.8850 -1.6149  0.3519
  175SAPI  H13Y19953   3.830   5.509   8.306 -2.6339  0.4814  0.0624
  175SAPI  C31419954   3.730   5.701   8.313  0.4444  0.0541 -0.4226
  175SAPI  H14X19955   3.670   5.688   8.221  2.7720  0.3479 -2.0741
  175SAPI  H14Y19956   3.756   5.809   8.318  1.0000  0.0588 -2.5069
  175SAPI  C31519957   3.662   5.670   8.448 -0.3608 -0.7565 -0.5062
  175SAPI  H15X19958   3.598   5.759   8.466  1.9397  0.8341  0.2887
  175SAPI  H15Y19959   3.741   5.674   8.526 -0.2732  0.4776 -0.6346
  175SAPI  C31619960   3.578   5.544   8.456  0.4794 -0.8445 -0.4022
  175SAPI  H16X19961   3.643   5.460   8.421  2.2867  0.4569 -0.3262
  175SAPI  H16Y19962   3.489   5.551   8.391  0.4869  1.4729 -0.2202
  175SAPI  C31719963   3.528   5.508   8.599  0.0174  0.3360 -0.3035
  175SAPI  H17X19964   3.607   5.540   8.669  2.4449 -1.8266 -1.8956
  175SAPI  H17Y19965   3.518   5.398   8.599  1.3571  0.1841  1.0884
  175SAPI  C31819966   3.394   5.571   8.638  0.1229 -0.3360  0.3517
  175SAPI  H18X19967   3.382   5.672   8.592 -0.7027 -0.7221 -0.3121
  175SAPI  H18Y19968   3.380   5.580   8.748 -1.6416  1.1651  0.0597
  175SAPI  H18Z19969   3.303   5.510   8.616  0.9056 -0.9350 -1.3929
  176SAPI   C1219970   6.614   4.803   6.469 -0.0112 -0.4617  0.5078
  176SAPI    H219971   6.636   4.809   6.578 -3.4705 -3.0662  1.5460
  176SAPI    O219972   6.737   4.807   6.392  0.3027 -0.5649 -0.2207
  176SAPI   HO219973   6.807   4.836   6.451  0.8753 -0.4936 -0.9120
  176SAPI   C1319974   6.541   4.674   6.446  0.4427 -0.1882 -0.4533
  176SAPI    H319975   6.449   4.680   6.508  0.5345 -1.8923 -0.0997
  176SAPI    O319976   6.612   4.562   6.494  0.5423 -0.2552 -0.1364
  176SAPI   HO319977   6.547   4.496   6.520 -0.0096  0.5814  0.6802
  176SAPI   C1419978   6.500   4.663   6.298  0.1111  0.2180 -0.4261
  176SAPI    H419979   6.590   4.671   6.232 -0.3361 -0.9504 -1.2084
  176SAPI    O419980   6.434   4.537   6.289 -0.0214  0.9255 -0.3253
  176SAPI   HO419981   6.468   4.481   6.218 -1.8171 -2.4052  1.1769
  176SAPI   C1519982   6.409   4.776   6.258  0.2082  0.2935 -0.3491
  176SAPI    H519983   6.317   4.765   6.320  0.0057 -1.8931 -0.9537
  176SAPI    O519984   6.375   4.770   6.119  0.1571 -0.1703 -0.4662
  176SAPI   HO519985   6.290   4.812   6.105 -0.0279 -0.4339 -0.1571
  176SAPI   C1619986   6.470   4.921   6.291  0.2884  0.4853 -0.0876
  176SAPI    H619987   6.553   4.943   6.221  0.3171 -1.2522 -0.6526
  176SAPI    O619988   6.375   5.021   6.267  0.3323 -0.6529 -0.1370
  176SAPI   HO619989   6.309   5.033   6.335 -0.9863 -2.1160 -1.0965
  176SAPI   C1119990   6.522   4.919   6.437  0.6780 -0.9135  0.5507
  176SAPI    H119991   6.438   4.909   6.508  1.6644 -0.7907  1.7799
  176SAPI     P19992   6.550   5.154   6.578  0.1863  0.1615 -0.2437
  176SAPI   O1319993   6.407   5.155   6.587 -0.0980 -0.4067  0.6647
  176SAPI   O1419994   6.620   5.280   6.538 -0.1722 -0.3995 -0.7425
  176SAPI   O1219995   6.593   5.042   6.462  0.2416 -0.5701  0.1832
  176SAPI   O1119996   6.612   5.085   6.704 -0.3615 -0.3900  0.2982
  176SAPI    C119997   6.751   5.070   6.706  0.0421  0.3985 -1.0963
  176SAPI    HA19998   6.787   5.020   6.613 -2.2426 -3.0712 -0.2927
  176SAPI    HB19999   6.808   5.165   6.721  2.6080 -1.2235  0.1197
  176SAPI    C220000   6.793   4.991   6.838 -0.9170  0.0914  0.3045
  176SAPI    HS20001   6.904   4.994   6.841 -0.9313 -0.1926  1.8516
  176SAPI   O2120002   6.753   4.856   6.838  0.2882  0.1672 -0.6921
  176SAPI   C2120003   6.845   4.770   6.802 -0.0671 -1.0143  0.0732
  176SAPI   O2220004   6.961   4.797   6.763  0.1814 -0.4097  0.1975
  176SAPI   C2220005   6.791   4.630   6.815  0.5829 -0.2384  0.0474
  176SAPI   H2R20006   6.699   4.618   6.877 -0.0968 -2.1104 -1.2423
  176SAPI   H2S20007   6.769   4.588   6.714  0.3241  1.6170 -0.6991
  176SAPI    C320008   6.738   5.050   6.966  0.5214  0.3857  0.2318
  176SAPI    HX20009   6.628   5.063   6.967  0.7468  2.6417  0.1066
  176SAPI    HY20010   6.778   5.153   6.975  0.9144  0.1623  1.0661
  176SAPI   O3120011   6.773   4.974   7.080 -0.4516 -0.0335 -0.3729
  176SAPI   C3120012   6.902   4.976   7.125 -0.1824 -0.7830  0.2481
  176SAPI   O3220013   6.992   5.044   7.072 -0.4964  0.3938 -0.2333
  176SAPI   C3220014   6.922   4.894   7.256  0.3271 -0.3525  0.0448
  176SAPI   H2X20015   7.015   4.835   7.242 -0.9771 -3.0130  1.7702
  176SAPI   H2Y20016   6.840   4.819   7.257  0.1125 -0.1317 -0.4579
  176SAPI   C2320017   6.893   4.536   6.870  0.3629 -0.7922  0.1521
  176SAPI   H3R20018   6.993   4.549   6.823 -0.0200  2.1939 -0.0113
  176SAPI   H3S20019   6.851   4.434   6.860 -0.3072 -0.3848 -1.4089
  176SAPI   C2420020   6.909   4.548   7.018 -0.5410 -0.2359 -0.1664
  176SAPI   H4R20021   6.950   4.644   7.056 -2.5885 -0.0438  1.6857
  176SAPI   H4S20022   6.990   4.475   7.040 -0.2116  0.0289 -0.4754
  176SAPI   C2520023   6.790   4.528   7.114 -0.5249 -0.2581  0.0442
  176SAPI   H5R20024   6.700   4.586   7.089 -0.1012 -0.0589 -1.0841
  176SAPI   C2620025   6.780   4.426   7.207  0.3682  0.0328 -0.1852
  176SAPI   H6R20026   6.685   4.408   7.260  0.8265 -0.1847  0.5816
  176SAPI   C2720027   6.875   4.310   7.231  0.0167  0.6513 -0.4314
  176SAPI   H7R20028   6.973   4.328   7.182 -1.6923  2.3871 -3.5557
  176SAPI   H7S20029   6.839   4.223   7.172  1.8941 -1.3928  1.2924
  176SAPI   C2820030   6.887   4.271   7.373  0.1152 -0.3606 -0.4717
  176SAPI   H8R20031   6.846   4.170   7.389 -0.7658 -0.0531 -0.7141
  176SAPI   C2920032   6.935   4.341   7.476  0.7592  0.0667 -1.1002
  176SAPI   H9R20033   6.946   4.287   7.571 -0.5448  0.9591 -0.4208
  176SAPI  C21020034   6.988   4.483   7.482  0.0082  0.4075  0.0711
  176SAPI  H10R20035   6.995   4.516   7.376 -1.3270 -1.6554 -0.7044
  176SAPI  H10S20036   7.087   4.494   7.531 -0.3884  2.1645  0.5670
  176SAPI  C21120037   6.880   4.558   7.552 -0.5867  0.1222 -0.6287
  176SAPI  H11R20038   6.787   4.581   7.498 -1.0902  2.6280  1.1526
  176SAPI  C21220039   6.897   4.606   7.678  1.0329  0.1639 -0.0632
  176SAPI  H12R20040   6.825   4.677   7.721  1.1196  0.7483 -0.8631
  176SAPI  C21320041   7.012   4.581   7.759 -0.5278  0.2510 -0.0990
  176SAPI  H13R20042   7.108   4.595   7.704 -0.5056 -1.3973 -0.5327
  176SAPI  H13S20043   7.019   4.473   7.782  1.8430  0.6019  1.2282
  176SAPI  C21420044   7.018   4.640   7.896 -0.0203 -0.0345  0.0173
  176SAPI  H14R20045   7.065   4.740   7.904 -0.1799  0.3378 -2.8883
  176SAPI  C21520046   6.965   4.584   8.008  0.6851  0.4534  0.1546
  176SAPI  H15R20047   6.971   4.635   8.105 -2.9530  0.6675  0.3902
  176SAPI  C21620048   6.881   4.464   8.020  0.1039  0.1050  0.4278
  176SAPI  H16R20049   6.907   4.393   8.101  0.0754 -2.8147 -1.9780
  176SAPI  H16S20050   6.899   4.398   7.932  1.3385  2.1815 -0.9777
  176SAPI  C21720051   6.731   4.506   8.035  0.2845 -0.7167 -0.4829
  176SAPI  H17R20052   6.675   4.419   8.076 -2.4794  0.0526 -2.3805
  176SAPI  H17S20053   6.700   4.529   7.932  0.7143 -2.3620 -1.0136
  176SAPI  C21820054   6.705   4.622   8.132 -0.3525 -0.1845 -0.2399
  176SAPI  H18R20055   6.607   4.663   8.100  0.1341 -0.7403 -2.5706
  176SAPI  H18S20056   6.775   4.705   8.107  1.4719 -0.7332  2.6054
  176SAPI  C21920057   6.707   4.598   8.282 -0.6389 -0.5169 -0.4418
  176SAPI  H19R20058   6.807   4.562   8.314 -0.8483  0.9655  2.2090
  176SAPI  H19S20059   6.625   4.528   8.310 -2.5012  1.5106 -0.5686
  176SAPI  C22020060   6.689   4.720   8.370 -0.1388  0.1073 -0.2885
  176SAPI  H20R20061   6.581   4.728   8.396  0.5165  1.7258  2.2498
  176SAPI  H20S20062   6.724   4.818   8.332 -1.0276  0.9047  0.8518
  176SAPI  H20T20063   6.731   4.701   8.470 -0.4953  2.0536  0.2821
  176SAPI   C3320064   6.925   4.979   7.386 -0.1428  0.1770 -0.4517
  176SAPI   H3X20065   6.822   4.991   7.426 -1.3276 -0.2597 -3.1642
  176SAPI   H3Y20066   6.961   5.083   7.373  1.5117 -0.0872  1.5287
  176SAPI   C3420067   7.019   4.914   7.491  0.2753 -0.3613  0.4564
  176SAPI   H4X20068   6.992   4.808   7.507 -2.0613  0.1084 -0.0537
  176SAPI   H4Y20069   6.993   4.964   7.587 -2.9219  0.1543 -0.5617
  176SAPI   C3520070   7.166   4.943   7.461  0.0078 -0.5544  0.8419
  176SAPI   H5X20071   7.201   5.048   7.460 -1.2707  0.0483 -3.6430
  176SAPI   H5Y20072   7.178   4.904   7.358 -1.9228 -1.9706  1.0977
  176SAPI   C3620073   7.253   4.849   7.548  0.5312 -0.0203  0.2387
  176SAPI   H6X20074   7.202   4.750   7.544 -0.6215  0.5690  0.0878
  176SAPI   H6Y20075   7.240   4.887   7.651 -3.2377 -0.1536 -0.0482
  176SAPI   C3720076   7.405   4.823   7.519  0.4861 -0.4149  0.6572
  176SAPI   H7X20077   7.463   4.913   7.548 -0.5494  0.2694  0.6356
  176SAPI   H7Y20078   7.413   4.807   7.409  0.2959  0.0287  0.5792
  176SAPI   C3820079   7.465   4.704   7.593 -0.0611  0.4008 -0.3488
  176SAPI   H8X20080   7.575   4.706   7.578  0.1454 -4.2675 -0.9931
  176SAPI   H8Y20081   7.434   4.605   7.551  0.8700  0.5976 -1.5447
  176SAPI   C3920082   7.439   4.699   7.744 -0.0607 -0.4015 -0.1059
  176SAPI   H9X20083   7.348   4.643   7.771  0.4093 -0.2170  1.9915
  176SAPI   H9Y20084   7.421   4.805   7.772 -0.9007 -0.3120 -0.9206
  176SAPI  C31020085   7.558   4.650   7.818 -0.0735 -0.3097 -0.2436
  176SAPI  H10X20086   7.636   4.723   7.790 -1.4026  0.7601 -1.3094
  176SAPI  H10Y20087   7.600   4.553   7.783 -1.0922 -0.6072 -0.6879
  176SAPI  C31120088   7.549   4.656   7.970  0.1121 -0.8564  0.3682
  176SAPI  H11X20089   7.518   4.754   8.013  1.2686 -1.8968  3.9166
  176SAPI  H11Y20090   7.650   4.649   8.014  0.6853 -0.6677 -0.8810
  176SAPI  C31220091   7.459   4.545   8.041  0.2944 -0.7275  0.2535
  176SAPI  H12X20092   7.365   4.526   7.985  0.7019 -0.1394 -0.6616
  176SAPI  H12Y20093   7.438   4.592   8.140 -0.9905 -0.3544 -0.1782
  176SAPI  C31320094   7.513   4.403   8.052 -0.7101  0.4427  0.0817
  176SAPI  H13X20095   7.622   4.408   8.077 -0.7021 -1.1715  0.4657
  176SAPI  H13Y20096   7.505   4.346   7.957 -3.2523  0.6988  0.0803
  176SAPI  C31420097   7.456   4.330   8.179  0.1595 -0.0496  0.1416
  176SAPI  H14X20098   7.484   4.392   8.267 -1.2944  0.6922  0.1103
  176SAPI  H14Y20099   7.502   4.229   8.178 -0.0195 -0.2523  3.5061
  176SAPI  C31520100   7.303   4.311   8.178 -0.5614 -0.5501 -0.2706
  176SAPI  H15X20101   7.280   4.266   8.079  1.4832 -4.1995  0.7272
  176SAPI  H15Y20102   7.250   4.408   8.188  1.5357  0.7679 -1.2292
  176SAPI  C31620103   7.265   4.211   8.286  0.4119  0.0864 -0.4357
  176SAPI  H16X20104   7.298   4.246   8.386  2.2468 -0.2547 -0.8891
  176SAPI  H16Y20105   7.323   4.117   8.276  0.7478  0.4517 -2.2662
  176SAPI  C31720106   7.115   4.183   8.301 -0.5336  0.3565 -0.2779
  176SAPI  H17X20107   7.083   4.149   8.200 -2.3700  2.7074 -0.5791
  176SAPI  H17Y20108   7.075   4.282   8.332  1.0619  1.1228 -0.5562
  176SAPI  C31820109   7.061   4.081   8.399 -0.1352 -0.7263 -0.9206
  176SAPI  H18X20110   6.953   4.090   8.423  0.2004 -0.1885  0.4826
  176SAPI  H18Y20111   7.111   4.092   8.497  0.7418 -0.6487 -1.3741
  176SAPI  H18Z20112   7.095   3.980   8.366 -0.4967 -1.0772 -0.2427
  177SLPC     N20113   0.697   1.454  11.230 -0.4577  0.0833 -0.2880
  177SLPC   C1320114   0.851   1.430  11.212  0.5295  0.2962  0.0905
  177SLPC  H13A20115   0.904   1.499  11.149  2.7965 -1.2835  0.1407
  177SLPC  H13B20116   0.906   1.430  11.305  0.7292 -0.3064 -0.0216
  177SLPC  H13C20117   0.865   1.329  11.177  0.6228  0.1337  0.5843
  177SLPC   C1420118   0.671   1.599  11.255 -0.5299  0.0563 -0.7204
  177SLPC  H14A20119   0.569   1.629  11.274  0.2621  1.9557  0.8380
  177SLPC  H14B20120   0.726   1.637  11.340 -1.4881 -1.0447  0.4277
  177SLPC  H14C20121   0.695   1.657  11.166 -1.2940  1.5846  0.0248
  177SLPC   C1520122   0.651   1.365  11.345  0.2111  0.1775 -0.5127
  177SLPC  H15A20123   0.551   1.386  11.380 -0.0307  0.8653 -1.5642
  177SLPC  H15B20124   0.661   1.259  11.324  1.9442  0.1426  0.3055
  177SLPC  H15C20125   0.714   1.375  11.432  0.5232 -0.7164 -0.6242
  177SLPC   C1220126   0.627   1.419  11.106  0.0368  0.1186 -0.1199
  177SLPC  H12A20127   0.524   1.391  11.120  0.3459 -0.5554  0.8779
  177SLPC  H12B20128   0.665   1.321  11.081  0.9239  0.5970 -0.7050
  177SLPC   C1120129   0.662   1.508  10.987  0.1899  0.6189  0.2833
  177SLPC  H11A20130   0.664   1.450  10.892 -0.2213 -0.0899  0.7016
  177SLPC  H11B20131   0.771   1.530  10.991  0.3869  0.0691 -1.1561
  177SLPC     P20132   0.442   1.649  10.939 -0.2325 -0.2856  0.0948
  177SLPC   O1320133   0.368   1.525  10.968  0.0727 -0.1455 -0.1230
  177SLPC   O1420134   0.390   1.776  10.993 -0.0026 -0.1343 -0.1635
  177SLPC   O1220135   0.594   1.633  10.987 -0.0459  0.1267  0.2421
  177SLPC   O1120136   0.450   1.668  10.783  0.3594 -0.3177 -0.2609
  177SLPC    C120137   0.559   1.682  10.696  0.3412 -0.0396  0.1994
  177SLPC    HA20138   0.659   1.675  10.744  0.7250  1.1741 -0.3886
  177SLPC    HB20139   0.548   1.604  10.618 -1.4372  1.8700 -1.5586
  177SLPC    C220140   0.552   1.806  10.605 -0.6198 -0.4347  0.4050
  177SLPC    HS20141   0.569   1.893  10.672 -2.8567  0.2486  0.1602
  177SLPC   O2120142   0.432   1.809  10.529  0.4182 -0.6083 -0.3964
  177SLPC   C2120143   0.385   1.926  10.498 -0.2016 -0.7496  0.4933
  177SLPC   O2220144   0.436   2.036  10.527  0.1225 -0.2085  0.4072
  177SLPC   C2220145   0.256   1.906  10.425 -0.3189  0.3991  0.0219
  177SLPC   H2R20146   0.241   1.797  10.412 -0.6433  0.2369  1.5298
  177SLPC   H2S20147   0.170   1.936  10.490 -1.8986 -0.8780 -1.3821
  177SLPC    C320148   0.681   1.804  10.513 -0.1636 -0.5432  0.8714
  177SLPC    HX20149   0.683   1.701  10.471  0.8689 -0.0897 -0.2781
  177SLPC    HY20150   0.779   1.816  10.565  0.7229 -2.9427 -0.1111
  177SLPC   O3120151   0.676   1.905  10.402  0.1570  0.0656  0.2667
  177SLPC   C3120152   0.740   2.023  10.423 -0.5507 -0.1312 -0.8135
  177SLPC   O3220153   0.800   2.041  10.529  0.1830 -0.0333  0.1886
  177SLPC   C3220154   0.737   2.106  10.296 -0.5869 -0.2093  0.7213
  177SLPC   H2X20155   0.658   2.184  10.300 -1.3187 -0.9094  0.3108
  177SLPC   H2Y20156   0.715   2.036  10.212  2.2169 -0.3782  0.0233
  177SLPC   C2320157   0.258   1.980  10.291  0.1263  0.0208  1.5239
  177SLPC   H3R20158   0.259   2.088  10.320  1.3958  0.1749  0.9486
  177SLPC   H3S20159   0.158   1.973  10.241  1.5115  2.3516 -2.0292
  177SLPC   C2420160   0.384   1.949  10.203  0.2207  0.7639 -0.4544
  177SLPC   H4R20161   0.385   1.839  10.194 -2.8044  0.4444  1.5006
  177SLPC   H4S20162   0.472   1.986  10.260  0.0005 -1.4262  1.4250
  177SLPC   C2520163   0.385   2.011  10.062  0.6569  0.3295 -0.2929
  177SLPC   H5R20164   0.351   2.116  10.070 -1.1592 -0.2461  0.0749
  177SLPC   H5S20165   0.302   1.952  10.018 -0.1957 -0.0017  1.6432
  177SLPC   C2620166   0.503   1.994   9.967  0.4124 -0.0422  1.0384
  177SLPC   H6R20167   0.521   1.887   9.942  0.3217 -0.6145  3.1992
  177SLPC   H6S20168   0.596   2.025  10.018  0.7111 -1.0483  1.1383
  177SLPC   C2720169   0.493   2.093   9.850 -0.4807  0.5751  0.5394
  177SLPC   H7R20170   0.433   2.179   9.885  2.1703  1.3795  3.5755
  177SLPC   H7S20171   0.437   2.042   9.769  1.3706 -2.0529  0.7649
  177SLPC   C2820172   0.626   2.158   9.801  0.5075 -0.3511  0.1850
  177SLPC   H8R20173   0.680   2.192   9.892  0.3292 -3.6082  1.6609
  177SLPC   H8S20174   0.603   2.242   9.733  0.7671 -0.2297  0.2469
  177SLPC   C2920175   0.707   2.055   9.735  0.5521 -0.0288  0.4888
  177SLPC   H9R20176   0.721   1.961   9.789  0.3279  0.4594  1.4159
  177SLPC  C21020177   0.780   2.073   9.621  1.1893 -0.2075  1.0691
  177SLPC  H10R20178   0.825   1.986   9.571 -1.9773 -0.9745 -0.6785
  177SLPC  C21120179   0.790   2.203   9.540  0.4500  0.0944  0.2473
  177SLPC  H11R20180   0.693   2.217   9.488  0.3930 -0.3901  0.2202
  177SLPC  H11S20181   0.809   2.286   9.612 -1.7051 -0.9080  2.1193
  177SLPC  C21220182   0.886   2.212   9.423  0.5463 -0.0641 -0.1360
  177SLPC  H12R20183   0.975   2.149   9.410  0.9148  0.6453 -1.1901
  177SLPC  C21320184   0.878   2.305   9.327  0.2131 -0.0647 -0.0302
  177SLPC  H13R20185   0.951   2.319   9.246 -2.4777  1.0681 -2.4322
  177SLPC  C21420186   0.770   2.409   9.315 -0.6408 -0.1150  0.4553
  177SLPC  H14R20187   0.810   2.497   9.261 -1.0948 -1.3230 -1.9745
  177SLPC  H14S20188   0.750   2.447   9.418  2.2316 -0.8448  1.3601
  177SLPC  C21520189   0.647   2.350   9.246 -0.0899  0.4345 -0.0112
  177SLPC  H15R20190   0.570   2.429   9.233 -1.3443 -0.7628 -0.0472
  177SLPC  H15S20191   0.588   2.282   9.310 -0.9681 -1.0177 -2.2530
  177SLPC  C21620192   0.659   2.304   9.091 -0.0136 -0.3431  0.3008
  177SLPC  H16R20193   0.557   2.284   9.053 -0.3140  2.4539 -0.5727
  177SLPC  H16S20194   0.719   2.210   9.087 -0.0954 -0.3498 -1.9044
  177SLPC  C21720195   0.722   2.409   9.005  0.8414  0.3545  0.4283
  177SLPC  H17R20196   0.763   2.367   8.910  2.1082  3.2842 -0.4330
  177SLPC  H17S20197   0.808   2.452   9.059  1.8391 -2.6299  1.4246
  177SLPC  C21820198   0.615   2.519   8.972 -0.5563  0.2721  0.9676
  177SLPC  H18R20199   0.563   2.575   9.053 -0.4398  0.0840  1.1741
  177SLPC  H18S20200   0.546   2.465   8.904  1.1675 -0.2667 -0.4545
  177SLPC  H18T20201   0.669   2.595   8.912 -0.6037 -0.0236  0.5451
  177SLPC   C3320202   0.878   2.174  10.271  0.8826 -0.3822 -0.1374
  177SLPC   H3X20203   0.961   2.100  10.267  0.6020 -0.6395 -2.2508
  177SLPC   H3Y20204   0.897   2.255  10.345 -0.7923  0.8374 -0.9861
  177SLPC   C3420205   0.895   2.241  10.131 -0.3008  0.5200  0.0387
  177SLPC   H4X20206   0.815   2.312  10.102 -0.8403 -0.5015 -1.0573
  177SLPC   H4Y20207   0.886   2.155  10.061 -0.9650  0.0013  0.7462
  177SLPC   C3520208   1.034   2.293  10.115 -0.6674 -0.3241  0.4101
  177SLPC   H5X20209   1.101   2.209  10.143 -1.1927 -0.3317  1.7344
  177SLPC   H5Y20210   1.044   2.375  10.189 -3.4567  2.2478 -1.8060
  177SLPC   C3620211   1.055   2.345   9.971  0.0845  0.3072 -0.5717
  177SLPC   H6X20212   1.136   2.421   9.973  2.2024 -1.8116  2.0040
  177SLPC   H6Y20213   0.958   2.388   9.937  0.6093  0.4414 -1.9615
  177SLPC   C3720214   1.075   2.231   9.872 -0.3466  0.3784  0.0658
  177SLPC   H7X20215   0.977   2.188   9.844  0.7619 -1.0542 -1.8504
  177SLPC   H7Y20216   1.146   2.155   9.912  0.3650  0.0480 -1.7281
  177SLPC   C3820217   1.133   2.283   9.733 -0.1050  0.0739 -0.3779
  177SLPC   H8X20218   1.218   2.350   9.756 -1.1977  0.9439  1.3912
  177SLPC   H8Y20219   1.064   2.354   9.683  0.8687  0.2982 -1.4370
  177SLPC   C3920220   1.178   2.173   9.636  0.8744 -0.5179 -0.3609
  177SLPC   H9X20221   1.088   2.109   9.625  0.8393 -0.0879 -3.2299
  177SLPC   H9Y20222   1.261   2.108   9.671 -1.5064 -3.4221  0.3397
  177SLPC  C31020223   1.234   2.228   9.500 -0.4036  0.0915 -0.0266
  177SLPC  H10X20224   1.338   2.264   9.516 -0.1976  0.5033 -1.9951
  177SLPC  H10Y20225   1.168   2.310   9.463 -1.2230  0.7928  2.7190
  177SLPC  C31120226   1.259   2.113   9.399 -0.1132  0.0709  0.5238
  177SLPC  H11X20227   1.168   2.049   9.398  0.1889 -0.3608 -0.0506
  177SLPC  H11Y20228   1.345   2.048   9.426  0.5686  1.0716  0.8036
  177SLPC  C31220229   1.279   2.167   9.254  0.5290 -0.5059 -0.2119
  177SLPC  H12X20230   1.377   2.218   9.242  0.3322 -0.3616 -1.2788
  177SLPC  H12Y20231   1.197   2.240   9.237 -1.1362 -2.1261  0.4617
  177SLPC  C31320232   1.265   2.056   9.147  0.1740  0.3064 -0.3815
  177SLPC  H13X20233   1.184   1.984   9.170  0.4364 -0.1307 -0.7966
  177SLPC  H13Y20234   1.350   1.984   9.149 -1.6022 -1.9153  1.0613
  177SLPC  C31420235   1.242   2.110   9.005  0.4180 -0.8307  0.5413
  177SLPC  H14X20236   1.331   2.170   8.975 -0.8091  1.4239  1.1087
  177SLPC  H14Y20237   1.150   2.172   9.013  0.9623  0.0372  0.2804
  177SLPC  C31520238   1.231   2.009   8.893 -0.0191  0.2344 -0.4815
  177SLPC  H15X20239   1.159   1.934   8.932  0.4550  0.3539  0.6578
  177SLPC  H15Y20240   1.333   1.966   8.889 -0.2065 -0.1283 -2.6675
  177SLPC  C31620241   1.178   2.060   8.757  0.0761  0.3710  0.4439
  177SLPC  H16X20242   1.262   2.106   8.700 -0.7342 -0.9091 -1.9081
  177SLPC  H16Y20243   1.101   2.139   8.768 -0.3336 -0.3597  4.0896
  177SLPC  C31720244   1.112   1.942   8.681 -0.8284  0.2329 -0.8102
  177SLPC  H17X20245   1.057   1.987   8.595  0.2478  1.5668 -0.8468
  177SLPC  H17Y20246   1.049   1.890   8.756 -1.1550 -0.3279 -1.4667
  177SLPC  C31820247   1.206   1.837   8.622  0.8604  0.8007  0.1074
  177SLPC  H18X20248   1.148   1.763   8.562 -0.2558  1.3999  0.4302
  177SLPC  H18Y20249   1.267   1.799   8.706  0.2765  0.1840  0.2588
  177SLPC  H18Z20250   1.276   1.887   8.551 -0.9300  1.0236 -1.5888
  178SLPC     N20251   3.811   3.883  10.955  0.1302 -0.0373  0.4622
  178SLPC   C1320252   3.891   4.007  10.992  0.1238  0.6677 -0.3540
  178SLPC  H13A20253   3.827   4.090  11.018 -0.2598  0.4379 -0.5526
  178SLPC  H13B20254   3.961   3.981  11.071 -0.4524 -1.3553 -0.4484
  178SLPC  H13C20255   3.952   4.045  10.912  1.2312  0.1282  0.2109
  178SLPC   C1420256   3.741   3.841  11.083 -0.7073 -0.0691  0.4019
  178SLPC  H14A20257   3.668   3.762  11.076  0.4189 -1.1615  0.5215
  178SLPC  H14B20258   3.816   3.817  11.157  0.1637  0.3766 -0.3091
  178SLPC  H14C20259   3.686   3.931  11.106 -3.2412 -1.5738  0.5732
  178SLPC   C1520260   3.902   3.769  10.919 -0.2838  0.3487  0.8437
  178SLPC  H15A20261   3.978   3.756  10.994  0.5771 -1.9473 -0.3300
  178SLPC  H15B20262   3.850   3.678  10.893  1.1083  0.0228 -1.0549
  178SLPC  H15C20263   3.969   3.797  10.838 -0.1572  0.9855  1.1601
  178SLPC   C1220264   3.703   3.913  10.848 -0.5236  0.3926  0.0659
  178SLPC  H12A20265   3.630   3.834  10.841  1.3175 -1.3174 -0.5766
  178SLPC  H12B20266   3.758   3.907  10.755  1.7237  1.7004  1.2210
  178SLPC   C1120267   3.623   4.051  10.848 -0.0366 -0.0114  0.1448
  178SLPC  H11A20268   3.550   4.056  10.764 -0.8168  0.4513  0.8362
  178SLPC  H11B20269   3.694   4.131  10.816  0.2014 -0.4277 -0.3763
  178SLPC     P20270   3.560   4.194  11.063 -0.3574  0.6551 -0.1005
  178SLPC   O1320271   3.470   4.169  11.175  0.1458 -0.0666 -0.0939
  178SLPC   O1420272   3.700   4.217  11.108  0.2744  0.1757 -0.1787
  178SLPC   O1220273   3.559   4.072  10.968  0.6437  0.0845 -0.5088
  178SLPC   O1120274   3.509   4.328  10.997 -0.3989 -0.3119  0.1837
  178SLPC    C120275   3.387   4.327  10.921  0.2127  0.8702 -0.3624
  178SLPC    HA20276   3.341   4.226  10.910 -0.5256  1.1505  0.0619
  178SLPC    HB20277   3.309   4.385  10.974  0.8974  0.7124  0.8513
  178SLPC    C220278   3.412   4.393  10.777 -0.6536 -0.4579  0.3511
  178SLPC    HS20279   3.310   4.418  10.741 -0.8126  0.7640  1.5323
  178SLPC   O2120280   3.474   4.293  10.697  0.5365 -0.1640 -0.4340
  178SLPC   C2120281   3.440   4.297  10.572  0.1873 -0.1986 -0.5661
  178SLPC   O2220282   3.354   4.371  10.534 -0.0920 -0.3414 -0.6536
  178SLPC   C2220283   3.497   4.190  10.488 -0.4024  0.2015 -0.3655
  178SLPC   H2R20284   3.607   4.201  10.482 -0.3823  0.4802  0.4179
  178SLPC   H2S20285   3.483   4.092  10.539 -0.4010 -1.2886 -3.0262
  178SLPC    C320286   3.487   4.527  10.781 -0.1089 -0.3884  0.3795
  178SLPC    HX20287   3.566   4.515  10.859  0.2101  0.9798  0.2909
  178SLPC    HY20288   3.412   4.603  10.812  3.0585  3.3996 -0.3464
  178SLPC   O3120289   3.544   4.564  10.646  0.3484  0.2445 -0.3067
  178SLPC   C3120290   3.554   4.698  10.630  0.2780  0.7687  0.0538
  178SLPC   O3220291   3.520   4.775  10.715  0.4290 -0.2281 -0.4840
  178SLPC   C3220292   3.622   4.742  10.499  0.1709 -0.2760  0.1947
  178SLPC   H2X20293   3.694   4.665  10.464  2.2200  1.5998  0.0280
  178SLPC   H2Y20294   3.676   4.834  10.530  0.1658 -0.0955 -0.3161
  178SLPC   C2320295   3.450   4.176  10.341  0.2958 -0.3874 -0.4194
  178SLPC   H3R20296   3.341   4.198  10.345  0.5548  0.7899  2.1899
  178SLPC   H3S20297   3.476   4.078  10.297 -1.3747 -1.3123  0.5607
  178SLPC   C2420298   3.518   4.274  10.242 -0.2294 -0.1045  0.1471
  178SLPC   H4R20299   3.628   4.260  10.242  0.1222  2.1811  0.5710
  178SLPC   H4S20300   3.499   4.378  10.276 -3.9572 -0.4263 -0.5284
  178SLPC   C2520301   3.475   4.252  10.098  0.6688 -0.2922 -0.4048
  178SLPC   H5R20302   3.364   4.258  10.107  0.8760  0.7928  4.8406
  178SLPC   H5S20303   3.517   4.149  10.089  2.8886  0.3233  1.7437
  178SLPC   C2620304   3.533   4.346   9.988  0.4078 -0.3995  1.0040
  178SLPC   H6R20305   3.643   4.342   9.984  0.3481 -1.2724 -1.4262
  178SLPC   H6S20306   3.489   4.447  10.002 -4.0620 -1.1219 -4.2500
  178SLPC   C2720307   3.473   4.308   9.854  0.0047 -0.1130 -0.4592
  178SLPC   H7R20308   3.363   4.321   9.848 -0.0010 -0.5204 -1.4767
  178SLPC   H7S20309   3.494   4.199   9.840  0.8565 -0.3903  2.2624
  178SLPC   C2820310   3.545   4.377   9.734  0.1855 -0.3313  0.0700
  178SLPC   H8R20311   3.648   4.334   9.729 -0.5346 -2.0156 -1.4386
  178SLPC   H8S20312   3.551   4.485   9.757 -0.0776 -0.6995  2.1429
  178SLPC   C2920313   3.467   4.351   9.608  0.0448  0.3571 -0.0488
  178SLPC   H9R20314   3.415   4.254   9.598 -0.1072  0.4667 -0.3161
  178SLPC  C21020315   3.453   4.434   9.499  0.1272  1.3416 -1.2399
  178SLPC  H10R20316   3.398   4.404   9.409  1.7459 -0.1496 -1.8014
  178SLPC  C21120317   3.514   4.570   9.485  0.6734 -0.3637 -0.2501
  178SLPC  H11R20318   3.500   4.630   9.578 -1.0210 -0.6671 -0.2788
  178SLPC  H11S20319   3.455   4.630   9.412 -0.9382 -0.9792  0.4837
  178SLPC  C21220320   3.660   4.577   9.446 -0.0680 -0.1913  0.7014
  178SLPC  H12R20321   3.728   4.532   9.520  0.7959 -0.6647 -0.3452
  178SLPC  C21320322   3.719   4.635   9.341 -0.2628 -0.3980  0.0745
  178SLPC  H13R20323   3.828   4.630   9.330 -0.0661  0.2421  1.4620
  178SLPC  C21420324   3.648   4.712   9.236 -0.4573  0.2128 -0.2798
  178SLPC  H14R20325   3.705   4.802   9.203 -0.0597  0.3496  0.7544
  178SLPC  H14S20326   3.557   4.750   9.285 -1.4577 -0.6564 -1.4048
  178SLPC  C21520327   3.617   4.619   9.116 -0.1780 -0.7037 -0.3381
  178SLPC  H15R20328   3.537   4.672   9.059 -0.9866 -1.4516  0.0800
  178SLPC  H15S20329   3.567   4.531   9.163  1.0770 -2.0110 -1.3787
  178SLPC  C21620330   3.723   4.578   9.019 -0.3229 -0.2903 -0.1919
  178SLPC  H16R20331   3.805   4.511   9.052  0.6924  0.5609 -0.9131
  178SLPC  H16S20332   3.777   4.666   8.978 -1.1037 -0.8757 -2.6572
  178SLPC  C21720333   3.654   4.510   8.891 -0.2235  0.3906 -0.4355
  178SLPC  H17R20334   3.591   4.591   8.848 -0.2036  0.1236 -0.9654
  178SLPC  H17S20335   3.582   4.436   8.932 -0.9810  3.1066  3.8224
  178SLPC  C21820336   3.753   4.472   8.784 -0.1381  0.7774 -0.4209
  178SLPC  H18R20337   3.810   4.561   8.750 -0.6733  1.3790  0.2530
  178SLPC  H18S20338   3.704   4.424   8.696  0.7744 -1.0378 -0.0050
  178SLPC  H18T20339   3.827   4.394   8.814 -1.4841 -1.3352 -2.2667
  178SLPC   C3320340   3.519   4.784  10.391 -0.6249  1.3680  0.3452
  178SLPC   H3X20341   3.579   4.829  10.309 -1.1934 -0.1336 -0.9429
  178SLPC   H3Y20342   3.441   4.857  10.422 -0.3578  1.5708  0.5472
  178SLPC   C3420343   3.453   4.659  10.345  0.4328  0.2307  0.1486
  178SLPC   H4X20344   3.409   4.620  10.439 -1.3954  0.3304 -0.6414
  178SLPC   H4Y20345   3.526   4.585  10.306  2.3270  1.2593  1.5346
  178SLPC   C3520346   3.340   4.676  10.248 -0.5701 -0.2726 -0.1819
  178SLPC   H5X20347   3.267   4.740  10.303 -3.0185 -2.9687 -0.0315
  178SLPC   H5Y20348   3.289   4.578  10.231 -1.3847 -0.0886  1.0473
  178SLPC   C3620349   3.395   4.725  10.112 -0.0048  0.6054 -0.5630
  178SLPC   H6X20350   3.473   4.653  10.079  0.2126 -0.0357  1.2397
  178SLPC   H6Y20351   3.431   4.829  10.123 -0.7646  0.7875  0.2421
  178SLPC   C3720352   3.284   4.740  10.010 -0.4680  0.0471  0.2048
  178SLPC   H7X20353   3.216   4.824  10.035  0.1304  1.1107 -1.5330
  178SLPC   H7Y20354   3.242   4.638   9.993  1.9992 -0.9894 -0.1922
  178SLPC   C3820355   3.322   4.784   9.863 -0.6279 -0.7095  0.6200
  178SLPC   H8X20356   3.368   4.704   9.802 -0.4146 -0.7368  0.8152
  178SLPC   H8Y20357   3.374   4.881   9.876 -1.6834 -0.0351 -0.0252
  178SLPC   C3920358   3.195   4.819   9.784  0.0924  0.0406 -0.4882
  178SLPC   H9X20359   3.154   4.914   9.826  2.8564  1.2280 -0.2453
  178SLPC   H9Y20360   3.113   4.745   9.780 -0.9156  1.1600 -1.0217
  178SLPC  C31020361   3.235   4.848   9.639 -0.7167  0.0408  0.0286
  178SLPC  H10X20362   3.300   4.765   9.604  0.0678 -0.3261  2.1862
  178SLPC  H10Y20363   3.286   4.946   9.625 -0.2845 -0.0671  0.7957
  178SLPC  C31120364   3.109   4.857   9.559 -0.2519 -0.1092  0.5861
  178SLPC  H11X20365   3.039   4.919   9.619 -0.6281  1.0579 -0.9733
  178SLPC  H11Y20366   3.066   4.758   9.532 -2.3126  0.7094  0.6979
  178SLPC  C31220367   3.128   4.945   9.435 -0.2493  0.2765 -0.2699
  178SLPC  H12X20368   3.147   5.050   9.468  1.4659  0.0839 -0.5194
  178SLPC  H12Y20369   3.036   4.944   9.373  0.1914  1.5259 -0.9963
  178SLPC  C31320370   3.247   4.893   9.345  0.4884  0.3177  0.2385
  178SLPC  H13X20371   3.250   4.782   9.350  1.3997  0.3863  3.4273
  178SLPC  H13Y20372   3.345   4.926   9.386  1.2400 -2.9999  1.4703
  178SLPC  C31420373   3.227   4.947   9.199  0.0894  0.1883 -0.4685
  178SLPC  H14X20374   3.249   5.055   9.215  0.3381 -0.0301  0.7622
  178SLPC  H14Y20375   3.123   4.922   9.172  0.4227 -0.1759 -1.4798
  178SLPC  C31520376   3.315   4.874   9.096 -0.1993  0.5878 -0.1267
  178SLPC  H15X20377   3.418   4.867   9.137 -0.2404 -1.5145 -0.2491
  178SLPC  H15Y20378   3.276   4.770   9.085  0.0758 -0.0425  3.5156
  178SLPC  C31620379   3.333   4.951   8.960 -0.1359  0.4409  0.4617
  178SLPC  H16X20380   3.378   4.873   8.894 -0.4275 -0.3186  1.1348
  178SLPC  H16Y20381   3.411   5.024   8.989  0.5675 -0.6363  1.3437
  178SLPC  C31720382   3.212   5.004   8.881  0.0593 -0.0324  0.9149
  178SLPC  H17X20383   3.157   5.092   8.920  0.2620  1.1635 -1.3226
  178SLPC  H17Y20384   3.138   4.923   8.862  0.6187 -0.3507  0.0320
  178SLPC  C31820385   3.254   5.049   8.735  0.4216  0.1935 -1.1138
  178SLPC  H18X20386   3.168   5.097   8.684  0.0272  3.2670  2.0235
  178SLPC  H18Y20387   3.308   4.981   8.666  0.8085  1.3771 -2.0105
  178SLPC  H18Z20388   3.323   5.129   8.769  0.9099 -0.4847 -0.4668
  179SLPC     N20389   4.524   1.802  10.462 -0.9598  0.1181 -0.3550
  179SLPC   C1320390   4.616   1.804  10.586  0.2445  1.2478 -0.8544
  179SLPC  H13A20391   4.626   1.900  10.635  0.8731  0.5313  0.4795
  179SLPC  H13B20392   4.591   1.731  10.661  1.3705 -0.1863 -1.8057
  179SLPC  H13C20393   4.713   1.763  10.561 -0.8596 -1.5259 -0.8604
  179SLPC   C1420394   4.576   1.916  10.370  0.1857 -0.8469  0.5076
  179SLPC  H14A20395   4.680   1.892  10.354  0.1462 -1.0564  0.5671
  179SLPC  H14B20396   4.514   1.914  10.282  1.4001  0.9917 -0.4316
  179SLPC  H14C20397   4.570   2.011  10.420  2.3835 -1.2852  1.7233
  179SLPC   C1520398   4.383   1.836  10.504 -0.1827  1.0369 -0.2960
  179SLPC  H15A20399   4.338   1.742  10.534 -1.7634  2.0662  0.7109
  179SLPC  H15B20400   4.378   1.905  10.587  1.3584 -1.8473  2.4074
  179SLPC  H15C20401   4.320   1.868  10.423  2.0559  0.2462 -2.4499
  179SLPC   C1220402   4.542   1.674  10.392 -0.2166  0.3742  0.3291
  179SLPC  H12A20403   4.642   1.670  10.351 -0.4557 -0.7182 -0.1796
  179SLPC  H12B20404   4.487   1.680  10.299 -0.4036  0.9099  0.4699
  179SLPC   C1120405   4.504   1.534  10.452  0.7101 -0.6347 -0.0131
  179SLPC  H11A20406   4.532   1.529  10.560 -1.6686  4.3813  1.1286
  179SLPC  H11B20407   4.561   1.451  10.406  0.2957 -0.2324 -1.2887
  179SLPC     P20408   4.298   1.459  10.307 -0.1891 -0.0903  0.0460
  179SLPC   O1320409   4.368   1.332  10.290  0.2202  0.3683 -0.5263
  179SLPC   O1420410   4.154   1.453  10.313  0.0423 -0.7629 -0.2683
  179SLPC   O1220411   4.362   1.523  10.439  0.2394  0.4494 -0.4739
  179SLPC   O1120412   4.349   1.572  10.196 -0.3837 -0.0969 -0.4332
  179SLPC    C120413   4.426   1.519  10.091  0.4575 -0.1816  0.3708
  179SLPC    HA20414   4.521   1.473  10.126  0.9118  0.3353 -0.1473
  179SLPC    HB20415   4.372   1.449  10.024 -0.0257 -0.0022  0.5690
  179SLPC    C220416   4.476   1.638   9.999  0.1264 -0.4002 -0.3302
  179SLPC    HS20417   4.544   1.705  10.058 -3.7709  2.5320  1.2845
  179SLPC   O2120418   4.359   1.710   9.949 -0.1392 -0.2460 -0.0765
  179SLPC   C2120419   4.327   1.815  10.013 -0.2069 -0.1439  0.7762
  179SLPC   O2220420   4.394   1.871  10.096  0.0632 -0.1999  0.1560
  179SLPC   C2220421   4.200   1.875   9.963 -0.0120 -0.4610  0.5640
  179SLPC   H2R20422   4.133   1.789   9.940 -0.7373  0.3698 -0.5217
  179SLPC   H2S20423   4.151   1.938  10.041  1.0402  1.1644 -0.0466
  179SLPC    C320424   4.557   1.584   9.875 -0.2214 -0.3750  0.5196
  179SLPC    HX20425   4.480   1.542   9.806  0.3965  0.1696 -0.5305
  179SLPC    HY20426   4.627   1.507   9.913  1.3786 -0.2772 -1.9489
  179SLPC   O3120427   4.634   1.690   9.811 -0.2154 -1.0775  0.2980
  179SLPC   C3120428   4.598   1.730   9.688  0.7657 -0.4934  0.2762
  179SLPC   O3220429   4.500   1.698   9.625  0.2952 -0.0565 -0.4400
  179SLPC   C3220430   4.677   1.846   9.629  0.4516  0.3391  0.1479
  179SLPC   H2X20431   4.759   1.866   9.700  0.1051 -0.4909  0.7968
  179SLPC   H2Y20432   4.604   1.930   9.626 -2.1436 -1.7349  0.8441
  179SLPC   C2320433   4.224   1.989   9.860 -0.2758  0.7611  0.9715
  179SLPC   H3R20434   4.320   2.041   9.878  0.0048  0.3001  0.8195
  179SLPC   H3S20435   4.148   2.070   9.856  0.5256  1.5961  1.9929
  179SLPC   C2420436   4.228   1.934   9.715  0.3530  0.4401  0.2268
  179SLPC   H4R20437   4.144   1.862   9.713  0.7696 -0.0248 -0.9007
  179SLPC   H4S20438   4.315   1.870   9.687 -0.3940 -1.1580  1.3651
  179SLPC   C2520439   4.200   2.044   9.610 -0.7555 -0.1192  0.6078
  179SLPC   H5R20440   4.285   2.116   9.603  0.8800 -1.7924  1.9724
  179SLPC   H5S20441   4.107   2.099   9.635 -1.1787 -0.3127 -0.5069
  179SLPC   C2620442   4.178   1.990   9.467  0.4388 -0.1054  0.0073
  179SLPC   H6R20443   4.097   1.914   9.458  0.8488 -0.5482 -0.0081
  179SLPC   H6S20444   4.276   1.940   9.450  0.6005 -0.7607  2.4016
  179SLPC   C2720445   4.152   2.099   9.367 -0.7321 -0.4970 -0.0801
  179SLPC   H7R20446   4.239   2.165   9.385 -0.2855 -1.3208  0.8605
  179SLPC   H7S20447   4.057   2.150   9.393  0.3850  0.3040  2.7733
  179SLPC   C2820448   4.151   2.052   9.217  0.1335  0.7998 -0.1526
  179SLPC   H8R20449   4.243   1.989   9.207  0.2350  1.1458 -1.5840
  179SLPC   H8S20450   4.170   2.142   9.155  0.8617  0.2732 -0.7112
  179SLPC   C2920451   4.028   1.982   9.170  0.0946  0.9397  0.7314
  179SLPC   H9R20452   3.962   1.929   9.241  0.0202 -0.4455 -0.3320
  179SLPC  C21020453   3.984   1.965   9.045 -0.2883  0.5547 -0.0922
  179SLPC  H10R20454   3.892   1.905   9.030  0.3012 -0.6522  0.8978
  179SLPC  C21120455   4.054   2.012   8.919  0.3297 -0.2098 -0.1463
  179SLPC  H11R20456   4.059   1.925   8.851 -0.3468 -0.7769  0.5131
  179SLPC  H11S20457   4.159   2.048   8.930 -0.3745  1.9143  0.2054
  179SLPC  C21220458   3.979   2.125   8.865 -0.0826 -0.9519  0.5058
  179SLPC  H12R20459   3.945   2.200   8.939 -0.1446  0.8943 -1.3080
  179SLPC  C21320460   3.956   2.163   8.736 -0.1695  0.0609 -0.2777
  179SLPC  H13R20461   3.876   2.237   8.718 -1.3116 -1.3060 -1.0171
  179SLPC  C21420462   4.004   2.082   8.614  0.4329 -0.4121 -0.0856
  179SLPC  H14R20463   3.973   1.977   8.633  1.3217 -0.2086  3.0152
  179SLPC  H14S20464   4.115   2.080   8.624  0.3090  0.6652  2.4665
  179SLPC  C21520465   3.937   2.136   8.483  0.5956 -0.2666 -0.1889
  179SLPC  H15R20466   3.829   2.160   8.491  0.0757 -2.2464 -0.5277
  179SLPC  H15S20467   3.940   2.051   8.411 -0.0690  1.1770 -1.9846
  179SLPC  C21620468   4.004   2.265   8.430  0.4010  0.3897 -0.8348
  179SLPC  H16R20469   4.115   2.261   8.430  0.5317  0.2064  3.4025
  179SLPC  H16S20470   3.978   2.356   8.488  0.3529  0.2696 -0.6654
  179SLPC  C21720471   3.971   2.284   8.282 -0.0143  0.5324  0.5565
  179SLPC  H17R20472   3.861   2.280   8.268  0.2848  1.9022 -3.2336
  179SLPC  H17S20473   4.020   2.207   8.219 -0.5072  2.1680 -1.9511
  179SLPC  C21820474   4.022   2.425   8.244  0.5903 -0.1181  0.2339
  179SLPC  H18R20475   4.114   2.474   8.283  0.7802  0.4569 -0.8979
  179SLPC  H18S20476   3.936   2.495   8.241  0.6025 -0.1260 -1.9724
  179SLPC  H18T20477   4.055   2.418   8.138  0.7248  0.5953  0.2237
  179SLPC   C3320478   4.735   1.821   9.486 -0.1442  0.2710 -0.2667
  179SLPC   H3X20479   4.768   1.715   9.499 -1.1205 -0.0689 -0.4849
  179SLPC   H3Y20480   4.816   1.891   9.455 -1.2676  0.8661 -1.9828
  179SLPC   C3420481   4.628   1.823   9.376  0.2078 -0.7836 -0.5692
  179SLPC   H4X20482   4.569   1.917   9.366  2.1807  0.7649  1.4380
  179SLPC   H4Y20483   4.557   1.740   9.395 -1.9558  1.3866  1.4457
  179SLPC   C3520484   4.684   1.800   9.241  0.5401  1.0447  0.5729
  179SLPC   H5X20485   4.767   1.727   9.244 -0.4144 -0.0649  0.8585
  179SLPC   H5Y20486   4.735   1.892   9.206 -0.2305  1.5578  0.7807
  179SLPC   C3620487   4.585   1.754   9.129  0.4867  0.2701  0.0285
  179SLPC   H6X20488   4.507   1.833   9.126  0.5369  0.3294 -3.2358
  179SLPC   H6Y20489   4.531   1.659   9.150  0.8353  0.3988  1.6502
  179SLPC   C3720490   4.643   1.749   8.981  0.3503  0.1239 -0.2736
  179SLPC   H7X20491   4.725   1.677   9.004 -0.0457 -0.5476 -0.9143
  179SLPC   H7Y20492   4.699   1.843   8.963 -2.5734  1.8477 -0.9860
  179SLPC   C3820493   4.557   1.701   8.867 -0.5089 -0.4818  0.2042
  179SLPC   H8X20494   4.472   1.765   8.834  0.5758  0.3349 -1.1302
  179SLPC   H8Y20495   4.516   1.601   8.892  0.7965 -0.9505  0.5350
  179SLPC   C3920496   4.647   1.697   8.740 -0.0372 -0.0045 -0.6252
  179SLPC   H9X20497   4.746   1.650   8.758  0.1285 -0.0063 -1.5425
  179SLPC   H9Y20498   4.663   1.807   8.734  0.5388  0.1083  1.8667
  179SLPC  C31020499   4.580   1.636   8.623 -0.9776 -0.6115  0.0597
  179SLPC  H10X20500   4.631   1.683   8.537 -1.1556 -1.3083 -0.4352
  179SLPC  H10Y20501   4.471   1.655   8.616 -0.4103  2.7579 -2.1450
  179SLPC  C31120502   4.606   1.488   8.616 -0.0647  0.4311  0.7155
  179SLPC  H11X20503   4.555   1.440   8.702 -1.5307 -1.6553 -1.2176
  179SLPC  H11Y20504   4.714   1.461   8.620 -0.4411 -2.1034 -2.3964
  179SLPC  C31220505   4.567   1.417   8.482 -0.0784  0.5419  0.1221
  179SLPC  H12X20506   4.457   1.422   8.469 -0.0772 -1.6734 -1.0756
  179SLPC  H12Y20507   4.594   1.310   8.491 -0.6308  0.4943  1.3735
  179SLPC  C31320508   4.641   1.471   8.359 -0.3142  0.6540 -0.2105
  179SLPC  H13X20509   4.738   1.425   8.329 -1.1779 -0.8492 -0.7943
  179SLPC  H13Y20510   4.650   1.581   8.350  1.3593  0.5389 -0.4465
  179SLPC  C31420511   4.555   1.446   8.236  0.5915 -0.1966 -0.3046
  179SLPC  H14X20512   4.460   1.502   8.252  1.1805  0.7163  0.1113
  179SLPC  H14Y20513   4.521   1.340   8.232  0.6710 -0.2484  0.2783
  179SLPC  C31520514   4.615   1.479   8.098 -0.2338  0.1263  0.0625
  179SLPC  H15X20515   4.708   1.419   8.090 -0.9071 -1.2952  2.0183
  179SLPC  H15Y20516   4.630   1.589   8.093 -0.8467  0.1665 -1.2491
  179SLPC  C31620517   4.532   1.439   7.980 -0.1373  0.0303  0.5918
  179SLPC  H16X20518   4.453   1.512   7.951 -1.4066 -2.5332 -3.1236
  179SLPC  H16Y20519   4.462   1.359   8.015 -3.0466  2.1016 -0.0687
  179SLPC  C31720520   4.612   1.413   7.849 -0.7220 -0.0644 -0.0775
  179SLPC  H17X20521   4.694   1.341   7.873 -0.9896 -0.4524 -0.3090
  179SLPC  H17Y20522   4.659   1.510   7.822 -2.6870  0.9238 -0.0845
  179SLPC  C31820523   4.526   1.364   7.736  1.0341 -0.4283 -0.7689
  179SLPC  H18X20524   4.576   1.358   7.637 -0.9755  2.5802 -2.1015
  179SLPC  H18Y20525   4.448   1.438   7.709  1.2092  0.1082  0.1371
  179SLPC  H18Z20526   4.487   1.264   7.765 -1.6457  0.4210 -1.1981
  180SLPC     N20527   3.626   5.438  11.010  0.7346 -0.0965  0.5239
  180SLPC   C1320528   3.541   5.329  10.949  0.2617 -0.2282  0.6041
  180SLPC  H13A20529   3.577   5.232  10.981  0.0272 -0.4896  0.0878
  180SLPC  H13B20530   3.439   5.338  10.982  0.0791  1.9930 -0.4028
  180SLPC  H13C20531   3.537   5.336  10.841  0.1750  1.2298  0.6942
  180SLPC   C1420532   3.707   5.365  11.119 -0.8932 -0.3637  0.2236
  180SLPC  H14A20533   3.642   5.307  11.183  0.5640 -2.8383 -0.3947
  180SLPC  H14B20534   3.767   5.292  11.066 -1.1252 -0.4111  0.0176
  180SLPC  H14C20535   3.765   5.434  11.177 -2.2867  1.0061  0.0432
  180SLPC   C1520536   3.537   5.550  11.061  0.6132  0.3967  0.0837
  180SLPC  H15A20537   3.462   5.507  11.125  1.0345  0.6424  0.7531
  180SLPC  H15B20538   3.583   5.628  11.121  1.2163 -1.0334  1.5654
  180SLPC  H15C20539   3.486   5.582  10.972  0.4180 -3.3851 -1.3231
  180SLPC   C1220540   3.720   5.498  10.901  0.0518 -0.7286  0.6866
  180SLPC  H12A20541   3.762   5.589  10.943 -0.5758  0.8529 -1.8993
  180SLPC  H12B20542   3.655   5.525  10.819 -2.0897 -2.1477  1.8017
  180SLPC   C1120543   3.835   5.415  10.837  0.1065 -0.1165 -0.0355
  180SLPC  H11A20544   3.871   5.460  10.742 -1.0406 -1.4934 -1.1719
  180SLPC  H11B20545   3.788   5.318  10.810  1.1374  0.4124 -4.5095
  180SLPC     P20546   4.064   5.509  10.935 -0.5860 -0.0226 -0.0112
  180SLPC   O1320547   4.006   5.640  10.973 -0.1720 -0.1983  0.5907
  180SLPC   O1420548   4.168   5.456  11.022 -0.1258 -0.3898  0.5481
  180SLPC   O1220549   3.942   5.405  10.936  0.2163 -0.0234  0.5317
  180SLPC   O1120550   4.111   5.499  10.783 -0.1805 -0.3465  0.3154
  180SLPC    C120551   4.190   5.610  10.725 -0.9980  0.2176 -0.4352
  180SLPC    HA20552   4.135   5.707  10.717  1.3537  1.7172  0.3492
  180SLPC    HB20553   4.274   5.632  10.794 -1.2541 -1.8202  0.6083
  180SLPC    C220554   4.234   5.579  10.579 -0.2856 -0.0759 -0.3817
  180SLPC    HS20555   4.282   5.669  10.533 -0.2778  1.0103  1.6406
  180SLPC   O2120556   4.120   5.532  10.508  0.2628 -0.9201  0.1248
  180SLPC   C2120557   4.061   5.631  10.445  0.2509 -0.2565 -0.7184
  180SLPC   O2220558   4.101   5.748  10.448  0.4330  0.5452 -0.2787
  180SLPC   C2220559   3.926   5.589  10.390  0.1819 -0.3857 -0.8964
  180SLPC   H2R20560   3.918   5.478  10.391  0.7895 -0.4352  0.1834
  180SLPC   H2S20561   3.849   5.632  10.457  1.4548 -0.4782  0.6835
  180SLPC    C320562   4.339   5.464  10.585 -0.6764  0.7433  0.4457
  180SLPC    HX20563   4.287   5.371  10.616  0.9398 -0.8235 -1.2978
  180SLPC    HY20564   4.406   5.487  10.670 -0.7594 -2.6293  1.5505
  180SLPC   O3120565   4.406   5.445  10.463  0.1167 -0.0916  0.1839
  180SLPC   C3120566   4.495   5.536  10.428  0.5374 -0.0415 -0.4926
  180SLPC   O3220567   4.524   5.635  10.493 -0.1055  0.4782 -0.2525
  180SLPC   C3220568   4.561   5.501  10.297 -0.4248 -0.0900 -0.3375
  180SLPC   H2X20569   4.563   5.393  10.269 -0.4672 -0.3259  0.5500
  180SLPC   H2Y20570   4.662   5.544  10.309 -0.3883  1.4368 -4.3737
  180SLPC   C2320571   3.895   5.644  10.251 -0.5350 -0.1920  0.0632
  180SLPC   H3R20572   3.812   5.584  10.209  0.0952 -0.1430 -1.3038
  180SLPC   H3S20573   3.981   5.646  10.180 -0.0720 -0.9037  0.5882
  180SLPC   C2420574   3.833   5.789  10.252  0.0164  0.1328 -0.2617
  180SLPC   H4R20575   3.908   5.864  10.285 -1.5876  1.4280  0.6264
  180SLPC   H4S20576   3.755   5.793  10.332  3.2549  0.5577  3.1636
  180SLPC   C2520577   3.782   5.842  10.115  0.1114 -0.3422  0.2773
  180SLPC   H5R20578   3.741   5.944  10.123 -1.8513 -1.1926  1.7596
  180SLPC   H5S20579   3.709   5.779  10.059  0.9089 -0.3020 -0.8417
  180SLPC   C2620580   3.904   5.869  10.024  0.2084  0.2636 -0.2698
  180SLPC   H6R20581   3.951   5.768  10.022  0.5912  0.4479 -0.6862
  180SLPC   H6S20582   3.971   5.944  10.070 -1.0962  0.1156  2.0248
  180SLPC   C2720583   3.854   5.903   9.883 -0.1836 -0.1482 -0.1018
  180SLPC   H7R20584   3.769   5.834   9.866 -0.0669 -0.1702 -0.6289
  180SLPC   H7S20585   3.942   5.885   9.816 -0.2179  1.6186 -0.6773
  180SLPC   C2820586   3.800   6.054   9.859 -0.0152  0.3642  0.4452
  180SLPC   H8R20587   3.700   6.054   9.909 -0.3496 -1.2349 -0.1521
  180SLPC   H8S20588   3.774   6.056   9.751 -1.8335 -0.6794  0.8099
  180SLPC   C2920589   3.895   6.162   9.901 -0.1327 -0.1378 -0.9388
  180SLPC   H9R20590   3.927   6.157  10.006 -1.1697 -0.1607 -0.6097
  180SLPC  C21020591   3.946   6.260   9.827  0.1312 -0.2444 -0.2947
  180SLPC  H10R20592   4.019   6.322   9.882  2.4625 -1.2426 -2.0634
  180SLPC  C21120593   3.934   6.277   9.676 -0.4451  0.2867  0.0589
  180SLPC  H11R20594   3.874   6.189   9.645 -0.7780  0.1693  1.0009
  180SLPC  H11S20595   4.034   6.270   9.627 -0.6166  1.3825 -0.4670
  180SLPC  C21220596   3.864   6.403   9.640  0.1684  0.4209 -0.2798
  180SLPC  H12R20597   3.881   6.486   9.711 -2.1951 -0.1232  1.0201
  180SLPC  C21320598   3.803   6.431   9.527  0.3115  1.0449 -0.3099
  180SLPC  H13R20599   3.744   6.523   9.518  0.8457  1.7193  2.3056
  180SLPC  C21420600   3.800   6.334   9.405  0.9258 -0.1987 -0.6976
  180SLPC  H14R20601   3.695   6.309   9.379  0.1044  1.3672  0.8904
  180SLPC  H14S20602   3.842   6.239   9.443 -4.3821 -3.1713 -1.2850
  180SLPC  C21520603   3.874   6.393   9.290 -0.9498  0.8053  0.0331
  180SLPC  H15R20604   3.869   6.319   9.208  0.7733  1.2165 -0.5033
  180SLPC  H15S20605   3.984   6.394   9.310 -1.0790 -2.2778  1.3000
  180SLPC  C21620606   3.815   6.526   9.241  0.3115 -0.4062 -0.4281
  180SLPC  H16R20607   3.894   6.579   9.184 -0.4527  0.1702 -0.9774
  180SLPC  H16S20608   3.787   6.599   9.320 -1.3968 -1.6790  0.2153
  180SLPC  C21720609   3.700   6.493   9.145  0.0492  0.3573 -0.9548
  180SLPC  H17R20610   3.618   6.435   9.191  0.3844 -0.0518 -0.8662
  180SLPC  H17S20611   3.732   6.426   9.062 -2.0276 -2.1057  0.1097
  180SLPC  C21820612   3.623   6.621   9.095 -0.2277 -0.0531  0.1346
  180SLPC  H18R20613   3.574   6.675   9.179 -3.0363 -1.7191 -0.2985
  180SLPC  H18S20614   3.533   6.609   9.030 -1.3260  2.3490  1.0831
  180SLPC  H18T20615   3.702   6.685   9.051  0.0414  0.7795  1.7480
  180SLPC   C3320616   4.499   5.572  10.179 -0.5722 -0.8776  0.4792
  180SLPC   H3X20617   4.572   5.553  10.097  2.1795 -0.3380  2.6590
  180SLPC   H3Y20618   4.505   5.682  10.199  2.5406 -1.2718  2.4504
  180SLPC   C3420619   4.368   5.524  10.144 -0.2639  0.3077 -0.1562
  180SLPC   H4X20620   4.289   5.540  10.221 -1.1601 -0.4347 -0.8899
  180SLPC   H4Y20621   4.383   5.414  10.136  1.2772  0.0855  3.6366
  180SLPC   C3520622   4.308   5.576  10.021  0.0015  0.0667  0.0699
  180SLPC   H5X20623   4.204   5.539  10.004  0.2087 -0.2519 -0.5653
  180SLPC   H5Y20624   4.382   5.552   9.941 -1.0683  0.9281 -1.2227
  180SLPC   C3620625   4.280   5.728  10.007 -0.1304 -0.0726  0.2037
  180SLPC   H6X20626   4.379   5.776  10.024  0.8372 -1.5356 -1.0712
  180SLPC   H6Y20627   4.206   5.763  10.082 -0.5264  1.7473 -0.9675
  180SLPC   C3720628   4.234   5.780   9.870 -1.2000  0.1847  0.2780
  180SLPC   H7X20629   4.136   5.730   9.855 -0.1824 -1.3365 -1.8520
  180SLPC   H7Y20630   4.305   5.738   9.796  0.4649  2.6157  0.3873
  180SLPC   C3820631   4.210   5.928   9.858 -0.7043 -0.3997  0.5487
  180SLPC   H8X20632   4.175   5.963   9.957 -1.0703 -0.9195  0.6042
  180SLPC   H8Y20633   4.127   5.944   9.786 -1.1402  0.0107  1.1313
  180SLPC   C3920634   4.323   6.021   9.807  0.2612 -0.2932 -0.1017
  180SLPC   H9X20635   4.408   5.993   9.873 -0.1156 -1.4728 -0.0998
  180SLPC   H9Y20636   4.293   6.127   9.824 -0.7032 -0.4856 -0.5648
  180SLPC  C31020637   4.352   6.011   9.654  0.4982  0.6942 -0.3767
  180SLPC  H10X20638   4.396   5.914   9.624 -0.7849  0.1081 -0.4246
  180SLPC  H10Y20639   4.438   6.080   9.636  1.3834 -0.3194 -0.1598
  180SLPC  C31120640   4.240   6.053   9.567 -0.0314  0.4767  0.6003
  180SLPC  H11X20641   4.226   6.162   9.578 -2.3869  0.1842  1.0596
  180SLPC  H11Y20642   4.149   5.995   9.593 -0.0014  1.1360  2.2828
  180SLPC  C31220643   4.278   6.013   9.426  0.2528 -0.4148 -0.0723
  180SLPC  H12X20644   4.276   5.903   9.406 -2.7161 -0.4427 -0.1734
  180SLPC  H12Y20645   4.376   6.063   9.411  0.6212 -1.1525 -0.1714
  180SLPC  C31320646   4.174   6.066   9.320 -0.3612  0.3324  0.7247
  180SLPC  H13X20647   4.156   6.175   9.331 -1.4267  0.4315 -1.3781
  180SLPC  H13Y20648   4.083   6.009   9.347 -2.3293  2.6207 -0.6315
  180SLPC  C31420649   4.211   6.025   9.170  0.1697 -1.0783 -0.5134
  180SLPC  H14X20650   4.224   5.915   9.171  0.6898 -1.0171  0.1518
  180SLPC  H14Y20651   4.309   6.074   9.150 -1.1414  1.5493 -0.8761
  180SLPC  C31520652   4.101   6.068   9.071 -0.3287 -0.9766  0.1836
  180SLPC  H15X20653   4.004   6.015   9.080 -2.0401  1.6995 -0.9993
  180SLPC  H15Y20654   4.144   6.020   8.981 -2.1290  0.7247 -1.7150
  180SLPC  C31620655   4.085   6.221   9.051 -0.0270 -1.0768  0.2903
  180SLPC  H16X20656   4.181   6.270   9.026 -0.5406 -0.1441  0.1116
  180SLPC  H16Y20657   4.059   6.276   9.144  1.9840  0.2036  0.1402
  180SLPC  C31720658   3.980   6.262   8.941 -0.1746  0.1695 -0.0969
  180SLPC  H17X20659   3.877   6.254   8.981  0.1190 -2.3060  0.3010
  180SLPC  H17Y20660   3.972   6.198   8.850 -1.7037  2.6171 -1.8165
  180SLPC  C31820661   3.996   6.410   8.895  0.6656  0.3041  0.2958
  180SLPC  H18X20662   4.098   6.424   8.852  1.2983 -1.3089  1.2036
  180SLPC  H18Y20663   3.958   6.488   8.963  0.0658 -0.7757  1.2285
  180SLPC  H18Z20664   3.942   6.417   8.798  1.1829 -0.6859 -0.0854
  181SLPC     N20665   1.980   2.935  11.175 -0.4486  0.1708 -0.0125
  181SLPC   C1320666   2.103   2.915  11.258  0.0254  0.8211  0.3831
  181SLPC  H13A20667   2.148   3.004  11.300  0.9901  1.4629 -1.8639
  181SLPC  H13B20668   2.077   2.858  11.346  2.7981  2.8737  2.7231
  181SLPC  H13C20669   2.191   2.874  11.212  1.5036  1.5043  2.4241
  181SLPC   C1420670   1.874   2.983  11.259 -0.0344 -0.5747  0.2009
  181SLPC  H14A20671   1.781   2.978  11.204 -0.4263 -0.4825  0.8392
  181SLPC  H14B20672   1.863   2.935  11.355 -0.9332  0.8883  0.8648
  181SLPC  H14C20673   1.886   3.088  11.280  1.7758 -0.9251  1.0288
  181SLPC   C1520674   1.945   2.801  11.122 -0.2446 -0.1708  0.6030
  181SLPC  H15A20675   1.846   2.798  11.080 -0.0803 -1.2557  0.2684
  181SLPC  H15B20676   2.023   2.760  11.059 -1.4444 -1.1591 -0.2988
  181SLPC  H15C20677   1.943   2.735  11.208  1.4057 -2.2538 -0.8486
  181SLPC   C1220678   2.001   3.024  11.054  0.0853  0.0631  0.2408
  181SLPC  H12A20679   1.919   3.029  10.984  0.5193  2.1895 -0.1981
  181SLPC  H12B20680   2.076   2.970  10.999  0.0587 -1.8262  1.9670
  181SLPC   C1120681   2.044   3.170  11.079  0.4422 -0.4004  0.0885
  181SLPC  H11A20682   2.089   3.227  10.996 -1.0179  1.1987  0.3217
  181SLPC  H11B20683   2.130   3.156  11.148  0.7529  0.3281 -0.1497
  181SLPC     P20684   1.835   3.338  11.069  0.5438 -0.0489 -0.1913
  181SLPC   O1320685   1.700   3.306  11.108  0.5505 -0.9894 -0.5588
  181SLPC   O1420686   1.870   3.479  11.074 -0.2307  0.1909  0.4167
  181SLPC   O1220687   1.931   3.242  11.144  0.1605  0.3221  0.7967
  181SLPC   O1120688   1.847   3.281  10.922 -0.8286 -0.4107  0.4199
  181SLPC    C120689   1.892   3.356  10.808 -0.0814  0.1765  0.3781
  181SLPC    HA20690   1.978   3.420  10.837  0.4169 -0.4484  0.3051
  181SLPC    HB20691   1.947   3.282  10.747  1.4754 -1.0083  3.0755
  181SLPC    C220692   1.779   3.429  10.738 -0.0436  0.0834  0.5629
  181SLPC    HS20693   1.721   3.483  10.815 -0.2107 -1.2318  1.3905
  181SLPC   O2120694   1.700   3.327  10.677  0.2519 -0.9329 -0.7225
  181SLPC   C2120695   1.567   3.341  10.667  0.0777  0.1188 -0.9204
  181SLPC   O2220696   1.502   3.432  10.716  0.2596 -0.0647 -0.4024
  181SLPC   C2220697   1.512   3.238  10.578  0.7293 -0.6332 -0.0233
  181SLPC   H2R20698   1.560   3.140  10.599 -0.0699 -0.2101  5.1540
  181SLPC   H2S20699   1.407   3.225  10.614  0.2523  0.3870 -0.9763
  181SLPC    C320700   1.838   3.511  10.626  0.2699 -0.1368 -0.4013
  181SLPC    HX20701   1.901   3.443  10.565 -0.3484 -1.3136  0.2532
  181SLPC    HY20702   1.905   3.587  10.673  0.4931 -0.6320  0.0955
  181SLPC   O3120703   1.741   3.561  10.536 -0.6232  0.0960  0.7009
  181SLPC   C3120704   1.715   3.692  10.538 -0.5255  0.3483  0.1337
  181SLPC   O3220705   1.778   3.777  10.592 -0.4243 -0.2394 -0.0218
  181SLPC   C3220706   1.582   3.709  10.452 -0.1007  0.1431  0.0264
  181SLPC   H2X20707   1.497   3.726  10.521  0.0757  1.3555 -0.0345
  181SLPC   H2Y20708   1.560   3.613  10.400  2.5842  0.2979 -1.5834
  181SLPC   C2320709   1.498   3.290  10.437 -0.2733 -0.2047  0.2801
  181SLPC   H3R20710   1.583   3.351  10.398  1.0947 -3.2682 -1.8641
  181SLPC   H3S20711   1.405   3.350  10.428 -0.7627 -0.3633  3.2494
  181SLPC   C2420712   1.479   3.171  10.336  0.0294 -0.3732 -0.0158
  181SLPC   H4R20713   1.394   3.106  10.365 -0.7590  0.9041  0.6581
  181SLPC   H4S20714   1.573   3.112  10.339 -0.9269 -2.0861 -1.8123
  181SLPC   C2520715   1.464   3.230  10.196  0.1670  0.7088  0.0390
  181SLPC   H5R20716   1.549   3.299  10.181  1.2454 -0.7203 -0.6845
  181SLPC   H5S20717   1.365   3.274  10.169 -1.2324 -1.0841  1.8596
  181SLPC   C2620718   1.495   3.122  10.087  0.5961 -0.6467  0.8048
  181SLPC   H6R20719   1.406   3.056  10.092  0.1501 -0.0072  1.6518
  181SLPC   H6S20720   1.583   3.061  10.118 -2.3310 -4.0042  3.2809
  181SLPC   C2720721   1.510   3.177   9.945 -0.8944  0.1549  0.7717
  181SLPC   H7R20722   1.609   3.224   9.935  0.2055 -1.4265  3.2016
  181SLPC   H7S20723   1.433   3.256   9.934  0.7593  1.8608  0.9593
  181SLPC   C2820724   1.489   3.064   9.831 -0.0577 -0.2060 -0.1210
  181SLPC   H8R20725   1.387   3.022   9.835  0.3748 -1.2632  0.2556
  181SLPC   H8S20726   1.563   2.986   9.857  1.8945  2.1320  1.9221
  181SLPC   C2920727   1.527   3.107   9.697  0.0769 -0.2509  0.1586
  181SLPC   H9R20728   1.540   3.216   9.696  0.1077 -0.1587  2.7552
  181SLPC  C21020729   1.539   3.027   9.588  0.6981 -0.3285  0.4541
  181SLPC  H10R20730   1.551   3.074   9.489  1.1441 -0.1030  0.6116
  181SLPC  C21120731   1.509   2.881   9.583  0.0723 -0.4020 -0.1886
  181SLPC  H11R20732   1.445   2.852   9.668 -2.3561  1.0741 -1.4239
  181SLPC  H11S20733   1.604   2.823   9.593  0.9457  1.1091  0.6146
  181SLPC  C21220734   1.435   2.858   9.454 -0.2617 -0.3296 -0.2885
  181SLPC  H12R20735   1.358   2.935   9.440 -0.1184 -0.4625 -2.0987
  181SLPC  C21320736   1.438   2.754   9.374 -0.5714  0.1189 -0.5838
  181SLPC  H13R20737   1.369   2.750   9.289 -1.9508  1.1949  0.4312
  181SLPC  C21420738   1.533   2.634   9.399  0.4076  0.3096 -0.0423
  181SLPC  H14R20739   1.497   2.569   9.482  1.0779 -1.2300 -0.9250
  181SLPC  H14S20740   1.641   2.650   9.420  0.3797 -0.1437  0.4888
  181SLPC  C21520741   1.537   2.543   9.281 -0.2664 -0.0226  0.2871
  181SLPC  H15R20742   1.441   2.552   9.226 -0.4460  0.1083  0.6176
  181SLPC  H15S20743   1.561   2.438   9.307 -1.3259 -0.1147  0.9436
  181SLPC  C21620744   1.637   2.587   9.171 -0.7021 -0.9087  0.3746
  181SLPC  H16R20745   1.743   2.597   9.202 -1.3338  2.5925  1.9364
  181SLPC  H16S20746   1.607   2.693   9.151  3.0614  0.5696  1.6775
  181SLPC  C21720747   1.627   2.510   9.040 -0.6891  0.2431 -0.7355
  181SLPC  H17R20748   1.523   2.523   9.004 -0.3751 -0.9082 -2.1299
  181SLPC  H17S20749   1.647   2.402   9.030  0.3432  0.4858 -1.4584
  181SLPC  C21820750   1.726   2.577   8.936  0.3233  0.7154  0.2591
  181SLPC  H18R20751   1.722   2.687   8.921  1.0595  0.4593 -2.3728
  181SLPC  H18S20752   1.710   2.524   8.840  2.9005 -0.9061  0.6072
  181SLPC  H18T20753   1.831   2.558   8.967 -0.4394 -0.5761  2.2626
  181SLPC   C3320754   1.584   3.836  10.360 -0.2857  0.4196 -0.3140
  181SLPC   H3X20755   1.645   3.909  10.417 -0.7954 -1.2371  2.6079
  181SLPC   H3Y20756   1.483   3.882  10.353  0.5746  2.2888 -1.0703
  181SLPC   C3420757   1.630   3.812  10.221  0.1207  0.3108  0.8562
  181SLPC   H4X20758   1.611   3.900  10.155  0.7935 -0.8379 -0.9568
  181SLPC   H4Y20759   1.575   3.725  10.180 -0.0198 -0.9487  3.5492
  181SLPC   C3520760   1.786   3.778  10.220  0.0829 -0.5442  0.6124
  181SLPC   H5X20761   1.821   3.720  10.309  0.7318  2.3073  2.3388
  181SLPC   H5Y20762   1.847   3.870  10.233 -1.5901  0.5101  1.2468
  181SLPC   C3620763   1.833   3.705  10.093  0.3029 -0.1946  0.0962
  181SLPC   H6X20764   1.782   3.607  10.081 -1.6784  0.6463  1.1688
  181SLPC   H6Y20765   1.944   3.701  10.094  0.2917 -0.4819  0.0608
  181SLPC   C3720766   1.809   3.781   9.966  0.3920  0.1049 -0.6535
  181SLPC   H7X20767   1.884   3.862   9.954 -0.9496  1.5367  0.3910
  181SLPC   H7Y20768   1.713   3.836   9.960  0.5508  0.2854 -1.8702
  181SLPC   C3820769   1.824   3.682   9.848  1.2197 -0.9356  0.5219
  181SLPC   H8X20770   1.762   3.591   9.866  0.0518 -0.8072 -2.2532
  181SLPC   H8Y20771   1.929   3.648   9.851  1.6209  0.3182  2.2685
  181SLPC   C3920772   1.781   3.738   9.705 -1.1300 -0.3634  0.6281
  181SLPC   H9X20773   1.840   3.826   9.671  0.1142 -1.6141 -0.5665
  181SLPC   H9Y20774   1.679   3.781   9.703 -1.1213 -0.3587 -1.1266
  181SLPC  C31020775   1.786   3.636   9.592 -0.1642  0.5816  0.8462
  181SLPC  H10X20776   1.730   3.542   9.614  2.2538 -0.7677  1.7020
  181SLPC  H10Y20777   1.890   3.597   9.590 -0.5973 -0.6048 -0.2434
  181SLPC  C31120778   1.750   3.691   9.454 -0.3319  0.3368 -0.0833
  181SLPC  H11X20779   1.805   3.786   9.438  1.7622 -0.8661 -0.3987
  181SLPC  H11Y20780   1.645   3.724   9.469  0.5140  2.2144  2.5509
  181SLPC  C31220781   1.792   3.601   9.339  0.7402 -0.3223  0.3164
  181SLPC  H12X20782   1.875   3.535   9.371  1.0367  0.5511  1.3936
  181SLPC  H12Y20783   1.834   3.668   9.260 -0.9559 -0.8694 -1.1203
  181SLPC  C31320784   1.666   3.532   9.276 -0.2361 -0.1713  0.0708
  181SLPC  H13X20785   1.589   3.607   9.248  1.6332  1.1129 -1.9265
  181SLPC  H13Y20786   1.616   3.467   9.351 -0.8769  0.7817  0.4801
  181SLPC  C31420787   1.702   3.443   9.157 -0.0850  0.2167  0.5786
  181SLPC  H14X20788   1.777   3.490   9.091  1.1366 -1.1238  0.9679
  181SLPC  H14Y20789   1.604   3.423   9.106 -1.2685 -0.4237  2.9679
  181SLPC  C31520790   1.775   3.313   9.200 -0.3373 -0.3160  0.2533
  181SLPC  H15X20791   1.861   3.330   9.268 -1.1524  0.2656  1.1591
  181SLPC  H15Y20792   1.808   3.274   9.101 -0.0933  0.8041 -0.1156
  181SLPC  C31620793   1.677   3.208   9.259 -0.2140 -0.4384 -0.8271
  181SLPC  H16X20794   1.590   3.193   9.192  0.0585  0.4136 -1.3929
  181SLPC  H16Y20795   1.647   3.237   9.362  1.7692 -2.5070  0.4490
  181SLPC  C31720796   1.745   3.070   9.302  0.1942  0.7560 -0.0680
  181SLPC  H17X20797   1.715   3.039   9.404  1.0955  1.3731  0.3939
  181SLPC  H17Y20798   1.852   3.094   9.318  0.0079  1.6523 -0.0986
  181SLPC  C31820799   1.747   2.965   9.190 -0.4388  0.6706 -0.1241
  181SLPC  H18X20800   1.650   2.916   9.171 -0.3652  0.5976 -0.3161
  181SLPC  H18Y20801   1.821   2.891   9.229  0.1196  1.3257  0.0849
  181SLPC  H18Z20802   1.790   3.013   9.100  3.3707 -1.2572  0.4567
  182SLPC     N20803   4.737   5.393  10.953 -0.0752  0.3409 -0.0753
  182SLPC   C1320804   4.694   5.297  11.057  0.3752  0.7834 -0.2683
  182SLPC  H13A20805   4.699   5.349  11.152  3.7690  1.1947 -0.5476
  182SLPC  H13B20806   4.590   5.267  11.053  0.0252  1.1454  3.1214
  182SLPC  H13C20807   4.761   5.213  11.064  0.4125  0.8123 -0.2864
  182SLPC   C1420808   4.857   5.456  11.017  0.6251  0.1383  0.3323
  182SLPC  H14A20809   4.938   5.385  11.023  0.2009 -0.2851  1.2527
  182SLPC  H14B20810   4.889   5.541  10.960  0.0011 -0.2537 -0.6321
  182SLPC  H14C20811   4.832   5.491  11.116 -1.0928  0.4541 -0.1810
  182SLPC   C1520812   4.630   5.495  10.938 -0.0307 -0.8940  0.4201
  182SLPC  H15A20813   4.538   5.442  10.951  0.8303 -2.5223  0.1437
  182SLPC  H15B20814   4.628   5.579  11.006 -1.8159 -0.8508  0.3431
  182SLPC  H15C20815   4.625   5.543  10.842  0.6992  0.3034  0.9541
  182SLPC   C1220816   4.767   5.322  10.833 -0.0409  0.3781  0.8498
  182SLPC  H12A20817   4.681   5.269  10.797  0.2864  0.5742 -0.2569
  182SLPC  H12B20818   4.834   5.241  10.860 -0.6835 -0.3439  0.3123
  182SLPC   C1120819   4.828   5.394  10.708  0.3576 -0.4863 -0.0543
  182SLPC  H11A20820   4.769   5.487  10.694  0.7594 -0.3430 -0.8342
  182SLPC  H11B20821   4.821   5.332  10.616 -0.9553  1.8871 -1.6679
  182SLPC     P20822   5.018   5.546  10.636 -0.3904  0.2989 -0.3331
  182SLPC   O1320823   4.931   5.667  10.641  0.1535 -0.2300  0.2088
  182SLPC   O1420824   5.157   5.573  10.668  0.2489 -0.1356 -0.2494
  182SLPC   O1220825   4.960   5.441  10.740  0.0091 -0.3346 -0.5062
  182SLPC   O1120826   5.004   5.486  10.493 -0.4130  0.1985  0.1484
  182SLPC    C120827   5.083   5.380  10.442  0.3875 -0.4837 -0.6836
  182SLPC    HA20828   5.105   5.308  10.524 -0.2409 -0.3120 -0.3544
  182SLPC    HB20829   5.030   5.339  10.353 -0.3102 -2.3849  0.5493
  182SLPC    C220830   5.221   5.433  10.389  0.3277 -0.1197  0.5711
  182SLPC    HS20831   5.273   5.487  10.471 -1.4056 -0.7787  2.1812
  182SLPC   O2120832   5.197   5.509  10.267 -0.7152  0.0871 -0.4210
  182SLPC   C2120833   5.255   5.631  10.248 -0.2775  1.1642 -0.2756
  182SLPC   O2220834   5.315   5.696  10.335  0.3495  0.3291 -0.4365
  182SLPC   C2220835   5.216   5.677  10.100 -0.2012 -0.3379 -0.0116
  182SLPC   H2R20836   5.106   5.693  10.101 -0.0275  1.0310 -0.4719
  182SLPC   H2S20837   5.263   5.777  10.085  0.5239 -0.6685 -0.0018
  182SLPC    C320838   5.309   5.318  10.347  0.3509  0.3745  0.1551
  182SLPC    HX20839   5.344   5.256  10.432  2.5581 -2.5026 -2.6247
  182SLPC    HY20840   5.400   5.370  10.310 -1.0277  2.0515 -1.0725
  182SLPC   O3120841   5.242   5.230  10.254 -0.5946 -0.2012  0.3445
  182SLPC   C3120842   5.296   5.234  10.133 -0.1468  0.4025  0.6118
  182SLPC   O3220843   5.388   5.306  10.100 -0.3877 -0.7021  0.6556
  182SLPC   C3220844   5.231   5.120  10.050 -0.1818 -0.0663  0.6800
  182SLPC   H2X20845   5.133   5.095  10.097 -0.5500  1.1195  0.5867
  182SLPC   H2Y20846   5.296   5.030  10.044 -2.0122 -1.4836  0.9669
  182SLPC   C2320847   5.274   5.593   9.987  0.2118 -0.2916  0.2092
  182SLPC   H3R20848   5.238   5.491  10.010 -1.9687 -0.2136 -2.3281
  182SLPC   H3S20849   5.384   5.586   9.988  0.1683 -0.9433  0.5306
  182SLPC   C2420850   5.237   5.637   9.847  0.0087 -0.7256 -0.0994
  182SLPC   H4R20851   5.288   5.735   9.838 -1.8341  0.1806 -1.4069
  182SLPC   H4S20852   5.128   5.659   9.851  0.2428  0.5406 -0.1276
  182SLPC   C2520853   5.266   5.541   9.739  0.2780 -0.1207  0.1940
  182SLPC   H5R20854   5.201   5.451   9.748  1.1357 -0.6331  1.8334
  182SLPC   H5S20855   5.371   5.506   9.749  1.4686  3.4153  1.6995
  182SLPC   C2620856   5.265   5.602   9.606  0.2281 -0.2285  0.9315
  182SLPC   H6R20857   5.339   5.548   9.543 -0.4605  0.2840 -0.3430
  182SLPC   H6S20858   5.297   5.708   9.607 -1.5286  0.4206 -1.6511
  182SLPC   C2720859   5.121   5.600   9.551  0.4915 -0.2231  0.6338
  182SLPC   H7R20860   5.046   5.638   9.624 -0.4127 -2.5205  0.9937
  182SLPC   H7S20861   5.090   5.495   9.528  0.0553  0.2890 -1.3239
  182SLPC   C2820862   5.099   5.674   9.416 -1.1288  0.6546 -0.1575
  182SLPC   H8R20863   5.115   5.781   9.439 -1.7179  1.1151 -1.7674
  182SLPC   H8S20864   4.995   5.650   9.388 -1.0838 -0.1941  0.3530
  182SLPC   C2920865   5.211   5.639   9.320 -0.4344 -0.5218  0.6645
  182SLPC   H9R20866   5.311   5.662   9.361 -0.7911 -0.3851  1.4706
  182SLPC  C21020867   5.203   5.610   9.191 -0.1944  0.2343 -0.0477
  182SLPC  H10R20868   5.293   5.594   9.129  0.7472  2.5414  0.6267
  182SLPC  C21120869   5.077   5.596   9.110  0.0177 -0.6532  0.1148
  182SLPC  H11R20870   4.999   5.656   9.161  0.9198  0.4020  0.2957
  182SLPC  H11S20871   5.038   5.492   9.113 -1.3228 -0.1574  1.2772
  182SLPC  C21220872   5.107   5.637   8.966 -0.2822 -0.1529  0.3778
  182SLPC  H12R20873   5.161   5.564   8.903 -0.3593  0.5310 -0.4959
  182SLPC  C21320874   5.080   5.761   8.919 -0.3533  0.0276 -0.0323
  182SLPC  H13R20875   5.082   5.784   8.812  1.3835 -1.4358 -0.3615
  182SLPC  C21420876   5.011   5.885   8.995 -0.1764  0.0694 -0.1413
  182SLPC  H14R20877   5.015   5.867   9.105 -0.3163 -0.6537 -0.2492
  182SLPC  H14S20878   4.903   5.891   8.969 -0.4226  0.1273  0.8432
  182SLPC  C21520879   5.085   6.017   8.973 -0.2912  0.0553  0.6927
  182SLPC  H15R20880   5.019   6.094   8.926 -0.0950  0.4569  1.0723
  182SLPC  H15S20881   5.175   5.995   8.912 -0.9574 -0.2203 -0.2169
  182SLPC  C21620882   5.147   6.087   9.096 -0.1804  0.3296  0.5015
  182SLPC  H16R20883   5.073   6.108   9.176 -0.7669  0.0810  0.0378
  182SLPC  H16S20884   5.196   6.183   9.070  0.2691  0.2345  0.9902
  182SLPC  C21720885   5.257   6.007   9.171  0.7418 -0.0353 -0.1057
  182SLPC  H17R20886   5.348   5.984   9.111  0.9935 -0.2560  0.3537
  182SLPC  H17S20887   5.210   5.911   9.202  0.4239 -0.3380 -1.4657
  182SLPC  C21820888   5.308   6.068   9.301 -0.3636 -0.0907  0.1182
  182SLPC  H18R20889   5.364   5.990   9.356 -1.0425 -0.7683 -0.1414
  182SLPC  H18S20890   5.220   6.098   9.361  0.1268  0.1267  0.7367
  182SLPC  H18T20891   5.376   6.154   9.283 -0.1646  0.2564  2.2348
  182SLPC   C3320892   5.197   5.169   9.906  0.0538  0.6942 -0.0600
  182SLPC   H3X20893   5.136   5.261   9.908 -3.6097 -1.5054 -0.9048
  182SLPC   H3Y20894   5.129   5.095   9.857  2.0968 -1.3828  0.0629
  182SLPC   C3420895   5.329   5.182   9.825  0.0338  0.7276 -0.1148
  182SLPC   H4X20896   5.398   5.097   9.845  0.2192  0.1497 -2.8688
  182SLPC   H4Y20897   5.370   5.279   9.858  1.0353  0.0689  0.6138
  182SLPC   C3520898   5.311   5.183   9.674 -0.2041  0.5047 -0.1271
  182SLPC   H5X20899   5.385   5.247   9.623 -0.7885 -0.7100 -2.6396
  182SLPC   H5Y20900   5.209   5.226   9.659 -0.9006 -0.3651  1.7588
  182SLPC   C3620901   5.317   5.042   9.615  0.0109  0.4207 -0.0116
  182SLPC   H6X20902   5.251   4.965   9.659  1.9401 -1.3406 -0.0222
  182SLPC   H6Y20903   5.418   5.002   9.639  0.4077  0.8911 -0.8543
  182SLPC   C3720904   5.301   5.044   9.465 -0.1645 -0.0969  0.5980
  182SLPC   H7X20905   5.381   5.110   9.427 -0.0643 -1.0941 -1.0147
  182SLPC   H7Y20906   5.217   5.109   9.433  0.0813 -0.2201 -0.3194
  182SLPC   C3820907   5.307   4.912   9.391  0.1579 -0.4502 -0.9794
  182SLPC   H8X20908   5.213   4.855   9.402 -0.9749  1.5738  0.4775
  182SLPC   H8Y20909   5.388   4.849   9.433 -0.9550 -0.9416  0.5133
  182SLPC   C3920910   5.331   4.930   9.238  0.0340 -0.6926  0.0156
  182SLPC   H9X20911   5.306   4.829   9.201  0.9381  0.1342 -3.2061
  182SLPC   H9Y20912   5.440   4.943   9.218  0.5987 -4.6021 -0.1608
  182SLPC  C31020913   5.241   5.032   9.165 -0.0863  0.0333  0.6808
  182SLPC  H10X20914   5.276   5.136   9.177  0.3318  0.4411 -2.8435
  182SLPC  H10Y20915   5.144   5.025   9.219  0.0255 -1.1071  0.7612
  182SLPC  C31120916   5.219   5.015   9.018 -0.2286  0.4609  0.3870
  182SLPC  H11X20917   5.316   5.003   8.967 -0.3734  0.7582  0.0368
  182SLPC  H11Y20918   5.174   5.111   8.985  1.7389  1.0265 -0.7963
  182SLPC  C31220919   5.124   4.900   8.990  0.7567 -0.6804 -0.2912
  182SLPC  H12X20920   5.039   4.916   9.060  1.8036  2.1460  0.4652
  182SLPC  H12Y20921   5.176   4.805   9.013  0.9103 -0.8534 -1.2967
  182SLPC  C31320922   5.074   4.878   8.844  0.3288  0.2231 -0.7906
  182SLPC  H13X20923   5.005   4.791   8.839 -0.1291  0.3076  2.3131
  182SLPC  H13Y20924   5.163   4.868   8.778  1.5724 -1.7621  1.0494
  182SLPC  C31420925   5.002   5.010   8.804  0.5846  0.5395 -0.8565
  182SLPC  H14X20926   5.082   5.087   8.815  0.9734 -0.1699  1.9986
  182SLPC  H14Y20927   4.924   5.033   8.880  1.3610  1.4153 -0.3030
  182SLPC  C31520928   4.927   5.015   8.668 -0.0138  0.1176 -0.7370
  182SLPC  H15X20929   4.875   4.917   8.655  2.5432 -1.7346  1.6670
  182SLPC  H15Y20930   4.993   5.033   8.581 -1.4433  0.3500 -1.8073
  182SLPC  C31620931   4.834   5.136   8.668  0.0330 -0.6161  0.1481
  182SLPC  H16X20932   4.890   5.226   8.701 -0.7725  0.3237 -0.9381
  182SLPC  H16Y20933   4.746   5.123   8.734 -0.1776 -0.0694 -0.0146
  182SLPC  C31720934   4.789   5.174   8.528 -0.2700  0.4259  1.0634
  182SLPC  H17X20935   4.875   5.190   8.459 -1.9227  1.2915 -0.8967
  182SLPC  H17Y20936   4.719   5.260   8.532 -3.6374 -1.9829 -0.4074
  182SLPC  C31820937   4.704   5.063   8.473  0.0114 -0.3135 -0.0853
  182SLPC  H18X20938   4.630   5.041   8.553 -2.2760  0.7422 -1.7948
  182SLPC  H18Y20939   4.773   4.980   8.449  2.4985  1.8002 -0.6088
  182SLPC  H18Z20940   4.630   5.105   8.401 -2.2691 -0.5745  1.9730
  183SLPC     N20941   6.451   5.220  10.837  0.1287 -0.9465 -0.0641
  183SLPC   C1320942   6.550   5.129  10.770 -0.6497 -0.0146 -0.1518
  183SLPC  H13A20943   6.537   5.028  10.806  1.1506 -0.2122  0.0093
  183SLPC  H13B20944   6.546   5.141  10.663  0.2251  1.6086 -0.0412
  183SLPC  H13C20945   6.652   5.144  10.802  0.0003 -1.7142 -1.3396
  183SLPC   C1420946   6.493   5.368  10.822 -0.2179  0.3397 -0.2988
  183SLPC  H14A20947   6.592   5.384  10.862 -0.5646  1.1643  0.2590
  183SLPC  H14B20948   6.493   5.383  10.715  0.3919 -0.3340 -0.4074
  183SLPC  H14C20949   6.422   5.436  10.866  2.6247  3.8495 -0.7122
  183SLPC   C1520950   6.456   5.194  10.991 -0.0920  0.2750  0.3782
  183SLPC  H15A20951   6.432   5.090  11.006 -0.4684  0.4630  1.0854
  183SLPC  H15B20952   6.560   5.202  11.018  0.6732 -1.2349 -1.7737
  183SLPC  H15C20953   6.401   5.266  11.048  0.4340 -0.6363  2.1178
  183SLPC   C1220954   6.312   5.203  10.783  0.3269 -0.4469 -0.4710
  183SLPC  H12A20955   6.308   5.218  10.676 -0.3687 -1.3984 -0.5903
  183SLPC  H12B20956   6.237   5.271  10.821  0.2195 -1.4160  1.1553
  183SLPC   C1120957   6.255   5.054  10.793 -0.4402  0.3084  0.5802
  183SLPC  H11A20958   6.144   5.059  10.794 -0.5368 -1.0658 -1.0290
  183SLPC  H11B20959   6.277   5.010  10.893 -0.9572  0.3659  0.7265
  183SLPC     P20960   6.228   4.981  10.555 -0.5441  0.1097  0.3064
  183SLPC   O1320961   6.296   4.909  10.445  0.0626 -0.6527  0.4358
  183SLPC   O1420962   6.088   4.937  10.572 -0.1361 -0.3451  0.2339
  183SLPC   O1220963   6.307   4.974  10.689  0.6107 -0.1375 -0.1907
  183SLPC   O1120964   6.229   5.136  10.524  0.2271 -0.3185  0.0590
  183SLPC    C120965   6.323   5.208  10.446 -0.5353  0.1791 -0.0591
  183SLPC    HA20966   6.323   5.313  10.484 -0.2973  0.6352 -1.2700
  183SLPC    HB20967   6.424   5.163  10.456 -1.8065 -3.2404 -1.3370
  183SLPC    C220968   6.292   5.213  10.293 -0.2537 -0.5597 -0.0168
  183SLPC    HS20969   6.323   5.112  10.261 -0.8681 -0.4785 -0.9077
  183SLPC   O2120970   6.388   5.308  10.236 -0.4287 -0.6861 -0.4441
  183SLPC   C2120971   6.517   5.277  10.231 -0.1147 -0.1187  0.0409
  183SLPC   O2220972   6.559   5.165  10.265 -0.3152 -0.0123  0.1035
  183SLPC   C2220973   6.601   5.395  10.169  0.6335 -0.7451  0.3544
  183SLPC   H2R20974   6.534   5.472  10.128 -1.1609 -1.0277  2.5772
  183SLPC   H2S20975   6.662   5.428  10.256 -1.7004  0.3385  1.6659
  183SLPC    C320976   6.144   5.246  10.266 -0.4496 -0.1125  0.3383
  183SLPC    HX20977   6.128   5.349  10.305  2.3581  0.5275  0.0298
  183SLPC    HY20978   6.085   5.171  10.323  1.1063  0.3596  2.7444
  183SLPC   O3120979   6.110   5.231  10.126 -0.0954  0.2804 -0.6383
  183SLPC   C3120980   6.138   5.344  10.057 -0.0552  0.0196 -0.3758
  183SLPC   O3220981   6.162   5.455  10.107  0.5009  0.0724  0.8752
  183SLPC   C3220982   6.138   5.307   9.908 -0.1963  0.1437 -0.2222
  183SLPC   H2X20983   6.035   5.293   9.869 -0.4847 -3.3977  1.4184
  183SLPC   H2Y20984   6.176   5.204   9.895 -1.8713 -0.8994  2.3216
  183SLPC   C2320985   6.700   5.356  10.061 -0.2924 -0.4294  0.1174
  183SLPC   H3R20986   6.759   5.272  10.104  1.4363  1.3167  1.3092
  183SLPC   H3S20987   6.777   5.434  10.043  0.1921 -1.2376 -1.5041
  183SLPC   C2420988   6.630   5.325   9.932 -0.1202  0.3724 -0.4261
  183SLPC   H4R20989   6.571   5.417   9.909  1.3965  0.8869 -2.5576
  183SLPC   H4S20990   6.553   5.245   9.932  0.4907 -0.2455 -1.4103
  183SLPC   C2520991   6.719   5.293   9.809  0.5123 -0.5122 -0.3678
  183SLPC   H5R20992   6.756   5.191   9.835 -0.5206 -0.2206  2.6738
  183SLPC   H5S20993   6.807   5.360   9.812  0.0949  0.0308 -0.0275
  183SLPC   C2620994   6.646   5.295   9.676 -0.5348  0.3524 -1.0271
  183SLPC   H6R20995   6.550   5.242   9.682 -0.6983  0.6698 -0.7941
  183SLPC   H6S20996   6.719   5.247   9.606  2.7009 -3.4288  4.2256
  183SLPC   C2720997   6.612   5.444   9.631 -0.7637  0.6599 -0.2469
  183SLPC   H7R20998   6.689   5.512   9.673  0.0500  0.3828 -1.2683
  183SLPC   H7S20999   6.515   5.451   9.685 -2.8580 -2.9409 -3.0510
  183SLPC   C2821000   6.597   5.470   9.482  0.9546 -0.4434 -0.2195
  183SLPC   H8R21001   6.699   5.453   9.440  0.5914 -1.0747 -0.8672
  183SLPC   H8S21002   6.574   5.579   9.483  3.1312  0.0575  0.3153
  183SLPC   C2921003   6.493   5.388   9.418 -0.0042  0.1083 -0.1180
  183SLPC   H9R21004   6.417   5.351   9.488 -0.4027 -0.8479 -1.0205
  183SLPC  C21021005   6.478   5.366   9.288  0.4066  1.2488 -0.2104
  183SLPC  H10R21006   6.400   5.290   9.267  0.9467  0.3387  0.9532
  183SLPC  C21121007   6.575   5.407   9.176 -0.1299 -0.2124  0.3824
  183SLPC  H11R21008   6.589   5.331   9.096  3.1639  0.3116  0.2861
  183SLPC  H11S21009   6.679   5.401   9.215  0.4638  0.4941 -0.9780
  183SLPC  C21221010   6.555   5.548   9.128  1.3633  0.1017  0.4370
  183SLPC  H12R21011   6.527   5.625   9.200 -0.7731 -0.3866  0.1853
  183SLPC  C21321012   6.568   5.587   9.000  0.3143 -0.0529 -0.0745
  183SLPC  H13R21013   6.560   5.693   8.976  1.3921  0.0292 -0.1375
  183SLPC  C21421014   6.616   5.502   8.893 -0.4190 -0.2823  0.1670
  183SLPC  H14R21015   6.531   5.445   8.852  0.0126 -1.8146  1.3078
  183SLPC  H14S21016   6.693   5.431   8.931  0.2677 -0.3311 -1.2514
  183SLPC  C21521017   6.687   5.589   8.782 -0.6912 -0.4695  0.1641
  183SLPC  H15R21018   6.749   5.512   8.732  0.1774 -0.6055  1.4025
  183SLPC  H15S21019   6.758   5.664   8.822  1.7056 -2.6073  0.2126
  183SLPC  C21621020   6.600   5.650   8.670 -0.2348 -0.5019 -0.5905
  183SLPC  H16R21021   6.512   5.706   8.708 -0.1761  0.2036 -1.4926
  183SLPC  H16S21022   6.564   5.576   8.596  0.2722 -0.0278 -1.3224
  183SLPC  C21721023   6.703   5.744   8.606 -0.6946  0.0712  0.1115
  183SLPC  H17R21024   6.780   5.677   8.562  1.8363  3.5498 -1.1697
  183SLPC  H17S21025   6.751   5.808   8.682 -0.7415  0.2582 -0.0172
  183SLPC  C21821026   6.651   5.830   8.500 -0.4265  0.2560  0.8291
  183SLPC  H18R21027   6.597   5.772   8.423  1.1485  0.3216 -0.3855
  183SLPC  H18S21028   6.733   5.889   8.453  0.5040  0.0176  2.0953
  183SLPC  H18T21029   6.585   5.909   8.542 -0.9614  0.4669 -0.3695
  183SLPC   C3321030   6.211   5.410   9.817 -0.2197 -0.3043 -0.2732
  183SLPC   H3X21031   6.239   5.347   9.729  1.5519 -2.8370  1.9280
  183SLPC   H3Y21032   6.299   5.448   9.872 -1.4886 -0.7834  2.1943
  183SLPC   C3421033   6.122   5.516   9.752 -0.3622  0.3228  0.0844
  183SLPC   H4X21034   6.060   5.571   9.827  1.3016  0.5933  1.3077
  183SLPC   H4Y21035   6.055   5.474   9.674 -0.4886  1.3497 -0.3785
  183SLPC   C3521036   6.213   5.626   9.684  0.0199 -0.2631  0.3409
  183SLPC   H5X21037   6.270   5.569   9.608  1.9968 -0.3308  1.7906
  183SLPC   H5Y21038   6.282   5.672   9.758 -1.8673  0.7760  1.5501
  183SLPC   C3621039   6.122   5.731   9.617  0.1150 -0.6864  0.0996
  183SLPC   H6X21040   6.191   5.813   9.589  0.6218 -0.6634  1.3420
  183SLPC   H6Y21041   6.061   5.778   9.697 -0.6703  0.0703 -0.9135
  183SLPC   C3721042   6.035   5.672   9.497 -0.9752  0.1522  0.9487
  183SLPC   H7X21043   5.980   5.757   9.452  0.7233 -0.3116 -2.3375
  183SLPC   H7Y21044   5.958   5.602   9.536  0.8540 -0.7158  3.2523
  183SLPC   C3821045   6.100   5.610   9.375 -0.1152 -0.0434  0.5708
  183SLPC   H8X21046   6.205   5.576   9.391 -0.4222 -1.6419 -0.5247
  183SLPC   H8Y21047   6.102   5.693   9.301 -2.7367 -0.8535 -0.4929
  183SLPC   C3921048   6.025   5.489   9.318  0.3035  0.2835  0.3053
  183SLPC   H9X21049   5.916   5.511   9.319  0.3438  0.5000  1.4636
  183SLPC   H9Y21050   6.039   5.401   9.385 -1.9999 -0.3995 -0.0236
  183SLPC  C31021051   6.066   5.456   9.175  0.0111 -0.6566  0.4483
  183SLPC  H10X21052   6.052   5.346   9.171  0.8730 -0.7401 -1.5792
  183SLPC  H10Y21053   6.172   5.469   9.142  0.7484 -1.1275  2.5052
  183SLPC  C31121054   5.971   5.507   9.063  0.5246 -0.6689  0.1305
  183SLPC  H11X21055   5.957   5.617   9.064  1.5817 -0.5238  0.6025
  183SLPC  H11Y21056   5.866   5.475   9.077 -0.6138  1.9788 -1.6370
  183SLPC  C31221057   6.012   5.449   8.930 -0.1815  0.7237  0.2932
  183SLPC  H12X21058   6.122   5.458   8.921 -0.3078  1.5734 -0.5794
  183SLPC  H12Y21059   5.973   5.521   8.855 -0.7590  2.0286  1.7935
  183SLPC  C31321060   5.940   5.309   8.897 -0.1886 -0.1314 -0.6057
  183SLPC  H13X21061   5.834   5.314   8.929 -0.9895 -3.5491 -2.2607
  183SLPC  H13Y21062   5.976   5.229   8.965 -0.3678  0.6129  0.3804
  183SLPC  C31421063   5.945   5.273   8.750 -0.2729 -0.1630  0.3767
  183SLPC  H14X21064   5.956   5.369   8.696 -2.0098  0.3726  0.8878
  183SLPC  H14Y21065   5.849   5.226   8.720  0.4355 -0.8797 -0.8434
  183SLPC  C31521066   6.074   5.193   8.706  0.4556 -0.4010 -0.1418
  183SLPC  H15X21067   6.096   5.125   8.791 -0.1952 -0.3941  0.0347
  183SLPC  H15Y21068   6.151   5.271   8.723  0.0439 -0.3329  1.5987
  183SLPC  C31621069   6.063   5.118   8.569  0.4563  0.7528 -0.2813
  183SLPC  H16X21070   6.000   5.027   8.578  1.3624 -0.1358 -2.4523
  183SLPC  H16Y21071   6.168   5.093   8.544 -0.1402 -0.1282 -2.0704
  183SLPC  C31721072   6.004   5.211   8.463 -0.1766  0.3932  0.5428
  183SLPC  H17X21073   6.062   5.305   8.456  0.0444  0.2078 -0.2628
  183SLPC  H17Y21074   5.901   5.247   8.483  0.4700  1.8045  1.4508
  183SLPC  C31821075   5.998   5.147   8.324 -0.1620 -0.2519 -0.1185
  183SLPC  H18X21076   6.092   5.097   8.292 -0.4415  0.1278 -1.6374
  183SLPC  H18Y21077   5.970   5.232   8.258  0.6440  2.1296  2.4139
  183SLPC  H18Z21078   5.918   5.071   8.317  0.3846 -0.9081  0.5741
  184SLPC     N21079   3.382   2.420  10.970 -0.3286 -0.5267  0.5300
  184SLPC   C1321080   3.327   2.299  10.901 -0.0207  0.5322 -0.7895
  184SLPC  H13A21081   3.359   2.209  10.951 -1.6608  0.1049 -0.4519
  184SLPC  H13B21082   3.220   2.288  10.896 -0.1326  1.3816 -0.3724
  184SLPC  H13C21083   3.351   2.298  10.795 -0.4492 -0.1677 -0.8823
  184SLPC   C1421084   3.522   2.381  11.006 -0.1087  0.0907  0.5904
  184SLPC  H14A21085   3.580   2.454  11.059  1.3068 -1.6543  1.5615
  184SLPC  H14B21086   3.528   2.292  11.067 -3.2612 -0.4723  0.2878
  184SLPC  H14C21087   3.577   2.361  10.916  1.7019 -1.5456  1.9613
  184SLPC   C1521088   3.297   2.447  11.094  0.5769 -0.2119  0.5802
  184SLPC  H15A21089   3.313   2.378  11.176 -0.6901  1.2329  2.1146
  184SLPC  H15B21090   3.342   2.533  11.141 -0.1840  0.3119  0.3727
  184SLPC  H15C21091   3.191   2.460  11.081  0.7951 -0.8639 -2.6981
  184SLPC   C1221092   3.382   2.539  10.871  0.0692 -0.1504 -0.1381
  184SLPC  H12A21093   3.429   2.623  10.920  1.9093 -0.7494 -0.7803
  184SLPC  H12B21094   3.280   2.562  10.842 -0.2270  0.7548  1.4715
  184SLPC   C1121095   3.471   2.523  10.736  0.2895  0.8644 -0.5283
  184SLPC  H11A21096   3.466   2.611  10.668 -0.9394  0.5360 -0.8898
  184SLPC  H11B21097   3.416   2.437  10.691 -0.0145  0.4485  0.6085
  184SLPC     P21098   3.700   2.614  10.799 -0.1011  0.4453  0.3971
  184SLPC   O1321099   3.636   2.691  10.909  0.1923  0.1747  0.4655
  184SLPC   O1421100   3.836   2.557  10.824  0.3807 -0.5467 -0.3018
  184SLPC   O1221101   3.609   2.496  10.757  0.2455  0.2735 -0.2440
  184SLPC   O1121102   3.706   2.708  10.667 -0.2434 -0.6647 -0.5584
  184SLPC    C121103   3.776   2.685  10.540  0.2847  0.5521  0.1031
  184SLPC    HA21104   3.871   2.743  10.540  0.3654  0.4960  1.9396
  184SLPC    HB21105   3.794   2.575  10.534  0.1978  0.6106 -1.5641
  184SLPC    C221106   3.691   2.726  10.414 -0.1280  0.2299  0.5048
  184SLPC    HS21107   3.661   2.833  10.419 -0.2346  0.2569 -0.5620
  184SLPC   O2121108   3.571   2.642  10.404 -0.5722 -0.4837  0.0553
  184SLPC   C2121109   3.461   2.707  10.364  0.1248 -0.5621  0.4614
  184SLPC   O2221110   3.459   2.826  10.330 -0.5183  0.5002 -0.1118
  184SLPC   C2221111   3.345   2.623  10.370  0.1999  0.1986  0.7135
  184SLPC   H2R21112   3.362   2.557  10.458 -2.6700  1.9964  2.8166
  184SLPC   H2S21113   3.255   2.687  10.380 -1.1305 -1.2540 -1.2904
  184SLPC    C321114   3.770   2.712  10.280 -0.1414  0.6120  0.5544
  184SLPC    HX21115   3.787   2.602  10.277  0.0070  0.5739  1.8435
  184SLPC    HY21116   3.867   2.765  10.275  0.4865 -0.6501 -1.8394
  184SLPC   O3121117   3.683   2.737  10.161 -0.7050  0.2308 -0.2385
  184SLPC   C3121118   3.678   2.857  10.108  0.0129 -0.0931  0.3815
  184SLPC   O3221119   3.739   2.958  10.138 -0.3846 -0.4820 -0.0801
  184SLPC   C3221120   3.572   2.857  10.000 -0.0534  0.4720  0.1648
  184SLPC   H2X21121   3.473   2.836  10.046 -0.4135 -0.3699 -0.9510
  184SLPC   H2Y21122   3.602   2.786   9.921 -1.9718  0.5195 -0.6643
  184SLPC   C2321123   3.335   2.539  10.241  0.4326  0.8028 -0.3559
  184SLPC   H3R21124   3.260   2.459  10.255  0.9089  0.1703 -1.3075
  184SLPC   H3S21125   3.427   2.481  10.216 -0.0640 -0.2155  0.1167
  184SLPC   C2421126   3.276   2.611  10.120  0.4117  0.4144  0.4877
  184SLPC   H4R21127   3.338   2.701  10.104  0.5546 -0.1280 -2.5538
  184SLPC   H4S21128   3.168   2.637  10.124  0.2123  0.0392 -1.5091
  184SLPC   C2521129   3.285   2.521  10.001  0.8522  0.0800 -0.2593
  184SLPC   H5R21130   3.221   2.432  10.014 -0.5762  0.8817 -1.5421
  184SLPC   H5S21131   3.391   2.487  10.002  0.3423 -1.7661  2.0923
  184SLPC   C2621132   3.280   2.598   9.871 -0.0998  0.0649  0.4685
  184SLPC   H6R21133   3.349   2.685   9.868 -0.2051  0.1400 -1.7405
  184SLPC   H6S21134   3.179   2.640   9.848 -0.7777 -1.5603  0.3886
  184SLPC   C2721135   3.300   2.506   9.744 -0.6095  0.2409 -0.2966
  184SLPC   H7R21136   3.257   2.407   9.771 -0.1300  0.2838  0.6462
  184SLPC   H7S21137   3.409   2.489   9.733 -0.2889  1.2988  0.9648
  184SLPC   C2821138   3.231   2.568   9.623  0.1714  0.4762 -0.1415
  184SLPC   H8R21139   3.122   2.584   9.640  0.6364  0.5917  3.3164
  184SLPC   H8S21140   3.228   2.486   9.548 -1.9780 -0.9035  1.3437
  184SLPC   C2921141   3.291   2.692   9.556  0.7404 -0.2792 -0.3080
  184SLPC   H9R21142   3.302   2.774   9.628 -0.9147 -0.1302 -0.1741
  184SLPC  C21021143   3.306   2.730   9.424  0.2086  0.7888 -0.3484
  184SLPC  H10R21144   3.349   2.828   9.398 -0.3000  0.9422 -0.6241
  184SLPC  C21121145   3.270   2.649   9.304  0.3454  0.4399 -0.7094
  184SLPC  H11R21146   3.207   2.702   9.230  0.9285  1.4885 -0.4741
  184SLPC  H11S21147   3.195   2.577   9.342  0.1894  1.0732  0.2106
  184SLPC  C21221148   3.380   2.559   9.246 -0.5910 -0.4183  0.2976
  184SLPC  H12R21149   3.480   2.580   9.284 -0.3768 -0.9533  0.0461
  184SLPC  C21321150   3.353   2.478   9.148 -0.2376  0.5615  0.2624
  184SLPC  H13R21151   3.433   2.413   9.112 -1.2154 -0.3536 -0.3040
  184SLPC  C21421152   3.215   2.463   9.083  0.1988  0.0332  0.5495
  184SLPC  H14R21153   3.138   2.535   9.118  0.7443  0.3592  1.0893
  184SLPC  H14S21154   3.178   2.361   9.108  1.0835 -0.2674  0.6478
  184SLPC  C21521155   3.227   2.483   8.927 -0.5250  0.4387  0.1830
  184SLPC  H15R21156   3.133   2.466   8.871  0.6376 -3.1352 -0.9280
  184SLPC  H15S21157   3.290   2.403   8.884 -1.6364  0.6430 -1.9367
  184SLPC  C21621158   3.287   2.619   8.886 -0.4952 -0.0443  0.4824
  184SLPC  H16R21159   3.383   2.644   8.936  0.4007 -0.9159 -0.7407
  184SLPC  H16S21160   3.206   2.690   8.915  0.2646 -0.5557  4.3874
  184SLPC  C21721161   3.315   2.627   8.732  0.6329  0.3623  1.0892
  184SLPC  H17R21162   3.214   2.618   8.686  1.1648 -0.1237 -0.0132
  184SLPC  H17S21163   3.377   2.540   8.702  0.8796  0.8931 -0.0094
  184SLPC  C21821164   3.372   2.751   8.670  0.1973 -0.6887 -1.1309
  184SLPC  H18R21165   3.480   2.755   8.698  0.2670 -0.1112 -1.4531
  184SLPC  H18S21166   3.333   2.843   8.719  1.2399 -0.9644  0.2897
  184SLPC  H18T21167   3.365   2.755   8.559 -1.1019 -3.0902 -1.2015
  184SLPC   C3321168   3.560   2.994   9.922 -0.1565 -0.2205  0.4177
  184SLPC   H3X21169   3.653   3.017   9.866 -0.0439  0.8991  1.0379
  184SLPC   H3Y21170   3.535   3.066  10.002 -0.2909  2.2281 -1.6899
  184SLPC   C3421171   3.450   2.994   9.809 -1.0464  0.4396 -0.3907
  184SLPC   H4X21172   3.348   2.983   9.854 -0.7418 -2.8872 -0.2570
  184SLPC   H4Y21173   3.470   2.900   9.753 -0.1834  1.0984 -1.2075
  184SLPC   C3521174   3.454   3.113   9.713 -0.0062  0.3102 -0.5137
  184SLPC   H5X21175   3.561   3.112   9.680  0.5671 -3.9007  0.8339
  184SLPC   H5Y21176   3.419   3.197   9.776  0.0840 -0.9651  1.3281
  184SLPC   C3621177   3.362   3.087   9.594 -0.3335 -0.5736 -0.4777
  184SLPC   H6X21178   3.264   3.066   9.642 -0.4465  2.3095  0.7591
  184SLPC   H6Y21179   3.384   2.996   9.535 -1.1219 -2.5666  2.0746
  184SLPC   C3721180   3.347   3.211   9.503  0.0161 -0.0096  0.0732
  184SLPC   H7X21181   3.446   3.254   9.476 -1.1158  1.0728 -2.7905
  184SLPC   H7Y21182   3.298   3.300   9.550 -1.7536 -0.7372 -0.3315
  184SLPC   C3821183   3.283   3.171   9.374 -0.7769  0.1341  0.2299
  184SLPC   H8X21184   3.185   3.124   9.392 -0.1360 -1.2808  0.1048
  184SLPC   H8Y21185   3.339   3.102   9.307 -0.9423  1.9214 -1.8724
  184SLPC   C3921186   3.254   3.285   9.268  0.5272 -0.7530  0.3613
  184SLPC   H9X21187   3.349   3.341   9.259 -0.3157  0.7014  0.2813
  184SLPC   H9Y21188   3.173   3.337   9.324 -1.3356 -0.7959 -2.0956
  184SLPC  C31021189   3.200   3.237   9.131 -0.2353 -0.1244  0.2556
  184SLPC  H10X21190   3.111   3.177   9.159  0.6498 -0.6389  2.1549
  184SLPC  H10Y21191   3.277   3.177   9.076  2.0536  3.4475 -0.7756
  184SLPC  C31121192   3.169   3.355   9.033 -0.0425  0.0422  0.0242
  184SLPC  H11X21193   3.267   3.403   9.012 -0.4131  0.7267 -0.1833
  184SLPC  H11Y21194   3.109   3.436   9.081 -0.1126 -1.3154  2.3973
  184SLPC  C31221195   3.107   3.308   8.902  0.3494 -0.2994  0.3704
  184SLPC  H12X21196   3.039   3.227   8.935  0.3679 -0.1704  0.7291
  184SLPC  H12Y21197   3.193   3.263   8.849  2.2936  2.4215  0.9640
  184SLPC  C31321198   3.042   3.409   8.817 -0.1892 -0.2236  0.8600
  184SLPC  H13X21199   3.108   3.462   8.745 -0.7346  1.6409  1.6671
  184SLPC  H13Y21200   3.011   3.494   8.882  1.9794  3.5370 -2.5615
  184SLPC  C31421201   2.927   3.345   8.746  0.1937  0.3337  0.3991
  184SLPC  H14X21202   2.866   3.283   8.816 -0.2690  2.1001  1.6379
  184SLPC  H14Y21203   2.961   3.281   8.662  1.1824  0.7766  0.4519
  184SLPC  C31521204   2.828   3.439   8.680  0.1401 -0.3327  0.4814
  184SLPC  H15X21205   2.884   3.501   8.606  1.3422 -0.9012  0.8908
  184SLPC  H15Y21206   2.787   3.509   8.756 -1.7122 -2.2005  1.3208
  184SLPC  C31621207   2.707   3.380   8.619  0.4038  0.1067 -0.1815
  184SLPC  H16X21208   2.734   3.288   8.562  0.3451  1.2322 -2.1115
  184SLPC  H16Y21209   2.650   3.441   8.545 -1.8195 -1.7762 -0.1309
  184SLPC  C31721210   2.601   3.338   8.718  0.3357 -0.3610 -0.2506
  184SLPC  H17X21211   2.548   3.421   8.769  0.4159 -1.2383  1.3380
  184SLPC  H17Y21212   2.650   3.276   8.796  2.6334  0.1963 -1.1771
  184SLPC  C31821213   2.511   3.234   8.654  1.3801  0.3890  0.1821
  184SLPC  H18X21214   2.418   3.214   8.713 -1.0727  2.2668 -2.7295
  184SLPC  H18Y21215   2.568   3.140   8.638  2.8866  1.4459 -0.8561
  184SLPC  H18Z21216   2.472   3.270   8.557 -0.8385  1.1079  1.2664
  185SLPC     N21217   2.019   4.408   6.422  0.0355  0.9270  0.2317
  185SLPC   C1321218   2.167   4.402   6.449  0.4576 -0.6104 -0.2395
  185SLPC  H13A21219   2.183   4.313   6.509  1.1266 -1.4465 -1.6186
  185SLPC  H13B21220   2.207   4.394   6.349 -0.8289 -2.9723 -0.6405
  185SLPC  H13C21221   2.195   4.491   6.504 -0.1678 -0.0252 -0.8439
  185SLPC   C1421222   1.997   4.514   6.317 -0.2644 -0.7432  0.0006
  185SLPC  H14A21223   2.052   4.492   6.226 -1.8829  2.7962 -2.0527
  185SLPC  H14B21224   1.893   4.539   6.299  0.9445  5.1832 -0.8069
  185SLPC  H14C21225   2.043   4.605   6.352  0.1568 -0.4248 -1.3236
  185SLPC   C1521226   1.947   4.446   6.544  0.1337 -0.7249  0.0238
  185SLPC  H15A21227   1.840   4.456   6.533  0.3511 -0.9608 -3.1015
  185SLPC  H15B21228   1.968   4.378   6.625  1.5233 -2.2434 -1.5442
  185SLPC  H15C21229   1.984   4.546   6.562 -0.7784 -0.0819 -1.4577
  185SLPC   C1221230   1.973   4.273   6.373 -0.4469 -1.0434  0.2910
  185SLPC  H12A21231   2.032   4.244   6.287  0.1249 -1.2113  0.7273
  185SLPC  H12B21232   1.870   4.283   6.344 -0.7124 -0.4308  1.3992
  185SLPC   C1121233   1.997   4.158   6.473 -0.4737 -0.1341 -0.7196
  185SLPC  H11A21234   1.927   4.184   6.555  1.2257  1.7608  0.2077
  185SLPC  H11B21235   2.103   4.158   6.505 -0.9803 -0.7656  1.0384
  185SLPC     P21236   2.038   3.894   6.418 -0.0774  0.3048  0.2363
  185SLPC   O1321237   1.983   3.788   6.320 -0.7123 -0.5948 -0.6941
  185SLPC   O1421238   2.181   3.927   6.400  0.3544 -0.0620  0.0076
  185SLPC   O1221239   1.955   4.034   6.415 -0.2708 -0.1239  0.1319
  185SLPC   O1121240   2.022   3.836   6.565  0.5064  0.5131 -0.3877
  185SLPC    C121241   1.943   3.897   6.669 -0.0312 -0.5701  0.3162
  185SLPC    HA21242   1.922   4.006   6.665 -2.9778 -1.0789 -0.9727
  185SLPC    HB21243   1.842   3.849   6.664  0.1928 -0.9344 -1.5015
  185SLPC    C221244   1.997   3.873   6.811  0.5132 -0.7706  0.6021
  185SLPC    HS21245   2.092   3.932   6.811 -0.2876  0.7535 -2.6049
  185SLPC   O2121246   2.021   3.728   6.825  0.6756  0.1161 -0.0231
  185SLPC   C2121247   2.148   3.692   6.845  0.9358 -0.2098 -0.0050
  185SLPC   O2221248   2.246   3.760   6.868 -0.3896  0.0877 -0.8552
  185SLPC   C2221249   2.163   3.541   6.821 -0.0598  0.0451 -0.1032
  185SLPC   H2R21250   2.075   3.515   6.759 -1.0107  0.0073  1.2162
  185SLPC   H2S21251   2.256   3.534   6.761 -0.4276  1.4665 -0.8967
  185SLPC    C321252   1.907   3.933   6.919 -0.1000  0.0285 -0.1291
  185SLPC    HX21253   1.804   3.893   6.917 -0.0307 -0.1560 -2.1851
  185SLPC    HY21254   1.889   4.042   6.905 -1.4734  0.1906  2.3824
  185SLPC   O3121255   1.963   3.898   7.052 -0.4413  0.3903 -0.2362
  185SLPC   C3121256   2.063   3.983   7.084  0.7837  1.4210  0.0763
  185SLPC   O3221257   2.099   4.073   7.010  0.0216 -0.4698 -0.5855
  185SLPC   C3221258   2.133   3.946   7.219 -0.5481  0.4357 -0.1049
  185SLPC   H2X21259   2.204   4.030   7.229  0.5440 -0.6081  1.3660
  185SLPC   H2Y21260   2.192   3.857   7.189  0.8371  2.1434 -2.8554
  185SLPC   C2321261   2.164   3.451   6.947 -0.1829  0.6087 -1.0769
  185SLPC   H3R21262   2.232   3.493   7.025  0.5593  0.0565 -1.4216
  185SLPC   H3S21263   2.205   3.351   6.921 -1.7406 -0.5877  0.7893
  185SLPC   C2421264   2.023   3.429   7.017  0.2420  0.8125 -0.2743
  185SLPC   H4R21265   2.026   3.337   7.079 -0.7812  0.4616 -0.7254
  185SLPC   H4S21266   1.945   3.416   6.939  0.9667 -0.8126 -0.7742
  185SLPC   C2521267   1.978   3.550   7.101 -0.7880 -0.3573  0.6942
  185SLPC   H5R21268   1.988   3.646   7.045 -0.3541 -1.2261 -0.7862
  185SLPC   H5S21269   2.043   3.551   7.190  0.6552 -0.6106 -0.3216
  185SLPC   C2621270   1.829   3.525   7.154 -0.0705 -0.3946  0.4547
  185SLPC   H6R21271   1.822   3.427   7.205  0.1932 -0.6901 -0.0726
  185SLPC   H6S21272   1.770   3.524   7.060 -0.0887  0.5311  0.4464
  185SLPC   C2721273   1.793   3.648   7.244 -0.6108 -0.1193  0.2996
  185SLPC   H7R21274   1.798   3.737   7.177 -0.8306  0.9816  1.6875
  185SLPC   H7S21275   1.858   3.655   7.334  1.3060 -1.2388 -0.9106
  185SLPC   C2821276   1.645   3.649   7.292  0.2959  0.2279  0.3176
  185SLPC   H8R21277   1.577   3.653   7.204 -1.4795  1.3758  1.6568
  185SLPC   H8S21278   1.612   3.736   7.353  0.2361 -0.1833  0.8744
  185SLPC   C2921279   1.621   3.524   7.374  0.1243  0.1166  0.5762
  185SLPC   H9R21280   1.631   3.430   7.317 -2.3966 -1.4182  2.4403
  185SLPC  C21021281   1.584   3.523   7.500  0.5518 -0.9667  0.1135
  185SLPC  H10R21282   1.578   3.424   7.548  1.4734 -1.4104 -0.6471
  185SLPC  C21121283   1.554   3.647   7.586  0.1504  0.7279  0.0091
  185SLPC  H11R21284   1.475   3.599   7.648 -0.7595 -0.8327 -2.2113
  185SLPC  H11S21285   1.507   3.728   7.528 -0.3344 -0.5314 -1.4102
  185SLPC  C21221286   1.667   3.686   7.677  0.0193 -0.1797  0.4875
  185SLPC  H12R21287   1.764   3.688   7.625 -1.1280 -1.3396 -1.8369
  185SLPC  C21321288   1.651   3.706   7.811 -0.2682 -0.1737 -0.6095
  185SLPC  H13R21289   1.740   3.747   7.861 -0.5625  2.6328 -2.1494
  185SLPC  C21421290   1.532   3.699   7.903  0.1626 -0.7600  0.2960
  185SLPC  H14R21291   1.438   3.687   7.845 -1.4552 -2.3631  3.0317
  185SLPC  H14S21292   1.524   3.791   7.965 -0.7382 -0.7732  0.2050
  185SLPC  C21521293   1.544   3.581   8.003 -0.6458 -0.2054  0.1148
  185SLPC  H15R21294   1.626   3.614   8.070 -1.4300 -1.3175  1.6826
  185SLPC  H15S21295   1.570   3.486   7.953  0.5682 -1.2439  2.5615
  185SLPC  C21621296   1.419   3.563   8.080  0.5686  0.0345  0.6356
  185SLPC  H16R21297   1.335   3.519   8.022  0.4280 -1.7102  2.1006
  185SLPC  H16S21298   1.374   3.656   8.121  0.2649  0.6210 -0.9267
  185SLPC  C21721299   1.417   3.459   8.194  0.1181  0.1663 -0.9780
  185SLPC  H17R21300   1.441   3.356   8.159  0.5490 -0.3829  0.8075
  185SLPC  H17S21301   1.312   3.432   8.219  0.3229  0.4968  0.3246
  185SLPC  C21821302   1.488   3.512   8.320  0.3463 -0.2599 -0.1665
  185SLPC  H18R21303   1.593   3.476   8.306 -0.3289 -2.2779 -0.4479
  185SLPC  H18S21304   1.463   3.461   8.416  1.5795  0.3923  0.5296
  185SLPC  H18T21305   1.466   3.617   8.345 -0.0423 -0.3145 -0.2861
  185SLPC   C3321306   2.050   3.936   7.349 -0.8284 -0.2190 -0.5956
  185SLPC   H3X21307   1.992   3.841   7.354 -0.6158 -0.3501 -0.6492
  185SLPC   H3Y21308   1.967   4.010   7.351 -1.9408 -1.3987 -1.0326
  185SLPC   C3421309   2.140   3.943   7.467  0.5993  0.4940  0.0329
  185SLPC   H4X21310   2.208   4.030   7.461  2.3742 -0.8004  0.7038
  185SLPC   H4Y21311   2.198   3.848   7.469 -0.0998  0.0686  1.7105
  185SLPC   C3521312   2.054   3.951   7.594  0.4528 -0.4712  0.6105
  185SLPC   H5X21313   2.116   3.931   7.683  1.3328  0.3393  0.1985
  185SLPC   H5Y21314   1.967   3.881   7.592  0.1008 -0.0817  1.5670
  185SLPC   C3621315   2.004   4.090   7.623  0.2033  0.3950 -0.4012
  185SLPC   H6X21316   1.959   4.132   7.531 -1.0161 -3.1649 -1.5718
  185SLPC   H6Y21317   2.087   4.161   7.644 -0.1692  0.8037 -0.2852
  185SLPC   C3721318   1.899   4.085   7.736 -0.3368 -0.0979  0.1276
  185SLPC   H7X21319   1.811   4.037   7.688 -1.3520  2.1629 -0.3904
  185SLPC   H7Y21320   1.872   4.192   7.750 -0.5149  0.2199 -2.3008
  185SLPC   C3821321   1.943   4.021   7.871  0.0018  0.6830  0.6758
  185SLPC   H8X21322   1.971   3.916   7.846 -1.0137  0.9184 -1.6524
  185SLPC   H8Y21323   1.855   4.015   7.939 -1.8829  1.8071 -1.5375
  185SLPC   C3921324   2.048   4.106   7.944  0.1766 -0.4866 -0.0223
  185SLPC   H9X21325   2.009   4.206   7.972  1.8574  0.2994 -0.3905
  185SLPC   H9Y21326   2.130   4.126   7.872  0.6548  0.8408  0.8512
  185SLPC  C31021327   2.122   4.037   8.065  0.2095  0.3786 -0.4504
  185SLPC  H10X21328   2.157   3.936   8.033 -1.6804  0.6011 -3.6294
  185SLPC  H10Y21329   2.040   4.018   8.138  1.2409  3.0981  1.6256
  185SLPC  C31121330   2.240   4.110   8.137  0.3729 -0.1778  0.1700
  185SLPC  H11X21331   2.332   4.113   8.076  1.0887  0.0347  1.2292
  185SLPC  H11Y21332   2.256   4.061   8.236 -0.5513 -1.0515 -0.1028
  185SLPC  C31221333   2.198   4.261   8.167 -0.2526  0.2694 -0.0806
  185SLPC  H12X21334   2.110   4.256   8.234 -1.8133 -3.0203 -2.1141
  185SLPC  H12Y21335   2.166   4.313   8.073  0.4185 -0.2254 -0.5917
  185SLPC  C31321336   2.309   4.339   8.238  0.3720  0.3405 -0.3552
  185SLPC  H13X21337   2.288   4.448   8.230  1.9349  0.5263 -3.0696
  185SLPC  H13Y21338   2.401   4.322   8.179  0.2482  0.7759 -0.6794
  185SLPC  C31421339   2.353   4.298   8.384 -0.4152 -0.0570  0.1283
  185SLPC  H14X21340   2.384   4.192   8.396 -1.1729 -0.3928 -0.7435
  185SLPC  H14Y21341   2.261   4.307   8.446 -1.0327 -1.4903 -0.5189
  185SLPC  C31521342   2.456   4.390   8.450 -0.9264  0.0476 -0.7528
  185SLPC  H15X21343   2.551   4.391   8.391 -0.8852 -1.0433 -0.7262
  185SLPC  H15Y21344   2.486   4.348   8.549 -2.4463  0.8623  0.0894
  185SLPC  C31621345   2.429   4.541   8.471 -0.0360  0.1032 -0.4875
  185SLPC  H16X21346   2.421   4.596   8.375 -1.3830  2.6235  0.9720
  185SLPC  H16Y21347   2.511   4.590   8.528  0.5269 -1.2671 -0.0753
  185SLPC  C31721348   2.301   4.569   8.544  0.2542 -0.8185 -0.1883
  185SLPC  H17X21349   2.293   4.520   8.644  0.6217  0.4538  0.4832
  185SLPC  H17Y21350   2.217   4.533   8.480 -0.7851  1.2265 -0.0611
  185SLPC  C31821351   2.270   4.718   8.569 -0.4028 -0.3003  0.2744
  185SLPC  H18X21352   2.167   4.717   8.611 -0.3224 -0.8452  0.4626
  185SLPC  H18Y21353   2.275   4.773   8.473 -1.3415  1.3513  1.1313
  185SLPC  H18Z21354   2.355   4.761   8.625 -0.1407  0.3103 -0.5700
  186SLPC     N21355   4.002   5.575   6.249 -0.2414  0.0354 -0.7142
  186SLPC   C1321356   3.918   5.526   6.365  0.3119 -0.2735 -0.0462
  186SLPC  H13A21357   3.830   5.584   6.388  2.0070  2.5930 -0.3360
  186SLPC  H13B21358   3.874   5.430   6.344 -1.3873  0.4721  0.0181
  186SLPC  H13C21359   3.975   5.523   6.457 -0.3116 -0.0417  0.3566
  186SLPC   C1421360   3.908   5.565   6.131 -0.8388  0.7320  0.6115
  186SLPC  H14A21361   3.818   5.623   6.148  0.2409  2.0438  2.2370
  186SLPC  H14B21362   3.958   5.611   6.048 -1.1687 -0.8331 -0.4886
  186SLPC  H14C21363   3.887   5.461   6.111  0.3757  0.6318 -0.2377
  186SLPC   C1521364   4.123   5.491   6.224  0.5729  0.0422 -0.3239
  186SLPC  H15A21365   4.172   5.527   6.134 -0.2929 -1.3502 -1.3948
  186SLPC  H15B21366   4.197   5.494   6.302  0.2634 -1.8539  0.0935
  186SLPC  H15C21367   4.086   5.392   6.204 -0.8103  0.5842 -0.6014
  186SLPC   C1221368   4.037   5.722   6.276  0.4560  0.3779  0.6759
  186SLPC  H12A21369   4.120   5.731   6.344 -0.1969  1.2206  1.3838
  186SLPC  H12B21370   3.951   5.772   6.318 -1.0183 -1.1601 -0.3597
  186SLPC   C1121371   4.080   5.816   6.158  0.4581  0.2557 -0.8930
  186SLPC  H11A21372   4.084   5.917   6.203 -3.2510 -0.3996  1.3262
  186SLPC  H11B21373   4.001   5.825   6.081 -1.6801 -0.2339  1.1240
  186SLPC     P21374   4.335   5.808   6.173  0.1215  0.0710 -0.1732
  186SLPC   O1321375   4.431   5.719   6.108 -0.6541  0.0747  0.3603
  186SLPC   O1421376   4.346   5.952   6.161 -0.6119 -0.8264  0.4333
  186SLPC   O1221377   4.206   5.769   6.100 -0.3250 -1.0932 -0.2656
  186SLPC   O1121378   4.310   5.774   6.324 -0.3302 -0.5803  0.2051
  186SLPC    C121379   4.397   5.816   6.436  0.2456 -0.0377 -0.9356
  186SLPC    HA21380   4.441   5.918   6.426  1.8267 -0.0581  3.4916
  186SLPC    HB21381   4.338   5.828   6.529 -0.0336 -4.0809 -0.4254
  186SLPC    C221382   4.516   5.714   6.460  0.9660 -0.6663  0.7208
  186SLPC    HS21383   4.561   5.681   6.364 -1.8042 -0.4495 -0.7734
  186SLPC   O2121384   4.464   5.602   6.531 -0.0564  0.0381  0.3341
  186SLPC   C2121385   4.520   5.492   6.538 -0.3545  0.6712  0.0899
  186SLPC   O2221386   4.625   5.458   6.482 -0.0435 -0.1779 -0.1667
  186SLPC   C2221387   4.439   5.398   6.636 -0.4022 -0.2039 -0.4042
  186SLPC   H2R21388   4.346   5.448   6.673 -0.6214 -1.1628  0.3857
  186SLPC   H2S21389   4.405   5.314   6.572 -0.9938  0.9113 -1.6197
  186SLPC    C321390   4.634   5.788   6.524  0.3999  0.0904 -0.0922
  186SLPC    HX21391   4.666   5.866   6.451 -4.1269  2.3069 -0.0764
  186SLPC    HY21392   4.719   5.718   6.538 -0.2439 -1.5351 -3.2510
  186SLPC   O3121393   4.585   5.862   6.639 -1.4268  0.4491  0.9675
  186SLPC   C3121394   4.666   5.859   6.746 -0.5358 -0.0667 -0.4789
  186SLPC   O3221395   4.779   5.812   6.752 -0.3650  0.0186  0.1453
  186SLPC   C3221396   4.586   5.921   6.863 -0.1244 -0.0010 -0.4818
  186SLPC   H2X21397   4.493   5.860   6.861 -0.0385 -0.1062 -2.3452
  186SLPC   H2Y21398   4.567   6.025   6.829  1.4552  0.6013  0.3331
  186SLPC   C2321399   4.525   5.343   6.754 -0.0128 -0.2305  0.6782
  186SLPC   H3R21400   4.625   5.312   6.717 -0.7837 -0.6299 -1.1717
  186SLPC   H3S21401   4.478   5.246   6.783 -0.0802 -0.5779 -0.5488
  186SLPC   C2421402   4.534   5.441   6.876 -0.3121  0.3601 -0.3026
  186SLPC   H4R21403   4.569   5.541   6.845 -0.4970  0.4703 -0.1564
  186SLPC   H4S21404   4.610   5.397   6.945 -2.0136 -1.0860  0.7304
  186SLPC   C2521405   4.404   5.457   6.951 -1.0033 -0.2145  0.1958
  186SLPC   H5R21406   4.353   5.360   6.971  0.6859 -1.0947  0.4741
  186SLPC   H5S21407   4.335   5.528   6.901 -0.5441  0.1836  0.1220
  186SLPC   C2621408   4.438   5.512   7.090  1.0703 -0.0766 -0.1364
  186SLPC   H6R21409   4.468   5.618   7.076  1.1686 -0.1161 -0.2284
  186SLPC   H6S21410   4.526   5.452   7.121  1.1858 -0.6773 -1.5187
  186SLPC   C2721411   4.326   5.505   7.192  0.7648 -0.4567  0.3825
  186SLPC   H7R21412   4.306   5.401   7.228  0.2944  0.3173  2.5233
  186SLPC   H7S21413   4.238   5.527   7.128  0.9490 -1.3458 -0.2025
  186SLPC   C2821414   4.342   5.583   7.322 -0.0771 -0.0353 -0.8254
  186SLPC   H8R21415   4.242   5.590   7.369  0.0344 -2.2302 -0.1552
  186SLPC   H8S21416   4.371   5.688   7.300  0.3383 -0.2141 -1.1518
  186SLPC   C2921417   4.447   5.520   7.414  0.0550 -0.2214 -0.2841
  186SLPC   H9R21418   4.545   5.503   7.366 -0.3793 -1.3267 -0.8304
  186SLPC  C21021419   4.426   5.485   7.542 -0.5744  0.2276 -0.3835
  186SLPC  H10R21420   4.510   5.449   7.603  0.7923  0.9415 -1.7725
  186SLPC  C21121421   4.303   5.491   7.619  0.0482 -0.5769  0.3348
  186SLPC  H11R21422   4.306   5.395   7.675 -0.3325 -0.3259  0.7986
  186SLPC  H11S21423   4.213   5.487   7.555 -1.5241  0.8354  2.3218
  186SLPC  C21221424   4.307   5.609   7.711  0.1292  0.1665  0.0018
  186SLPC  H12R21425   4.299   5.707   7.661 -1.5374 -0.0304 -0.1959
  186SLPC  C21321426   4.310   5.608   7.847 -0.4134  0.4258 -0.0956
  186SLPC  H13R21427   4.309   5.706   7.897  1.0932  0.1031  0.6369
  186SLPC  C21421428   4.315   5.495   7.944 -0.0261 -0.1359 -0.1692
  186SLPC  H14R21429   4.293   5.401   7.889 -0.9769 -1.0079  1.6012
  186SLPC  H14S21430   4.233   5.500   8.019 -0.1458 -1.1399 -0.2124
  186SLPC  C21521431   4.455   5.479   8.011 -0.0304  0.1144 -0.3771
  186SLPC  H15R21432   4.477   5.574   8.063 -1.0129  0.1378  0.0150
  186SLPC  H15S21433   4.536   5.460   7.937  2.8489  1.3440  2.2445
  186SLPC  C21621434   4.465   5.371   8.119  0.6527  0.0253  0.2680
  186SLPC  H16R21435   4.435   5.271   8.080  1.3065  0.0201 -0.2253
  186SLPC  H16S21436   4.400   5.396   8.206  0.1492  0.9035 -0.3444
  186SLPC  C21721437   4.601   5.351   8.184  0.7940  0.4854  0.1955
  186SLPC  H17R21438   4.678   5.331   8.107  0.7338  0.4091  0.1561
  186SLPC  H17S21439   4.597   5.267   8.256 -2.7731  0.7215  0.4579
  186SLPC  C21821440   4.645   5.471   8.261 -0.0782 -0.5290 -0.3672
  186SLPC  H18R21441   4.689   5.555   8.202 -0.4789  0.4166  0.6511
  186SLPC  H18S21442   4.733   5.446   8.324 -0.3206  2.4691  1.3578
  186SLPC  H18T21443   4.566   5.507   8.331  0.7482 -0.6182  0.6404
  186SLPC   C3321444   4.672   5.911   6.997  1.0296 -0.4604 -0.1109
  186SLPC   H3X21445   4.749   5.990   7.002  0.9617 -0.4480  1.0952
  186SLPC   H3Y21446   4.708   5.806   7.008 -2.5096 -1.9017 -0.7469
  186SLPC   C3421447   4.580   5.929   7.122  0.6928 -0.2614  0.3144
  186SLPC   H4X21448   4.518   5.838   7.135  1.9867 -0.9899  1.7856
  186SLPC   H4Y21449   4.514   6.018   7.124 -0.6609 -1.2415  2.0795
  186SLPC   C3521450   4.662   5.917   7.252  0.1378  0.2839  0.3639
  186SLPC   H5X21451   4.741   5.994   7.258 -1.7157  2.2238  0.9793
  186SLPC   H5Y21452   4.713   5.819   7.238 -2.4386 -0.9498 -1.2578
  186SLPC   C3621453   4.580   5.918   7.381  0.3809  0.4217  0.2844
  186SLPC   H6X21454   4.479   5.873   7.373  0.5771 -0.1513  0.9523
  186SLPC   H6Y21455   4.545   6.022   7.400  0.1260  0.3044  0.4637
  186SLPC   C3721456   4.657   5.867   7.505  0.3591  0.0111 -0.1252
  186SLPC   H7X21457   4.746   5.932   7.519  0.3802 -0.2218  0.9504
  186SLPC   H7Y21458   4.683   5.761   7.488 -1.4695 -0.3114 -1.1551
  186SLPC   C3821459   4.581   5.879   7.638  0.0567  0.6354 -0.3214
  186SLPC   H8X21460   4.614   5.802   7.711 -2.2555 -0.3485 -0.2366
  186SLPC   H8Y21461   4.475   5.846   7.630 -0.1938  1.6874 -1.6752
  186SLPC   C3921462   4.574   6.019   7.696  0.5844 -0.7556  0.3867
  186SLPC   H9X21463   4.555   6.094   7.616  1.2791 -1.9554 -0.9608
  186SLPC   H9Y21464   4.671   6.056   7.734  0.0337  0.8256  0.2952
  186SLPC  C31021465   4.469   6.053   7.806 -0.2128 -0.2327  0.4771
  186SLPC  H10X21466   4.370   6.015   7.771 -0.3742 -0.4917  1.1807
  186SLPC  H10Y21467   4.463   6.162   7.822 -0.2858 -0.4848  2.4025
  186SLPC  C31121468   4.523   6.006   7.945 -0.0925  0.1940 -1.0309
  186SLPC  H11X21469   4.624   6.050   7.963  1.4630 -3.7227  1.4541
  186SLPC  H11Y21470   4.531   5.895   7.948 -0.5435  0.1590  2.1219
  186SLPC  C31221471   4.423   6.048   8.053 -0.0471  0.2510  0.3802
  186SLPC  H12X21472   4.379   6.141   8.011 -1.8094 -1.2431 -1.2715
  186SLPC  H12Y21473   4.469   6.067   8.153 -1.4589 -3.1656  1.8429
  186SLPC  C31321474   4.299   5.958   8.061  0.0110 -0.0535 -0.0584
  186SLPC  H13X21475   4.264   5.929   7.959 -0.9204 -0.6732  0.4272
  186SLPC  H13Y21476   4.213   6.014   8.102  1.7578  1.5872  1.5843
  186SLPC  C31421477   4.319   5.821   8.138  0.8569  0.4867 -0.2174
  186SLPC  H14X21478   4.419   5.775   8.125 -0.4400 -2.6023 -0.2857
  186SLPC  H14Y21479   4.239   5.750   8.107  0.1959  1.3857 -0.6172
  186SLPC  C31521480   4.305   5.851   8.293  0.3306  0.0379 -0.4180
  186SLPC  H15X21481   4.228   5.929   8.310  1.8300  1.4888 -0.1123
  186SLPC  H15Y21482   4.405   5.877   8.334  0.1651 -0.3330  0.2415
  186SLPC  C31621483   4.262   5.723   8.374  0.3138 -0.1954  0.3644
  186SLPC  H16X21484   4.357   5.669   8.390  1.0690  1.1522  0.5907
  186SLPC  H16Y21485   4.184   5.672   8.313 -0.0858 -2.2863  2.5186
  186SLPC  C31721486   4.214   5.765   8.509  0.5827  0.2568 -0.3490
  186SLPC  H17X21487   4.108   5.797   8.499  0.5126  0.5616  1.0937
  186SLPC  H17Y21488   4.278   5.848   8.546  2.2363 -0.4401 -1.5355
  186SLPC  C31821489   4.217   5.652   8.614 -0.4938 -0.2099  0.1492
  186SLPC  H18X21490   4.122   5.594   8.612 -0.3727 -0.5618  2.3713
  186SLPC  H18Y21491   4.216   5.704   8.712 -2.4669  2.8138 -1.3084
  186SLPC  H18Z21492   4.303   5.584   8.594 -1.1589 -0.7934 -0.8244
  187SLPC     N21493   1.190   1.878   6.430 -0.3903  0.1041  0.1375
  187SLPC   C1321494   1.083   1.800   6.497 -0.8374  0.1881  0.5628
  187SLPC  H13A21495   1.085   1.701   6.453  1.3769 -1.1975  3.4398
  187SLPC  H13B21496   1.099   1.778   6.602  0.6848 -0.6710  0.1790
  187SLPC  H13C21497   0.986   1.844   6.480 -1.3757 -0.9235  0.6553
  187SLPC   C1421498   1.169   2.025   6.468 -0.3336  0.1570  0.6272
  187SLPC  H14A21499   1.163   2.027   6.576  1.3042 -1.4471  0.7878
  187SLPC  H14B21500   1.247   2.092   6.435  1.8793 -1.6339  1.9591
  187SLPC  H14C21501   1.075   2.052   6.421 -0.8769 -2.1967  0.2653
  187SLPC   C1521502   1.166   1.870   6.279  0.2206  0.6541  1.1914
  187SLPC  H15A21503   1.181   1.768   6.247  0.4990  1.4133 -1.2978
  187SLPC  H15B21504   1.069   1.906   6.250  0.7182  0.4227 -0.9432
  187SLPC  H15C21505   1.235   1.928   6.219  1.3038  0.7031  2.4333
  187SLPC   C1221506   1.329   1.833   6.465 -0.6357 -0.0819  0.1059
  187SLPC  H12A21507   1.397   1.886   6.401 -0.3297  0.1953  0.6551
  187SLPC  H12B21508   1.342   1.727   6.448 -0.2430 -0.1510  0.8066
  187SLPC   C1121509   1.384   1.859   6.607 -0.8692 -0.3600  0.1883
  187SLPC  H11A21510   1.485   1.815   6.615  0.5934  2.9557  1.7087
  187SLPC  H11B21511   1.322   1.796   6.675  0.9999 -0.7013  1.6490
  187SLPC     P21512   1.506   2.101   6.593  0.1177 -0.0876  0.2526
  187SLPC   O1321513   1.633   2.036   6.565  0.1058 -0.2027 -0.8493
  187SLPC   O1421514   1.449   2.186   6.482  0.2219  0.2508 -0.3087
  187SLPC   O1221515   1.393   1.994   6.642 -0.3158 -0.4497  0.0988
  187SLPC   O1121516   1.528   2.184   6.725 -0.1386 -0.2291 -0.0798
  187SLPC    C121517   1.534   2.120   6.850 -0.0682 -0.0002 -0.8818
  187SLPC    HA21518   1.505   2.196   6.926 -0.4172  0.2330 -1.2444
  187SLPC    HB21519   1.462   2.036   6.865 -1.4501  1.4537  1.1038
  187SLPC    C221520   1.682   2.067   6.879  0.1719 -0.2697 -0.4543
  187SLPC    HS21521   1.692   1.986   6.803  0.7919  0.0057 -0.6694
  187SLPC   O2121522   1.686   2.026   7.021  0.0364  0.3976  0.3765
  187SLPC   C2121523   1.776   1.934   7.042  1.1063 -0.6202 -0.2806
  187SLPC   O2221524   1.840   1.881   6.952  0.4763  0.4288 -0.0713
  187SLPC   C2221525   1.762   1.894   7.186 -0.2976  0.4441  0.0507
  187SLPC   H2R21526   1.856   1.920   7.239 -1.0463  1.8560  0.7582
  187SLPC   H2S21527   1.673   1.934   7.239 -0.9046  0.0602 -0.6622
  187SLPC    C321528   1.794   2.177   6.857 -0.4923 -0.4963  0.0975
  187SLPC    HX21529   1.777   2.193   6.749 -0.8423 -0.0998  0.2107
  187SLPC    HY21530   1.898   2.138   6.866  1.0928  3.4073  0.7390
  187SLPC   O3121531   1.779   2.303   6.929  0.2339  0.3810  0.2724
  187SLPC   C3121532   1.829   2.314   7.041  0.6728 -0.6111 -0.6553
  187SLPC   O3221533   1.902   2.240   7.097 -0.6384 -0.1316 -0.8612
  187SLPC   C3221534   1.767   2.442   7.097 -1.0374 -0.0636  0.1728
  187SLPC   H2X21535   1.658   2.423   7.105 -0.5468 -2.2750  3.3637
  187SLPC   H2Y21536   1.777   2.521   7.019 -0.5235  0.2069  0.5078
  187SLPC   C2321537   1.755   1.736   7.200  0.1120 -0.6026  0.6068
  187SLPC   H3R21538   1.835   1.685   7.142  1.1583  0.2039  1.2946
  187SLPC   H3S21539   1.660   1.708   7.150  0.3534  0.8729 -0.7512
  187SLPC   C2421540   1.766   1.688   7.345 -0.1997  0.3744  0.7570
  187SLPC   H4R21541   1.874   1.698   7.366  0.8515  0.8996 -3.8592
  187SLPC   H4S21542   1.735   1.582   7.358  0.7022  0.1650  1.2983
  187SLPC   C2521543   1.681   1.773   7.437  0.3488 -0.2050 -0.6279
  187SLPC   H5R21544   1.572   1.764   7.414 -0.1139 -1.2186  1.6303
  187SLPC   H5S21545   1.715   1.878   7.434  1.6027 -0.6074 -2.8869
  187SLPC   C2621546   1.697   1.736   7.592 -0.0535 -0.4932 -0.9611
  187SLPC   H6R21547   1.803   1.736   7.625 -1.0718 -1.9887  2.8886
  187SLPC   H6S21548   1.675   1.628   7.609  1.2926 -0.7157 -0.5024
  187SLPC   C2721549   1.617   1.821   7.696 -0.5300  0.1077 -0.8794
  187SLPC   H7R21550   1.510   1.803   7.674 -0.5391  0.4572 -1.1398
  187SLPC   H7S21551   1.645   1.928   7.681 -2.1206  1.4726  3.9029
  187SLPC   C2821552   1.653   1.800   7.845 -1.0387  0.2801  0.1499
  187SLPC   H8R21553   1.757   1.832   7.867 -0.0789 -1.3477 -1.6943
  187SLPC   H8S21554   1.638   1.692   7.868 -1.0815 -0.3992 -2.7252
  187SLPC   C2921555   1.573   1.880   7.946 -0.1795  0.2660  0.2341
  187SLPC   H9R21556   1.534   1.979   7.918 -1.4031 -0.7390 -1.9173
  187SLPC  C21021557   1.551   1.827   8.063  0.2261 -1.0073 -0.2539
  187SLPC  H10R21558   1.479   1.881   8.126 -0.8334 -1.6283 -0.8987
  187SLPC  C21121559   1.581   1.694   8.122  0.4660 -0.3971 -0.5415
  187SLPC  H11R21560   1.599   1.620   8.040  2.4811 -0.4547 -0.1031
  187SLPC  H11S21561   1.492   1.657   8.176 -0.4643 -0.1132 -1.8333
  187SLPC  C21221562   1.708   1.696   8.213 -0.3646 -0.1296  0.3193
  187SLPC  H12R21563   1.685   1.733   8.314 -0.5394 -2.0817  1.0390
  187SLPC  C21321564   1.833   1.649   8.191 -0.7990 -0.1810  0.0522
  187SLPC  H13R21565   1.906   1.670   8.270 -2.0045 -0.2291  1.2245
  187SLPC  C21421566   1.881   1.593   8.056  0.2915  0.8991  0.1641
  187SLPC  H14R21567   1.812   1.633   7.978 -1.5330 -2.9634 -0.4484
  187SLPC  H14S21568   1.873   1.482   8.055  0.8900  0.8531 -0.0213
  187SLPC  C21521569   2.021   1.648   8.011  0.2310  0.9194  0.3801
  187SLPC  H15R21570   2.093   1.581   8.063  0.6077 -1.0698 -2.4973
  187SLPC  H15S21571   2.025   1.755   8.041  0.1600  0.5153  1.9069
  187SLPC  C21621572   2.029   1.646   7.855 -0.1102 -0.4195 -0.2203
  187SLPC  H16R21573   1.955   1.714   7.808  0.9601  1.5065  0.7700
  187SLPC  H16S21574   2.024   1.539   7.824 -0.1675 -0.6038  0.4140
  187SLPC  C21721575   2.165   1.715   7.814  0.2187  0.4303 -0.0509
  187SLPC  H17R21576   2.249   1.658   7.858  0.6199 -1.3793 -2.9337
  187SLPC  H17S21577   2.156   1.815   7.862 -1.1208  0.5010 -0.4028
  187SLPC  C21821578   2.199   1.722   7.667  0.0954  0.0503  0.6218
  187SLPC  H18R21579   2.216   1.622   7.620  0.0768  0.9910 -1.5442
  187SLPC  H18S21580   2.290   1.785   7.655  0.9113 -1.0046  1.0801
  187SLPC  H18T21581   2.122   1.762   7.597  0.2331 -2.4903 -1.1501
  187SLPC   C3321582   1.789   2.480   7.245  0.3582 -0.2715  0.3807
  187SLPC   H3X21583   1.897   2.486   7.272  0.3947 -0.3021  0.2404
  187SLPC   H3Y21584   1.745   2.406   7.316  0.2782  1.5599  2.3420
  187SLPC   C3421585   1.742   2.627   7.272  0.1913  0.1138 -0.0114
  187SLPC   H4X21586   1.634   2.635   7.245 -0.8396 -1.0321  3.3146
  187SLPC   H4Y21587   1.808   2.690   7.209  1.1841 -1.0999 -0.2445
  187SLPC   C3521588   1.777   2.679   7.416 -0.6388  0.0738 -0.7852
  187SLPC   H5X21589   1.724   2.777   7.421 -0.6623  0.0212  0.4963
  187SLPC   H5Y21590   1.881   2.716   7.419 -1.0155  1.1979 -0.9980
  187SLPC   C3621591   1.739   2.593   7.532  0.1341 -0.2483 -0.6945
  187SLPC   H6X21592   1.802   2.501   7.533 -0.0760 -0.4021  0.3915
  187SLPC   H6Y21593   1.635   2.554   7.527  0.2789 -1.3923  2.4992
  187SLPC   C3721594   1.750   2.663   7.669 -0.4515 -0.0395  0.2418
  187SLPC   H7X21595   1.855   2.699   7.668 -0.7196  0.7549 -0.5378
  187SLPC   H7Y21596   1.671   2.741   7.660 -0.7929 -0.3796  0.2552
  187SLPC   C3821597   1.726   2.581   7.796 -0.7689 -0.0435  0.3177
  187SLPC   H8X21598   1.796   2.495   7.795  1.1857  1.4824  0.3888
  187SLPC   H8Y21599   1.626   2.532   7.800 -0.8010  0.0192  0.2800
  187SLPC   C3921600   1.743   2.663   7.926  0.3263 -0.2909 -0.1724
  187SLPC   H9X21601   1.663   2.740   7.914 -1.4600 -1.9005  0.7031
  187SLPC   H9Y21602   1.838   2.721   7.930  0.3765 -0.3734 -0.1733
  187SLPC  C31021603   1.725   2.596   8.068 -0.4970 -0.7059  0.3125
  187SLPC  H10X21604   1.818   2.543   8.098  0.2720  0.5087  0.1495
  187SLPC  H10Y21605   1.642   2.522   8.067 -0.2925 -0.9392 -0.6736
  187SLPC  C31121606   1.687   2.699   8.175  0.2222 -0.5055  0.7212
  187SLPC  H11X21607   1.602   2.758   8.134 -0.7231 -1.6667  0.9617
  187SLPC  H11Y21608   1.767   2.771   8.201  3.8250 -3.4101 -1.3037
  187SLPC  C31221609   1.640   2.638   8.305 -0.0395 -0.2454  0.2787
  187SLPC  H12X21610   1.720   2.583   8.358  1.0778 -0.7602 -1.8308
  187SLPC  H12Y21611   1.560   2.563   8.286 -0.0044 -0.4693  0.9990
  187SLPC  C31321612   1.586   2.754   8.396 -0.3893  0.8560 -0.1575
  187SLPC  H13X21613   1.496   2.795   8.347  0.3269  0.1080 -2.1737
  187SLPC  H13Y21614   1.668   2.828   8.411  0.0160  0.2928  0.4695
  187SLPC  C31421615   1.541   2.696   8.535  0.4472 -0.0049  0.7361
  187SLPC  H14X21616   1.612   2.654   8.609 -3.1604 -1.7523  3.5403
  187SLPC  H14Y21617   1.461   2.621   8.518  0.3688  0.4010 -0.8787
  187SLPC  C31521618   1.481   2.802   8.632  0.3831  0.4319 -0.1526
  187SLPC  H15X21619   1.437   2.751   8.721  1.2681  1.3031  0.8189
  187SLPC  H15Y21620   1.397   2.855   8.584  0.1829 -0.6426 -1.0343
  187SLPC  C31621621   1.581   2.898   8.693  0.0032  0.2555 -0.5215
  187SLPC  H16X21622   1.607   2.972   8.614  3.0186  1.3121  1.2751
  187SLPC  H16Y21623   1.672   2.850   8.736 -0.7188 -1.8978 -1.2827
  187SLPC  C31721624   1.518   2.978   8.811 -0.0528  0.2780 -0.2754
  187SLPC  H17X21625   1.601   3.035   8.859  0.8153 -0.0702 -1.3319
  187SLPC  H17Y21626   1.487   2.901   8.886 -1.3630 -0.1215 -1.1949
  187SLPC  C31821627   1.401   3.062   8.775  0.0367 -0.0796  0.3374
  187SLPC  H18X21628   1.317   3.010   8.724  1.2341 -1.7881  0.0301
  187SLPC  H18Y21629   1.436   3.150   8.717 -1.3512  1.6563  2.0055
  187SLPC  H18Z21630   1.354   3.107   8.865 -2.2150 -1.7111  0.0864
  188SLPC     N21631   4.176   6.273   5.994  0.3182 -0.5462 -0.1919
  188SLPC   C1321632   4.075   6.389   5.994  0.0926 -0.4277  0.4425
  188SLPC  H13A21633   4.050   6.412   5.892  1.3437 -1.0634 -0.0292
  188SLPC  H13B21634   3.979   6.374   6.041 -0.1268  0.4833  0.3176
  188SLPC  H13C21635   4.121   6.480   6.032  0.2904  0.6099 -2.0744
  188SLPC   C1421636   4.126   6.163   5.903  0.4354  0.3648  0.0123
  188SLPC  H14A21637   4.032   6.128   5.943  0.8918  0.3436  1.0814
  188SLPC  H14B21638   4.113   6.197   5.801  3.0139  3.3552  0.5467
  188SLPC  H14C21639   4.198   6.084   5.884  0.8595  1.3271 -2.9489
  188SLPC   C1521640   4.182   6.216   6.123  0.1655  0.3946 -0.1199
  188SLPC  H15A21641   4.225   6.289   6.190  0.2957 -0.3119  0.5936
  188SLPC  H15B21642   4.083   6.191   6.160  0.3064  0.6153  0.4260
  188SLPC  H15C21643   4.237   6.123   6.127 -3.0099 -1.6260  1.5160
  188SLPC   C1221644   4.315   6.312   5.949  0.2743 -0.8536 -0.7941
  188SLPC  H12A21645   4.302   6.342   5.846  0.5021 -0.4941 -0.7206
  188SLPC  H12B21646   4.375   6.223   5.956  1.8372  0.1198 -1.3724
  188SLPC   C1121647   4.385   6.429   6.029 -0.0272 -0.6516 -0.1444
  188SLPC  H11A21648   4.318   6.517   6.022  2.0107  1.1657  1.6272
  188SLPC  H11B21649   4.476   6.451   5.968 -0.1850  0.6664  0.0588
  188SLPC     P21650   4.392   6.489   6.280  0.1730  0.1245  0.1336
  188SLPC   O1321651   4.464   6.616   6.263 -0.3389  0.2726 -0.2069
  188SLPC   O1421652   4.247   6.503   6.283 -0.3615  0.9391  0.6397
  188SLPC   O1221653   4.430   6.399   6.163  0.4420 -0.3337  0.0976
  188SLPC   O1121654   4.444   6.419   6.411 -0.4641  0.1126  1.0711
  188SLPC    C121655   4.441   6.277   6.410 -0.9392  0.2695 -0.1923
  188SLPC    HA21656   4.338   6.238   6.418 -0.6126 -0.6667 -0.3260
  188SLPC    HB21657   4.481   6.230   6.317 -0.2884  0.8359 -0.2047
  188SLPC    C221658   4.533   6.228   6.522 -0.1726 -0.0255 -0.1175
  188SLPC    HS21659   4.537   6.117   6.511  0.2390 -0.0453  0.2530
  188SLPC   O2121660   4.484   6.268   6.651  0.4151 -0.4264  0.5190
  188SLPC   C2121661   4.382   6.206   6.688  0.6041 -0.1286 -1.1318
  188SLPC   O2221662   4.328   6.115   6.631 -0.4201  0.3679  0.2734
  188SLPC   C2221663   4.323   6.281   6.814 -0.2103 -0.7385  0.0387
  188SLPC   H2R21664   4.293   6.378   6.770  0.3805 -0.7099 -0.3101
  188SLPC   H2S21665   4.241   6.219   6.856 -0.2617  0.9590  2.6861
  188SLPC    C321666   4.676   6.279   6.513 -0.5995 -0.0920  0.4178
  188SLPC    HX21667   4.675   6.385   6.546 -0.7425 -0.3092  1.1365
  188SLPC    HY21668   4.714   6.279   6.409 -5.0642  3.5269 -1.5779
  188SLPC   O3121669   4.756   6.198   6.602 -0.0699  0.3102  0.1131
  188SLPC   C3121670   4.873   6.261   6.643 -0.1891  0.6045 -1.0507
  188SLPC   O3221671   4.909   6.369   6.602 -0.2163  0.1075 -0.5514
  188SLPC   C3221672   4.947   6.166   6.742  0.5578 -0.4697  0.0547
  188SLPC   H2X21673   4.964   6.076   6.679 -1.1269 -0.1998 -0.8531
  188SLPC   H2Y21674   4.873   6.137   6.820 -0.4137  0.1131 -0.6268
  188SLPC   C2321675   4.430   6.314   6.922 -0.5005 -0.6637  0.0888
  188SLPC   H3R21676   4.503   6.382   6.874  0.6131 -1.0198  1.2394
  188SLPC   H3S21677   4.500   6.229   6.933  0.5790  0.1286 -0.5066
  188SLPC   C2421678   4.384   6.382   7.051 -0.1671 -0.1987  0.3092
  188SLPC   H4R21679   4.309   6.317   7.101  0.5190 -0.4694  1.0000
  188SLPC   H4S21680   4.337   6.481   7.036  2.1489  1.1751  1.4424
  188SLPC   C2521681   4.495   6.395   7.151  0.7822 -0.1303 -0.5394
  188SLPC   H5R21682   4.579   6.458   7.115  1.0750 -0.6540 -0.7858
  188SLPC   H5S21683   4.542   6.294   7.154  1.5038  0.0125 -3.5931
  188SLPC   C2621684   4.432   6.454   7.278 -0.0238 -0.2681  0.4979
  188SLPC   H6R21685   4.346   6.394   7.312  0.3519 -1.0449  0.1147
  188SLPC   H6S21686   4.391   6.555   7.254  1.8359  0.3581 -0.3080
  188SLPC   C2721687   4.532   6.466   7.392  0.2305  0.4944 -0.1803
  188SLPC   H7R21688   4.613   6.538   7.368  0.4042  0.8612  1.4247
  188SLPC   H7S21689   4.578   6.367   7.413 -0.7404 -0.0770 -0.6444
  188SLPC   C2821690   4.469   6.519   7.526 -0.0496 -0.5582 -0.0460
  188SLPC   H8R21691   4.420   6.618   7.512 -0.4659 -0.6379  0.7572
  188SLPC   H8S21692   4.561   6.537   7.586  0.8257 -3.5437 -0.3296
  188SLPC   C2921693   4.371   6.427   7.601 -0.1391 -0.2922  0.3818
  188SLPC   H9R21694   4.305   6.366   7.539  0.1747 -1.0939  0.8231
  188SLPC  C21021695   4.368   6.413   7.730 -0.6522  0.6028 -0.5279
  188SLPC  H10R21696   4.299   6.333   7.759 -0.9880  0.9165 -0.4567
  188SLPC  C21121697   4.443   6.479   7.839 -0.3829  0.5033  0.4387
  188SLPC  H11R21698   4.458   6.583   7.802 -0.7355  0.2681 -0.3898
  188SLPC  H11S21699   4.545   6.437   7.852 -0.6451 -0.3899 -0.3490
  188SLPC  C21221700   4.372   6.496   7.973  0.3525  0.2678 -0.6362
  188SLPC  H12R21701   4.276   6.547   7.967 -0.6749 -0.8276  3.4576
  188SLPC  C21321702   4.435   6.471   8.088  0.2301  0.4830 -0.3817
  188SLPC  H13R21703   4.378   6.488   8.181 -1.1047 -0.2973 -1.0359
  188SLPC  C21421704   4.572   6.408   8.114 -0.2714  0.1071  0.2427
  188SLPC  H14R21705   4.649   6.435   8.039  0.4622 -0.8000  0.6544
  188SLPC  H14S21706   4.559   6.298   8.107  1.3920 -0.0079 -2.4834
  188SLPC  C21521707   4.616   6.436   8.251  0.1079  0.3290 -0.4862
  188SLPC  H15R21708   4.569   6.531   8.284 -0.5853  0.7175 -2.4236
  188SLPC  H15S21709   4.726   6.453   8.244  0.7364 -1.0526  3.5860
  188SLPC  C21621710   4.604   6.313   8.345  0.5126  0.1639  0.1485
  188SLPC  H16R21711   4.661   6.230   8.297 -1.0505 -2.1476  2.0810
  188SLPC  H16S21712   4.498   6.280   8.336 -0.2640  1.6625  2.7341
  188SLPC  C21721713   4.654   6.350   8.483 -0.2738  0.2351 -0.6660
  188SLPC  H17R21714   4.621   6.269   8.551  2.9652 -0.3774  0.3493
  188SLPC  H17S21715   4.607   6.438   8.533 -0.4706 -0.3720  0.2367
  188SLPC  C21821716   4.807   6.349   8.497  0.4889  0.5779  0.0668
  188SLPC  H18R21717   4.825   6.377   8.603  1.2872 -2.1221  0.7136
  188SLPC  H18S21718   4.856   6.422   8.428 -0.1000  1.0347  0.1217
  188SLPC  H18T21719   4.857   6.250   8.491 -0.6691 -0.1085  1.2590
  188SLPC   C3321720   5.067   6.229   6.812 -0.6558 -0.3232  1.1482
  188SLPC   H3X21721   5.033   6.307   6.884 -1.7508 -1.7122  2.2005
  188SLPC   H3Y21722   5.148   6.267   6.746  1.0586  0.7818  3.7111
  188SLPC   C3421723   5.137   6.121   6.893 -0.1794  0.5884  1.0406
  188SLPC   H4X21724   5.230   6.154   6.943  1.0896  0.0773 -0.8855
  188SLPC   H4Y21725   5.176   6.051   6.816 -0.2019  2.2541 -0.5619
  188SLPC   C3521726   5.053   6.041   6.995  1.0073 -0.4771  0.4531
  188SLPC   H5X21727   4.970   5.981   6.952  0.3608  0.8545 -0.1885
  188SLPC   H5Y21728   4.997   6.112   7.059 -1.0500 -1.0597 -0.5993
  188SLPC   C3621729   5.144   5.942   7.070 -0.4394 -0.0370 -0.3863
  188SLPC   H6X21730   5.228   5.993   7.121 -2.6235  0.6003  2.8697
  188SLPC   H6Y21731   5.182   5.871   6.994  1.7176 -0.7626  1.2504
  188SLPC   C3721732   5.068   5.868   7.178 -0.0631 -0.4074 -0.3220
  188SLPC   H7X21733   5.078   5.758   7.164 -0.0439 -0.4967  0.3495
  188SLPC   H7Y21734   4.958   5.885   7.177  0.0280  0.2968  0.4330
  188SLPC   C3821735   5.114   5.909   7.319 -0.8087  0.0575  0.1046
  188SLPC   H8X21736   5.118   6.019   7.336  0.2179 -0.0531  0.6143
  188SLPC   H8Y21737   5.218   5.871   7.320 -0.7627 -0.2128 -3.1480
  188SLPC   C3921738   5.041   5.839   7.429  0.5034  0.6525 -0.0991
  188SLPC   H9X21739   5.039   5.729   7.416 -0.5814  0.6035  0.3815
  188SLPC   H9Y21740   4.935   5.871   7.419  0.3505  0.0625 -0.3783
  188SLPC  C31021741   5.100   5.876   7.568  0.6245 -0.0784  0.5571
  188SLPC  H10X21742   5.110   5.986   7.582 -0.8455 -0.0651  1.7678
  188SLPC  H10Y21743   5.201   5.831   7.579  0.0907 -2.3990 -2.5423
  188SLPC  C31121744   5.004   5.824   7.678  0.0401  0.0784 -0.4913
  188SLPC  H11X21745   4.975   5.716   7.673 -0.0801 -0.1950  3.3685
  188SLPC  H11Y21746   4.908   5.876   7.661  0.2908  1.2123  1.3582
  188SLPC  C31221747   5.036   5.872   7.820  0.1484 -0.2228  0.3715
  188SLPC  H12X21748   5.041   5.983   7.811 -0.8556 -0.1471  0.6443
  188SLPC  H12Y21749   5.139   5.845   7.850  1.2053  0.8721 -2.0226
  188SLPC  C31321750   4.931   5.835   7.927  0.0452 -0.6482 -0.1970
  188SLPC  H13X21751   4.955   5.729   7.951  1.5696 -0.5226 -1.0780
  188SLPC  H13Y21752   4.827   5.837   7.888 -0.5074 -0.1590  1.2286
  188SLPC  C31421753   4.935   5.922   8.060  0.4802  0.2737 -0.1217
  188SLPC  H14X21754   4.917   6.025   8.023 -0.8831  0.1524  0.1813
  188SLPC  H14Y21755   5.033   5.921   8.113  1.0795 -0.7932 -1.1981
  188SLPC  C31521756   4.817   5.876   8.154 -0.0317 -0.5203  0.5155
  188SLPC  H15X21757   4.821   5.766   8.165 -1.2853 -0.4673  1.9432
  188SLPC  H15Y21758   4.714   5.907   8.124  0.1351 -1.8215 -1.5549
  188SLPC  C31621759   4.827   5.951   8.295  0.4478 -0.4961  0.2424
  188SLPC  H16X21760   4.801   6.057   8.272  0.6219 -0.3165  0.8482
  188SLPC  H16Y21761   4.932   5.939   8.328  0.1629  1.1177  1.9650
  188SLPC  C31721762   4.746   5.900   8.404  0.6676 -0.7622 -0.9501
  188SLPC  H17X21763   4.775   5.793   8.412  1.8981 -0.3718  0.0188
  188SLPC  H17Y21764   4.636   5.909   8.386  0.5533 -1.6339 -0.7360
  188SLPC  C31821765   4.771   5.972   8.537  0.1205  0.0488  0.4775
  188SLPC  H18X21766   4.877   6.006   8.541  0.2935 -0.3998 -0.0629
  188SLPC  H18Y21767   4.737   5.903   8.617 -2.8915  0.0045 -0.7450
  188SLPC  H18Z21768   4.705   6.059   8.554 -2.1762 -1.6495  0.6859
  189SLPC     N21769   6.789   0.355   6.329  0.5918 -0.3905  0.0339
  189SLPC   C1321770   6.722   0.242   6.400 -0.4115 -0.3594  0.5527
  189SLPC  H13A21771   6.704   0.158   6.334  0.5180 -0.0863 -0.0660
  189SLPC  H13B21772   6.789   0.208   6.478  0.9924 -0.6653 -0.7438
  189SLPC  H13C21773   6.631   0.280   6.444 -1.6301  0.0950 -2.1629
  189SLPC   C1421774   6.699   0.427   6.238  0.0862 -0.0297 -0.1304
  189SLPC  H14A21775   6.606   0.446   6.290 -0.7965  0.8874 -1.9785
  189SLPC  H14B21776   6.741   0.524   6.217  0.0527  0.3503  1.3961
  189SLPC  H14C21777   6.671   0.377   6.147 -1.8668  0.6147  0.0608
  189SLPC   C1521778   6.907   0.306   6.250 -0.0824 -0.7949  0.4129
  189SLPC  H15A21779   6.960   0.238   6.315 -1.0830 -2.8806 -0.8359
  189SLPC  H15B21780   6.872   0.249   6.165 -1.9605 -2.8877  2.4595
  189SLPC  H15C21781   6.981   0.377   6.217 -0.0006 -2.3589 -3.3782
  189SLPC   C1221782   6.853   0.444   6.430 -0.1810 -0.3866  0.3232
  189SLPC  H12A21783   6.926   0.509   6.384 -1.3803 -0.4801 -1.8669
  189SLPC  H12B21784   6.907   0.372   6.489 -1.8777 -0.7677  1.4841
  189SLPC   C1121785   6.769   0.534   6.518  0.0847 -0.3358 -0.3280
  189SLPC  H11A21786   6.833   0.565   6.603 -1.4124 -0.1209  0.7566
  189SLPC  H11B21787   6.687   0.475   6.565 -0.8335 -0.4537 -1.9879
  189SLPC     P21788   6.778   0.785   6.418  0.0017  0.3194 -0.3848
  189SLPC   O1321789   6.915   0.751   6.374  0.2001  0.0214 -0.5505
  189SLPC   O1421790   6.696   0.853   6.316 -0.0121  0.0973 -0.3139
  189SLPC   O1221791   6.710   0.648   6.452  0.2593 -0.0667 -0.3570
  189SLPC   O1121792   6.783   0.869   6.555 -0.2083  0.8503  0.0974
  189SLPC    C121793   6.670   0.932   6.604 -0.5069  0.0755  0.5980
  189SLPC    HA21794   6.693   1.040   6.595 -2.9170  0.5220 -1.0520
  189SLPC    HB21795   6.578   0.896   6.554  0.4058 -1.7927  0.1279
  189SLPC    C221796   6.630   0.907   6.749 -0.4532 -0.3916  0.1733
  189SLPC    HS21797   6.543   0.973   6.767  1.2890  1.4860  2.3375
  189SLPC   O2121798   6.751   0.939   6.823  0.5454  0.2934 -1.2837
  189SLPC   C2121799   6.761   1.059   6.865 -0.4779  0.4414  0.7603
  189SLPC   O2221800   6.680   1.146   6.869 -0.1026 -0.2667  0.8269
  189SLPC   C2221801   6.909   1.073   6.916 -0.0603  0.1169  0.6185
  189SLPC   H2R21802   6.990   1.022   6.859 -0.0344  1.1632 -0.3184
  189SLPC   H2S21803   6.933   1.182   6.916  1.5096 -0.2011  1.2064
  189SLPC    C321804   6.591   0.758   6.769  0.2799 -0.2089 -0.0444
  189SLPC    HX21805   6.669   0.691   6.726 -0.1395  0.1558 -1.4210
  189SLPC    HY21806   6.508   0.720   6.705  2.4909 -1.2960 -2.4324
  189SLPC   O3121807   6.573   0.734   6.910 -0.2686 -0.1548 -0.4022
  189SLPC   C3121808   6.684   0.683   6.977  0.3466  0.4396 -0.2048
  189SLPC   O3221809   6.792   0.661   6.924  0.4592  0.0529  0.2667
  189SLPC   C3221810   6.655   0.655   7.125 -0.2124 -0.7178 -0.1732
  189SLPC   H2X21811   6.642   0.544   7.131  1.7426 -1.1646 -2.4926
  189SLPC   H2Y21812   6.555   0.694   7.153  0.2704  0.1539  0.3752
  189SLPC   C2321813   6.923   1.029   7.066 -0.4223 -0.4692 -0.4718
  189SLPC   H3R21814   6.870   0.932   7.071 -0.9203 -0.1975 -0.4439
  189SLPC   H3S21815   6.867   1.099   7.132  1.7789  0.4530  0.5098
  189SLPC   C2421816   7.068   1.014   7.112  0.0515  0.1744 -0.1315
  189SLPC   H4R21817   7.119   1.109   7.086 -1.0225  0.4648 -1.2780
  189SLPC   H4S21818   7.128   0.941   7.053 -0.2521 -0.9169  0.8650
  189SLPC   C2521819   7.092   0.979   7.256 -0.6095 -0.1468 -0.4727
  189SLPC   H5R21820   7.054   0.877   7.280  0.2437 -0.2142  0.6615
  189SLPC   H5S21821   7.034   1.055   7.313 -2.2097 -1.0090 -0.8959
  189SLPC   C2621822   7.246   0.978   7.281  0.0037 -0.2540 -1.0462
  189SLPC   H6R21823   7.278   1.081   7.257 -1.0714  0.2845 -0.2540
  189SLPC   H6S21824   7.291   0.905   7.210  0.4437  1.1861 -2.2843
  189SLPC   C2721825   7.281   0.946   7.427 -0.2360  0.4037 -0.0970
  189SLPC   H7R21826   7.220   0.859   7.458  1.1892 -1.2788 -1.7521
  189SLPC   H7S21827   7.240   1.020   7.498  0.2750  0.8752 -0.2857
  189SLPC   C2821828   7.432   0.918   7.446 -0.6407  0.1663  1.0036
  189SLPC   H8R21829   7.483   0.973   7.528 -0.1051  2.1659 -0.5992
  189SLPC   H8S21830   7.471   0.958   7.350 -1.1037 -3.8502 -1.0876
  189SLPC   C2921831   7.450   0.768   7.444  0.9960  0.3721  0.0422
  189SLPC   H9R21832   7.431   0.713   7.351  1.9635  1.0392 -0.5810
  189SLPC  C21021833   7.475   0.698   7.554 -0.5183  0.5267 -0.0758
  189SLPC  H10R21834   7.499   0.592   7.539  0.0214  0.7415 -0.8375
  189SLPC  C21121835   7.494   0.753   7.690  0.4414 -0.1430 -0.0476
  189SLPC  H11R21836   7.569   0.834   7.679  0.2228 -0.0421 -0.8218
  189SLPC  H11S21837   7.532   0.671   7.754  0.3060  0.4152  0.7590
  189SLPC  C21221838   7.383   0.818   7.766 -0.0952 -0.3415 -0.0441
  189SLPC  H12R21839   7.293   0.844   7.708 -1.0682 -0.8100  1.2114
  189SLPC  C21321840   7.387   0.859   7.895 -0.3652 -0.5985  0.3930
  189SLPC  H13R21841   7.299   0.906   7.940 -0.8298 -0.0937 -0.9896
  189SLPC  C21421842   7.499   0.837   7.993 -0.3116  0.0773  0.4375
  189SLPC  H14R21843   7.521   0.930   8.050  1.0082 -0.1052  0.2634
  189SLPC  H14S21844   7.596   0.811   7.945 -0.4300  0.1275  0.1665
  189SLPC  C21521845   7.460   0.722   8.090 -0.0010 -0.1567  0.1389
  189SLPC  H15R21846   7.350   0.729   8.104  0.0333  1.9733 -0.2517
  189SLPC  H15S21847   7.506   0.729   8.191  1.2394  1.6660 -0.5142
  189SLPC  C21621848   7.496   0.582   8.028 -0.1980 -0.8083 -0.1899
  189SLPC  H16R21849   7.607   0.581   8.024 -0.2343 -1.1013 -1.4262
  189SLPC  H16S21850   7.465   0.564   7.923 -0.0636 -0.0555 -0.3650
  189SLPC  C21721851   7.445   0.459   8.099 -0.1219  0.0171 -0.0328
  189SLPC  H17R21852   7.497   0.473   8.196  1.0312  0.0019 -0.6332
  189SLPC  H17S21853   7.482   0.359   8.071  1.1835  0.1241  1.2100
  189SLPC  C21821854   7.297   0.455   8.114 -0.4947 -0.6436  0.1306
  189SLPC  H18R21855   7.251   0.527   8.185  1.1712  0.3813  0.2103
  189SLPC  H18S21856   7.272   0.357   8.162  3.0756 -1.2626  1.0311
  189SLPC  H18T21857   7.245   0.468   8.017  1.7556 -2.0289 -1.3483
  189SLPC   C3321858   6.784   0.685   7.218  0.6928  0.2619  1.0312
  189SLPC   H3X21859   6.790   0.791   7.250 -1.0486  0.9011 -0.6011
  189SLPC   H3Y21860   6.877   0.655   7.164  0.2222 -0.9207  0.8284
  189SLPC   C3421861   6.798   0.599   7.338  0.6718  0.2989 -0.3794
  189SLPC   H4X21862   6.890   0.635   7.388  0.9639 -2.8092  1.5513
  189SLPC   H4Y21863   6.821   0.493   7.312 -0.6284 -0.0236 -0.2811
  189SLPC   C3521864   6.668   0.596   7.420  0.3518 -0.2531 -0.4481
  189SLPC   H5X21865   6.631   0.492   7.433 -1.2020  0.3613  0.3139
  189SLPC   H5Y21866   6.584   0.649   7.371 -0.3729 -1.3204 -0.4081
  189SLPC   C3621867   6.692   0.653   7.562  0.2387 -0.2904 -0.0827
  189SLPC   H6X21868   6.739   0.752   7.541  2.3269 -1.4019 -0.9496
  189SLPC   H6Y21869   6.771   0.588   7.605  0.0289 -0.6799 -0.2800
  189SLPC   C3721870   6.584   0.643   7.660 -0.5429  0.4311 -0.3896
  189SLPC   H7X21871   6.533   0.546   7.680 -2.0511  1.5178  1.5020
  189SLPC   H7Y21872   6.503   0.716   7.636 -0.9960  0.3542  0.8392
  189SLPC   C3821873   6.631   0.697   7.797  0.3542 -0.2367 -0.3051
  189SLPC   H8X21874   6.618   0.807   7.807 -1.3108 -0.3510 -0.9309
  189SLPC   H8Y21875   6.736   0.665   7.815  0.5116  0.3503 -0.1458
  189SLPC   C3921876   6.537   0.639   7.900  0.2617 -0.4956 -0.6684
  189SLPC   H9X21877   6.542   0.530   7.922  0.7241  0.0075  1.9645
  189SLPC   H9Y21878   6.433   0.661   7.867 -0.2876  0.4008  1.5396
  189SLPC  C31021879   6.531   0.708   8.036 -0.1034 -0.2765 -0.0781
  189SLPC  H10X21880   6.555   0.817   8.034  3.2487 -0.8163  2.3088
  189SLPC  H10Y21881   6.627   0.664   8.071 -0.6696 -1.5027 -0.0256
  189SLPC  C31121882   6.419   0.665   8.129  0.8939  0.1252  0.1386
  189SLPC  H11X21883   6.402   0.555   8.134  1.0950  0.0917  0.0779
  189SLPC  H11Y21884   6.321   0.709   8.100  0.5592  0.6637  1.9573
  189SLPC  C31221885   6.440   0.708   8.283 -0.3436  0.0382  0.8718
  189SLPC  H12X21886   6.550   0.721   8.297 -0.0731  0.6327 -1.3193
  189SLPC  H12Y21887   6.415   0.618   8.341 -0.4558 -1.5059 -1.4235
  189SLPC  C31321888   6.368   0.843   8.312 -0.4689 -0.5018  0.0551
  189SLPC  H13X21889   6.357   0.855   8.422  2.2946 -1.1685  0.4730
  189SLPC  H13Y21890   6.267   0.823   8.272 -0.7047  1.6677 -0.5823
  189SLPC  C31421891   6.429   0.970   8.253  0.2790 -0.3993  0.0143
  189SLPC  H14X21892   6.441   0.956   8.143  1.5999  3.2408 -0.4554
  189SLPC  H14Y21893   6.530   0.989   8.296  0.6379 -0.2994 -0.8596
  189SLPC  C31521894   6.338   1.092   8.285  0.0288 -0.5744 -0.0063
  189SLPC  H15X21895   6.344   1.108   8.394  2.6222 -0.3372 -0.1182
  189SLPC  H15Y21896   6.234   1.075   8.249 -0.6102  1.2208  0.8947
  189SLPC  C31621897   6.386   1.222   8.213 -0.9231 -0.0545  0.2924
  189SLPC  H16X21898   6.393   1.207   8.104 -0.5212  1.0046  0.1607
  189SLPC  H16Y21899   6.485   1.247   8.257 -2.2038  0.8670  2.8780
  189SLPC  C31721900   6.307   1.350   8.240 -0.2858 -0.8589  0.1262
  189SLPC  H17X21901   6.313   1.366   8.350 -0.4942 -0.0567  0.0308
  189SLPC  H17Y21902   6.200   1.334   8.216 -0.0669 -0.4021 -1.2650
  189SLPC  C31821903   6.380   1.461   8.158 -0.1520 -0.5085 -0.3140
  189SLPC  H18X21904   6.483   1.477   8.196 -0.2448 -0.6913  0.0193
  189SLPC  H18Y21905   6.324   1.557   8.153  1.0749  0.1797 -1.9648
  189SLPC  H18Z21906   6.384   1.422   8.054 -0.4190 -2.1225  0.2514
  190SLPC     N21907   1.481   4.660   6.064  0.2214  0.4089 -0.6562
  190SLPC   C1321908   1.520   4.525   6.013 -0.0526 -0.8967  0.3549
  190SLPC  H13A21909   1.627   4.517   6.000 -0.1005  1.6746 -2.8209
  190SLPC  H13B21910   1.492   4.448   6.083 -3.6557  0.6853  0.8908
  190SLPC  H13C21911   1.487   4.505   5.912  1.6984  0.0307 -0.4481
  190SLPC   C1421912   1.335   4.689   6.022  0.5097 -0.2958 -0.2287
  190SLPC  H14A21913   1.278   4.598   6.034  0.5433 -0.1485  1.2981
  190SLPC  H14B21914   1.296   4.765   6.088  0.5200 -1.3086  0.9906
  190SLPC  H14C21915   1.338   4.712   5.917  6.0192 -0.7605 -0.4498
  190SLPC   C1521916   1.554   4.774   5.998  0.0327  0.3186 -0.3720
  190SLPC  H15A21917   1.559   4.771   5.890  0.6122 -1.3773 -0.3201
  190SLPC  H15B21918   1.531   4.873   6.034 -0.1943  0.2046 -0.1995
  190SLPC  H15C21919   1.659   4.772   6.024  0.0167  0.6948 -0.2683
  190SLPC   C1221920   1.506   4.666   6.214 -0.1083  0.8546 -0.7750
  190SLPC  H12A21921   1.491   4.767   6.249 -2.6861 -0.4413  2.3713
  190SLPC  H12B21922   1.602   4.638   6.255 -1.2906 -1.7006  0.5253
  190SLPC   C1121923   1.408   4.586   6.295 -0.2355 -0.5530 -0.1659
  190SLPC  H11A21924   1.304   4.600   6.258  0.3569  1.1831 -1.2874
  190SLPC  H11B21925   1.407   4.619   6.401  0.5209 -1.0529 -0.0008
  190SLPC     P21926   1.568   4.398   6.374 -0.1641 -0.0975 -0.3067
  190SLPC   O1321927   1.607   4.264   6.326 -0.5105 -0.6792 -0.6477
  190SLPC   O1421928   1.677   4.504   6.396  0.2199  0.5097 -0.1640
  190SLPC   O1221929   1.445   4.448   6.286  0.1885 -0.1322  0.7661
  190SLPC   O1121930   1.505   4.383   6.516  0.4234  0.4091 -0.6766
  190SLPC    C121931   1.368   4.347   6.544 -0.1178  0.1241 -0.4554
  190SLPC    HA21932   1.308   4.440   6.559  1.3191  0.7072  2.4934
  190SLPC    HB21933   1.321   4.294   6.459 -1.3350  0.4277  0.0010
  190SLPC    C221934   1.358   4.255   6.668 -0.0100  0.1245 -0.0629
  190SLPC    HS21935   1.253   4.232   6.697  0.1700 -2.6114 -1.2755
  190SLPC   O2121936   1.423   4.314   6.783  0.0384  0.0057  0.1632
  190SLPC   C2121937   1.359   4.414   6.841  0.6458 -0.0072  0.9173
  190SLPC   O2221938   1.253   4.460   6.809  0.4901  0.6232  0.3967
  190SLPC   C2221939   1.428   4.437   6.980 -0.2527  0.6116  0.0219
  190SLPC   H2R21940   1.475   4.345   7.020 -0.5325  0.3809 -0.1742
  190SLPC   H2S21941   1.509   4.512   6.967  0.6445 -0.4889 -0.8897
  190SLPC    C321942   1.424   4.121   6.639  0.7714 -0.2245  0.5246
  190SLPC    HX21943   1.530   4.147   6.616  0.3515  0.1167 -1.1665
  190SLPC    HY21944   1.381   4.064   6.555 -1.3717  0.6979  0.9311
  190SLPC   O3121945   1.405   4.039   6.749 -0.5780  0.1200  0.1434
  190SLPC   C3121946   1.506   4.036   6.843  0.1788  0.1027  0.6674
  190SLPC   O3221947   1.604   4.108   6.851  0.5950  0.4992 -0.4636
  190SLPC   C3221948   1.475   3.925   6.941 -0.1933 -0.7004  0.4661
  190SLPC   H2X21949   1.522   3.827   6.924  0.8267 -0.4103  1.4972
  190SLPC   H2Y21950   1.365   3.907   6.946 -0.3590  0.3577  0.9926
  190SLPC   C2321951   1.344   4.483   7.097  0.6464  0.4024  0.0712
  190SLPC   H3R21952   1.256   4.417   7.115 -0.1028  1.8314  1.9750
  190SLPC   H3S21953   1.283   4.576   7.089 -0.5499 -0.3642  0.0803
  190SLPC   C2421954   1.415   4.483   7.235  0.3367  0.0596 -0.5130
  190SLPC   H4R21955   1.490   4.401   7.230 -0.1433 -0.3094 -2.8399
  190SLPC   H4S21956   1.348   4.469   7.323  0.2719 -0.7320 -0.6823
  190SLPC   C2521957   1.491   4.616   7.252  0.0819 -0.1345 -0.3080
  190SLPC   H5R21958   1.417   4.699   7.243 -1.6795 -1.7686 -1.9651
  190SLPC   H5S21959   1.553   4.638   7.163  0.2949  1.1302  0.1259
  190SLPC   C2621960   1.579   4.633   7.375 -0.3527  0.1735 -0.5882
  190SLPC   H6R21961   1.627   4.732   7.364  2.6408 -1.1558 -0.4766
  190SLPC   H6S21962   1.664   4.562   7.366 -0.7141 -0.3287 -0.1393
  190SLPC   C2721963   1.514   4.605   7.511 -0.4727  0.2634  0.0717
  190SLPC   H7R21964   1.524   4.500   7.546  0.0289  0.4530  0.5079
  190SLPC   H7S21965   1.408   4.637   7.508 -1.1418 -1.3686  2.8442
  190SLPC   C2821966   1.580   4.692   7.615 -0.0321  0.2296 -0.0301
  190SLPC   H8R21967   1.510   4.684   7.702 -1.1445 -1.5047 -1.0328
  190SLPC   H8S21968   1.557   4.793   7.574 -1.1453 -0.1164 -0.3055
  190SLPC   C2921969   1.724   4.659   7.644 -0.0782 -0.4812 -0.2899
  190SLPC   H9R21970   1.789   4.661   7.556 -0.3495  0.2596 -0.4796
  190SLPC  C21021971   1.771   4.606   7.753 -0.5822  1.2377 -0.6105
  190SLPC  H10R21972   1.879   4.581   7.756 -1.0400 -0.9077  1.6960
  190SLPC  C21121973   1.698   4.571   7.881 -0.1940  0.5706  0.6654
  190SLPC  H11R21974   1.587   4.571   7.877 -0.1644 -0.6326 -1.0245
  190SLPC  H11S21975   1.728   4.655   7.947  1.6712  0.4405  0.0284
  190SLPC  C21221976   1.742   4.443   7.948  0.0905  0.4516  0.5034
  190SLPC  H12R21977   1.686   4.354   7.915 -2.9249  1.8061  1.5795
  190SLPC  C21321978   1.844   4.428   8.038  0.5515  0.2121 -0.4168
  190SLPC  H13R21979   1.871   4.333   8.085  3.3420  0.6973 -0.8430
  190SLPC  C21421980   1.933   4.543   8.087 -0.6753  0.0475 -0.6082
  190SLPC  H14R21981   1.944   4.626   8.014  1.7416  0.4797  0.1446
  190SLPC  H14S21982   2.036   4.501   8.089 -0.7644 -0.1941  2.0677
  190SLPC  C21521983   1.901   4.597   8.226  0.2201  0.6837 -0.4739
  190SLPC  H15R21984   1.795   4.623   8.243  0.3686  0.1303  1.5839
  190SLPC  H15S21985   1.954   4.693   8.243  0.1976  0.9752 -1.8886
  190SLPC  C21621986   1.923   4.493   8.335 -0.6445  0.2311 -0.0041
  190SLPC  H16R21987   2.030   4.470   8.354 -1.0023  0.5659  2.8175
  190SLPC  H16S21988   1.870   4.398   8.311 -0.3432  0.2439 -0.7540
  190SLPC  C21721989   1.864   4.545   8.472 -0.1366 -0.2944 -0.2843
  190SLPC  H17R21990   1.755   4.562   8.460  0.0538 -0.5459 -2.8608
  190SLPC  H17S21991   1.912   4.633   8.520  0.4350 -0.7708  0.0469
  190SLPC  C21821992   1.875   4.428   8.573  0.2351  0.5772 -0.0494
  190SLPC  H18R21993   1.846   4.462   8.675  0.2345  0.6515 -0.0731
  190SLPC  H18S21994   1.975   4.382   8.580  0.2591  0.8317  2.0162
  190SLPC  H18T21995   1.805   4.344   8.554 -0.0484  1.0232 -1.0904
  190SLPC   C3321996   1.516   3.964   7.089 -0.5343 -0.2330  0.3002
  190SLPC   H3X21997   1.623   3.994   7.096 -0.5666 -0.0065 -0.1713
  190SLPC   H3Y21998   1.511   3.869   7.147 -0.3672 -1.1811 -1.1682
  190SLPC   C3421999   1.429   4.075   7.143  0.6879 -0.3823  0.2902
  190SLPC   H4X22000   1.328   4.063   7.098  0.1387 -1.0421  1.6288
  190SLPC   H4Y22001   1.476   4.168   7.107  1.4395 -1.1344 -0.7505
  190SLPC   C3522002   1.410   4.067   7.293 -1.2681  0.0451 -0.2325
  190SLPC   H5X22003   1.378   3.967   7.330  2.8370 -2.0663 -1.7300
  190SLPC   H5Y22004   1.339   4.147   7.324 -1.5965 -0.2253 -0.2887
  190SLPC   C3622005   1.543   4.102   7.364 -1.0163  0.5034  0.5158
  190SLPC   H6X22006   1.575   4.207   7.346 -0.5192 -0.1144 -2.9294
  190SLPC   H6Y22007   1.627   4.039   7.327 -0.7996  0.6363  0.7777
  190SLPC   C3722008   1.534   4.079   7.515  0.5527 -0.5134 -0.6438
  190SLPC   H7X22009   1.631   4.030   7.536 -0.7974 -1.9782  2.7820
  190SLPC   H7Y22010   1.447   4.011   7.525 -0.9969  1.5566  0.8558
  190SLPC   C3822011   1.516   4.210   7.592  1.2039  0.2863 -0.3609
  190SLPC   H8X22012   1.420   4.255   7.559  0.4751 -1.2956 -0.5123
  190SLPC   H8Y22013   1.588   4.294   7.582 -2.1005  3.3853 -0.2269
  190SLPC   C3922014   1.509   4.196   7.748  0.1437  0.0668 -0.3457
  190SLPC   H9X22015   1.464   4.295   7.773 -0.9527 -0.3147 -0.7178
  190SLPC   H9Y22016   1.610   4.181   7.790  0.3515  0.6061 -0.6303
  190SLPC  C31022017   1.414   4.089   7.787  0.3424  1.1675  0.0871
  190SLPC  H10X22018   1.456   3.994   7.747 -0.7885  0.1292  1.2878
  190SLPC  H10Y22019   1.317   4.116   7.742  0.5223  1.6410 -0.0233
  190SLPC  C31122020   1.396   4.067   7.945  0.4006  0.5570 -0.0212
  190SLPC  H11X22021   1.355   3.965   7.967 -0.5524  0.8594 -0.3302
  190SLPC  H11Y22022   1.313   4.133   7.979  0.6706  1.5319 -1.1900
  190SLPC  C31222023   1.521   4.088   8.031 -0.1147 -0.0356  0.4082
  190SLPC  H12X22024   1.542   4.197   8.038 -3.1375  0.6103  0.6633
  190SLPC  H12Y22025   1.613   4.037   7.995 -1.4889 -1.9186 -0.5585
  190SLPC  C31322026   1.495   4.052   8.188 -0.1200 -0.0264  0.3441
  190SLPC  H13X22027   1.511   3.942   8.181  1.6425  0.2009  0.1379
  190SLPC  H13Y22028   1.392   4.080   8.215 -0.9459  0.3932 -2.8301
  190SLPC  C31422029   1.592   4.108   8.292  0.2970 -1.0225 -0.2741
  190SLPC  H14X22030   1.530   4.132   8.381 -0.9376  0.7662 -1.5483
  190SLPC  H14Y22031   1.631   4.208   8.263  0.9736 -1.5382 -1.2303
  190SLPC  C31522032   1.701   4.007   8.314  0.1026 -0.8513  0.4602
  190SLPC  H15X22033   1.735   3.962   8.219  1.2164  1.5050 -0.3507
  190SLPC  H15Y22034   1.663   3.917   8.366  3.2895 -2.4471  0.2698
  190SLPC  C31622035   1.813   4.051   8.405  1.1550 -0.2732  0.7817
  190SLPC  H16X22036   1.770   4.091   8.500  0.0185  0.8259 -0.1714
  190SLPC  H16Y22037   1.853   4.147   8.365  0.5852 -0.1748  0.4406
  190SLPC  C31722038   1.926   3.950   8.415 -0.4707 -0.0455  1.4950
  190SLPC  H17X22039   1.949   3.918   8.311  0.0078  2.1362  0.8749
  190SLPC  H17Y22040   1.877   3.860   8.457  0.0800 -1.4287 -0.6767
  190SLPC  C31822041   2.049   3.987   8.493 -0.8382  0.2055 -0.2886
  190SLPC  H18X22042   2.110   3.894   8.491  0.2847  0.9250 -2.5450
  190SLPC  H18Y22043   2.027   4.027   8.594 -1.7374  3.3683 -1.6368
  190SLPC  H18Z22044   2.099   4.071   8.440  1.1126  1.3815  3.0695
  191SLPC     N22045   4.806   2.829   5.469 -0.5684 -0.1000 -0.5691
  191SLPC   C1322046   4.931   2.903   5.445  0.7499  0.4557 -0.1258
  191SLPC  H13A22047   4.925   2.995   5.502  0.5517 -0.2234  0.9842
  191SLPC  H13B22048   5.015   2.844   5.479  0.4472 -0.0514 -0.2486
  191SLPC  H13C22049   4.952   2.921   5.341  0.7040 -2.7218 -0.7615
  191SLPC   C1422050   4.809   2.697   5.394  0.3495  0.7794  0.7238
  191SLPC  H14A22051   4.806   2.701   5.286 -1.7834 -2.6154  0.5320
  191SLPC  H14B22052   4.899   2.643   5.418  1.1073  1.2695 -0.8674
  191SLPC  H14C22053   4.724   2.632   5.408 -1.2102  3.1439  3.4299
  191SLPC   C1522054   4.702   2.917   5.409 -0.1064 -0.1687 -0.1295
  191SLPC  H15A22055   4.704   3.007   5.468  0.6865 -1.4331  1.8919
  191SLPC  H15B22056   4.724   2.932   5.304  0.2752 -1.9411 -0.3285
  191SLPC  H15C22057   4.604   2.872   5.421 -0.4506  0.8848  1.2549
  191SLPC   C1222058   4.770   2.811   5.612  0.7814  0.8114  0.1962
  191SLPC  H12A22059   4.786   2.905   5.664  0.8550  0.6295  0.5050
  191SLPC  H12B22060   4.843   2.745   5.656  0.9995  0.4920 -0.6292
  191SLPC   C1122061   4.627   2.759   5.646 -0.8690 -0.0876 -0.0245
  191SLPC  H11A22062   4.605   2.671   5.582 -1.3236 -0.5074  0.6936
  191SLPC  H11B22063   4.556   2.843   5.627 -0.9969 -0.4366 -1.1812
  191SLPC     P22064   4.686   2.592   5.835 -0.5347 -0.5136 -0.1695
  191SLPC   O1322065   4.593   2.477   5.798  0.2200 -0.0536  0.2769
  191SLPC   O1422066   4.828   2.574   5.793 -0.3071 -0.8819  0.2666
  191SLPC   O1222067   4.616   2.727   5.788  0.1016 -0.2949  0.0363
  191SLPC   O1122068   4.684   2.614   5.995 -0.3207  0.4595  0.1444
  191SLPC    C122069   4.762   2.726   6.049 -0.2475  0.5706 -0.6287
  191SLPC    HA22070   4.867   2.718   6.015  1.2718 -0.6277  3.6856
  191SLPC    HB22071   4.719   2.824   6.016  1.2270  1.6951  0.6319
  191SLPC    C222072   4.785   2.705   6.199  1.2006 -0.1265  0.0484
  191SLPC    HS22073   4.888   2.742   6.215  1.8601 -2.1075  0.7293
  191SLPC   O2122074   4.760   2.571   6.239 -0.1993  0.0910 -0.2594
  191SLPC   C2122075   4.856   2.489   6.208  0.0204  0.0737 -0.4282
  191SLPC   O2222076   4.967   2.519   6.157 -0.2516 -0.4221 -0.5010
  191SLPC   C2222077   4.819   2.339   6.236  0.0867 -1.2710  0.7583
  191SLPC   H2R22078   4.736   2.311   6.168 -0.0656  2.4401 -0.8116
  191SLPC   H2S22079   4.902   2.275   6.199 -0.7220 -1.1644 -1.3962
  191SLPC    C322080   4.692   2.796   6.285  0.3852 -0.0709  0.6764
  191SLPC    HX22081   4.586   2.786   6.252  0.9032  1.4894 -1.7101
  191SLPC    HY22082   4.714   2.904   6.268 -1.1418  0.4455  1.7977
  191SLPC   O3122083   4.699   2.759   6.423  0.0272 -0.3344 -0.2469
  191SLPC   C3122084   4.604   2.823   6.499 -1.2580 -0.2039 -0.0590
  191SLPC   O3222085   4.519   2.895   6.454  0.1282 -0.0074 -0.0793
  191SLPC   C3222086   4.608   2.759   6.641 -0.4023  0.1071 -0.2070
  191SLPC   H2X22087   4.716   2.771   6.666 -1.0103  1.7249  1.9982
  191SLPC   H2Y22088   4.575   2.653   6.631 -2.1641  0.2342  2.9709
  191SLPC   C2322089   4.780   2.304   6.382  0.6082 -0.7040  0.0433
  191SLPC   H3R22090   4.858   2.334   6.455 -0.0273 -2.3963  1.5094
  191SLPC   H3S22091   4.765   2.194   6.383 -0.6645 -0.5441  0.5239
  191SLPC   C2422092   4.656   2.379   6.429  0.8218 -0.0642 -0.3646
  191SLPC   H4R22093   4.581   2.385   6.347  0.6254  0.5866 -0.1435
  191SLPC   H4S22094   4.680   2.485   6.450  2.6966 -0.9263  2.4572
  191SLPC   C2522095   4.586   2.328   6.562  0.7433 -0.2324 -0.0676
  191SLPC   H5R22096   4.487   2.378   6.571  0.0620 -1.6522  0.6488
  191SLPC   H5S22097   4.649   2.349   6.651  0.9501  0.1780 -0.3072
  191SLPC   C2622098   4.543   2.180   6.564 -0.1004 -0.3437  0.4061
  191SLPC   H6R22099   4.631   2.129   6.518  1.1793  2.9419 -1.1189
  191SLPC   H6S22100   4.459   2.164   6.493  1.0040  0.0014 -1.0283
  191SLPC   C2722101   4.514   2.124   6.704  0.8770  0.2846  0.0196
  191SLPC   H7R22102   4.422   2.178   6.735  0.8081  1.6134 -2.2807
  191SLPC   H7S22103   4.597   2.147   6.774  0.8851 -0.6585  0.3377
  191SLPC   C2822104   4.496   1.968   6.697  0.5705 -0.0594  0.0696
  191SLPC   H8R22105   4.598   1.924   6.688  0.9267  0.2679  2.0578
  191SLPC   H8S22106   4.440   1.938   6.606 -1.0034  0.8926  0.6812
  191SLPC   C2922107   4.405   1.915   6.804 -0.2356  0.5476 -1.2716
  191SLPC   H9R22108   4.305   1.960   6.795 -0.6642 -0.4237 -1.4224
  191SLPC  C21022109   4.445   1.842   6.913  0.0724 -1.1981  0.4751
  191SLPC  H10R22110   4.363   1.811   6.979  0.7348  1.4409  2.7109
  191SLPC  C21122111   4.591   1.799   6.932 -0.0797 -0.0909 -0.3333
  191SLPC  H11R22112   4.608   1.789   7.041  0.6469  1.0937 -0.3168
  191SLPC  H11S22113   4.668   1.868   6.892 -0.2733  0.3292  0.0110
  191SLPC  C21222114   4.608   1.656   6.880 -0.5343 -0.0635 -0.1701
  191SLPC  H12R22115   4.542   1.626   6.797 -1.2257  0.6836  0.0909
  191SLPC  C21322116   4.703   1.563   6.919  0.2925 -0.2874  0.1145
  191SLPC  H13R22117   4.701   1.463   6.872 -0.3592  1.0119 -2.8453
  191SLPC  C21422118   4.799   1.589   7.031  0.2310  0.0785  0.2332
  191SLPC  H14R22119   4.798   1.698   7.054  1.6708  0.3006 -0.6169
  191SLPC  H14S22120   4.904   1.564   7.005 -0.3442 -1.0321 -1.1886
  191SLPC  C21522121   4.751   1.511   7.153  0.4253  0.7044 -0.3946
  191SLPC  H15R22122   4.756   1.403   7.126  1.2364  0.4090  0.8532
  191SLPC  H15S22123   4.642   1.522   7.168  0.4753  0.4290  0.2018
  191SLPC  C21622124   4.828   1.526   7.289 -0.4516  0.1280 -0.3789
  191SLPC  H16R22125   4.807   1.625   7.335  0.4130 -0.7293  1.9831
  191SLPC  H16S22126   4.936   1.528   7.262 -0.6526 -1.0006 -1.3516
  191SLPC  C21722127   4.795   1.411   7.391 -0.1154 -0.1962 -0.2016
  191SLPC  H17R22128   4.834   1.327   7.330 -2.8332  0.0485 -2.4692
  191SLPC  H17S22129   4.685   1.396   7.404 -0.2516  0.4700 -0.5422
  191SLPC  C21822130   4.860   1.431   7.525  0.1820 -0.7891 -0.1946
  191SLPC  H18R22131   4.876   1.342   7.590  1.6416  0.2035  0.8790
  191SLPC  H18S22132   4.814   1.511   7.586  1.0413 -0.4345  0.0155
  191SLPC  H18T22133   4.959   1.471   7.493 -1.1409  2.5666 -0.4104
  191SLPC   C3322134   4.514   2.829   6.741  0.2496 -0.0551 -0.2686
  191SLPC   H3X22135   4.418   2.832   6.686 -0.6840 -2.2789  1.0980
  191SLPC   H3Y22136   4.544   2.932   6.769 -0.2988 -0.1656  0.8085
  191SLPC   C3422137   4.497   2.768   6.880  0.0471  0.4065  0.4833
  191SLPC   H4X22138   4.465   2.663   6.865 -0.9912  0.4893  1.8984
  191SLPC   H4Y22139   4.417   2.817   6.939  1.0682 -0.1958  2.4407
  191SLPC   C3522140   4.631   2.769   6.954 -0.1783 -0.5399 -0.0292
  191SLPC   H5X22141   4.661   2.875   6.964 -1.4528 -0.2027  0.3909
  191SLPC   H5Y22142   4.719   2.727   6.900 -0.0047 -0.5772  0.2779
  191SLPC   C3622143   4.616   2.704   7.091  0.4223 -0.9393  0.6255
  191SLPC   H6X22144   4.590   2.598   7.070 -0.3690 -0.0825 -3.5620
  191SLPC   H6Y22145   4.536   2.757   7.147  1.6541  1.1132  0.5525
  191SLPC   C3722146   4.745   2.721   7.185  0.7450 -0.0859  0.1638
  191SLPC   H7X22147   4.768   2.829   7.204  1.8301 -0.6688  2.5741
  191SLPC   H7Y22148   4.831   2.675   7.131  1.4824  0.0747  1.1660
  191SLPC   C3822149   4.730   2.639   7.310  0.3450 -0.4005 -0.0889
  191SLPC   H8X22150   4.683   2.540   7.292 -1.7210  0.5816 -0.4024
  191SLPC   H8Y22151   4.655   2.686   7.377  0.4841  1.0431 -0.8886
  191SLPC   C3922152   4.855   2.641   7.391 -0.5550 -0.2138  0.1376
  191SLPC   H9X22153   4.874   2.745   7.425  0.5192  0.2010 -1.5864
  191SLPC   H9Y22154   4.941   2.610   7.328 -0.0909  0.4911  0.4166
  191SLPC  C31022155   4.864   2.555   7.514  0.8452  0.3138 -0.6822
  191SLPC  H10X22156   4.799   2.601   7.591 -1.1034 -0.1313 -1.9793
  191SLPC  H10Y22157   4.970   2.560   7.547  1.2206  0.8259 -1.9174
  191SLPC  C31122158   4.840   2.398   7.506 -0.9008 -0.5236  0.6057
  191SLPC  H11X22159   4.938   2.350   7.486  0.3417  1.7847  0.8413
  191SLPC  H11Y22160   4.762   2.375   7.430 -0.5750  0.7202 -0.1373
  191SLPC  C31222161   4.784   2.336   7.640  0.3356 -0.5243  0.2209
  191SLPC  H12X22162   4.739   2.238   7.614 -0.9991 -0.1654  1.0668
  191SLPC  H12Y22163   4.696   2.395   7.673 -1.0332 -1.8967 -0.8367
  191SLPC  C31322164   4.884   2.307   7.751 -0.1721  0.0062  0.1123
  191SLPC  H13X22165   4.983   2.316   7.701 -1.7986  1.0617 -3.2141
  191SLPC  H13Y22166   4.877   2.198   7.772 -0.6726 -0.2629 -1.2939
  191SLPC  C31422167   4.872   2.402   7.877  0.6271  0.2798 -0.6754
  191SLPC  H14X22168   4.767   2.380   7.908  0.1152  1.2075 -1.7046
  191SLPC  H14Y22169   4.870   2.510   7.852 -0.0354  0.3038 -0.5335
  191SLPC  C31522170   4.976   2.389   7.989 -0.6147 -0.0266  0.1748
  191SLPC  H15X22171   4.994   2.487   8.036 -0.1315 -0.0717  0.0988
  191SLPC  H15Y22172   5.078   2.383   7.945 -0.6474  0.7517 -0.0104
  191SLPC  C31622173   4.952   2.268   8.081 -1.0167  0.2838 -0.2098
  191SLPC  H16X22174   5.044   2.259   8.144 -1.3393 -1.8055  0.0474
  191SLPC  H16Y22175   4.954   2.170   8.029 -2.9001  0.2054 -0.2056
  191SLPC  C31722176   4.829   2.277   8.173 -0.2371  0.2715 -0.1172
  191SLPC  H17X22177   4.807   2.174   8.209  1.2197  0.1497  0.4975
  191SLPC  H17Y22178   4.740   2.300   8.111 -1.1831 -0.0417  1.0695
  191SLPC  C31822179   4.848   2.381   8.288  0.5897 -0.2262  0.3874
  191SLPC  H18X22180   4.936   2.356   8.351  1.7816 -0.7339 -1.3982
  191SLPC  H18Y22181   4.759   2.360   8.351  0.4271 -0.4076  0.1040
  191SLPC  H18Z22182   4.848   2.480   8.238 -0.2110 -0.9472 -1.1197
  192SLPC     N22183   3.281   2.294   5.969 -0.2126  0.2752  0.3317
  192SLPC   C1322184   3.413   2.254   5.917  0.4405 -0.1487  0.8292
  192SLPC  H13A22185   3.432   2.294   5.819  0.0112  0.3261  0.9342
  192SLPC  H13B22186   3.493   2.294   5.979  0.0551  0.8482  0.6983
  192SLPC  H13C22187   3.426   2.147   5.918 -1.2702 -0.3720  1.5613
  192SLPC   C1422188   3.185   2.288   5.853 -0.5943  0.0426 -0.6462
  192SLPC  H14A22189   3.089   2.318   5.893 -0.1917 -0.8311  1.0682
  192SLPC  H14B22190   3.202   2.355   5.770  0.1925  1.3566  0.5232
  192SLPC  H14C22191   3.177   2.188   5.815 -3.7013 -0.4521  0.9424
  192SLPC   C1522192   3.289   2.432   6.011  0.3009  0.6458 -0.6461
  192SLPC  H15A22193   3.355   2.445   6.096 -1.4887 -1.4733  1.1853
  192SLPC  H15B22194   3.326   2.487   5.927 -1.1846  2.4560 -0.1923
  192SLPC  H15C22195   3.192   2.472   6.039 -0.1587  0.4482 -1.8814
  192SLPC   C1222196   3.242   2.199   6.082 -0.4980 -0.2410  0.0477
  192SLPC  H12A22197   3.142   2.229   6.111 -0.6965 -2.0449  1.4311
  192SLPC  H12B22198   3.303   2.212   6.170 -2.2738  0.1194  1.2842
  192SLPC   C1122199   3.251   2.046   6.049  0.2997 -0.2215 -0.2054
  192SLPC  H11A22200   3.199   2.038   5.951 -1.1966 -2.2508  0.6739
  192SLPC  H11B22201   3.191   1.993   6.127 -0.3430  0.9587  0.1205
  192SLPC     P22202   3.470   1.981   6.178  0.2959 -0.2694 -0.4171
  192SLPC   O1322203   3.443   1.844   6.228  0.1030 -0.4020 -0.4833
  192SLPC   O1422204   3.612   2.017   6.156  0.0188  0.5407 -0.2437
  192SLPC   O1222205   3.384   2.009   6.048 -0.8726  0.7156  1.1441
  192SLPC   O1122206   3.415   2.088   6.280  0.1827  0.3343  0.2330
  192SLPC    C122207   3.473   2.218   6.300 -0.4501 -0.5684 -0.2908
  192SLPC    HA22208   3.516   2.260   6.207 -0.9424  1.6882  0.4346
  192SLPC    HB22209   3.393   2.287   6.332  0.7792  0.0107  1.7589
  192SLPC    C222210   3.580   2.221   6.421  0.1508  0.0734  0.5561
  192SLPC    HS22211   3.663   2.161   6.378 -1.3079  0.7094 -3.6712
  192SLPC   O2122212   3.512   2.162   6.535  0.2018 -0.0640  0.1992
  192SLPC   C2122213   3.587   2.097   6.627 -0.0863 -0.0114  0.7675
  192SLPC   O2222214   3.702   2.075   6.614 -0.1148  0.0390  0.4196
  192SLPC   C2222215   3.510   2.068   6.752  0.2641  0.1546  0.7225
  192SLPC   H2R22216   3.493   2.161   6.811  1.2789  1.3295 -0.7767
  192SLPC   H2S22217   3.409   2.031   6.722  0.3954 -2.5598  3.1333
  192SLPC    C322218   3.646   2.366   6.443  0.1516 -0.6656 -0.2819
  192SLPC    HX22219   3.562   2.437   6.460  0.4534 -0.1423 -0.9147
  192SLPC    HY22220   3.686   2.396   6.344  1.5819  0.8863  0.7167
  192SLPC   O3122221   3.747   2.372   6.541 -0.4553 -0.1790  0.5380
  192SLPC   C3122222   3.862   2.313   6.521 -0.2336 -0.5331 -0.4524
  192SLPC   O3222223   3.896   2.248   6.429 -0.5623  0.4194  0.0989
  192SLPC   C3222224   3.941   2.350   6.646 -0.0844 -1.0179  0.1996
  192SLPC   H2X22225   3.922   2.273   6.724  0.8588  0.7393  2.3120
  192SLPC   H2Y22226   3.898   2.447   6.679 -0.9930 -1.5118  0.4917
  192SLPC   C2322227   3.579   1.961   6.842 -0.7360  0.3106  0.2110
  192SLPC   H3R22228   3.681   2.000   6.863 -1.4339  0.7028  3.4561
  192SLPC   H3S22229   3.583   1.863   6.789 -1.2955  1.2373 -1.6047
  192SLPC   C2422230   3.514   1.936   6.982 -0.2111 -0.2909 -0.2801
  192SLPC   H4R22231   3.406   1.916   6.961  0.4314 -1.1167 -3.2910
  192SLPC   H4S22232   3.520   2.029   7.042 -0.0044 -0.7503  0.4292
  192SLPC   C2522233   3.595   1.827   7.052  0.3520 -0.4709  0.0090
  192SLPC   H5R22234   3.686   1.886   7.079 -0.3573  0.6687 -0.0092
  192SLPC   H5S22235   3.635   1.749   6.983  0.5320 -0.3967  0.0285
  192SLPC   C2622236   3.520   1.749   7.151 -0.0307 -0.5543 -0.0871
  192SLPC   H6R22237   3.430   1.698   7.109 -0.4526 -1.7689  2.1398
  192SLPC   H6S22238   3.484   1.821   7.227  1.8428 -0.6377  0.9211
  192SLPC   C2722239   3.594   1.644   7.223 -0.6250 -0.0243 -0.1934
  192SLPC   H7R22240   3.691   1.672   7.269 -0.6949 -1.6146  1.0028
  192SLPC   H7S22241   3.619   1.559   7.156  1.0825  0.9701 -0.8834
  192SLPC   C2822242   3.524   1.568   7.336  0.7535  0.4758 -0.3105
  192SLPC   H8R22243   3.449   1.512   7.276  2.4054  0.5176 -2.5303
  192SLPC   H8S22244   3.479   1.649   7.397  0.4388 -0.2298  0.4187
  192SLPC   C2922245   3.613   1.472   7.415  0.0056 -0.8471  0.0007
  192SLPC   H9R22246   3.640   1.376   7.368 -3.4051 -1.2240 -1.4377
  192SLPC  C21022247   3.654   1.504   7.545 -0.1723 -0.4988 -0.2559
  192SLPC  H10R22248   3.728   1.437   7.591 -0.0404  1.8587  3.4238
  192SLPC  C21122249   3.621   1.626   7.626 -0.5863 -0.0316 -0.0985
  192SLPC  H11R22250   3.517   1.612   7.664 -0.0503 -1.3815  0.9758
  192SLPC  H11S22251   3.634   1.723   7.575  3.0594 -0.6957 -0.7155
  192SLPC  C21222252   3.708   1.647   7.749  0.0744 -0.1239  0.6446
  192SLPC  H12R22253   3.813   1.628   7.721 -0.0592  1.1286 -0.8701
  192SLPC  C21322254   3.679   1.688   7.868 -0.2946  0.0143 -0.1753
  192SLPC  H13R22255   3.760   1.699   7.942 -0.0434 -2.9529  0.1216
  192SLPC  C21422256   3.538   1.730   7.916  0.3990 -0.3854  0.1719
  192SLPC  H14R22257   3.460   1.665   7.871  0.0657  1.3479 -1.9166
  192SLPC  H14S22258   3.531   1.835   7.882  3.7932 -0.5587 -1.4882
  192SLPC  C21522259   3.501   1.733   8.071 -0.0451  0.1905 -0.4840
  192SLPC  H15R22260   3.485   1.629   8.108 -0.1337  0.6517  0.8154
  192SLPC  H15S22261   3.408   1.790   8.090 -1.1476 -1.5847 -0.3407
  192SLPC  C21622262   3.612   1.797   8.161  1.1820 -0.2717  0.3978
  192SLPC  H16R22263   3.640   1.893   8.112 -0.7200 -0.0446 -0.3342
  192SLPC  H16S22264   3.693   1.721   8.160  2.0469  0.5579 -2.6951
  192SLPC  C21722265   3.574   1.828   8.302  0.1973 -0.4409  0.5507
  192SLPC  H17R22266   3.510   1.919   8.301 -0.1777 -0.7048 -0.5221
  192SLPC  H17S22267   3.516   1.741   8.338 -2.3998  0.4005 -1.2966
  192SLPC  C21822268   3.682   1.853   8.399 -0.5767  0.1817 -0.4034
  192SLPC  H18R22269   3.743   1.942   8.373  0.0681  0.3023  1.3464
  192SLPC  H18S22270   3.737   1.757   8.389  0.4707  0.9480 -2.5462
  192SLPC  H18T22271   3.640   1.872   8.500 -1.8397 -0.4822 -0.7855
  192SLPC   C3322272   4.095   2.348   6.616 -0.0180  0.0906  0.2014
  192SLPC   H3X22273   4.142   2.414   6.540  0.5367 -1.7898 -1.1826
  192SLPC   H3Y22274   4.116   2.244   6.583 -0.3972 -0.1308  0.6429
  192SLPC   C3422275   4.184   2.371   6.742 -0.3137 -0.3029 -0.4207
  192SLPC   H4X22276   4.251   2.284   6.760 -0.1739  0.0130  0.6420
  192SLPC   H4Y22277   4.117   2.378   6.831  0.8228  0.1731  0.4238
  192SLPC   C3522278   4.249   2.515   6.748  0.5465 -0.0066  0.3910
  192SLPC   H5X22279   4.297   2.521   6.648 -2.3784  1.6530 -1.0516
  192SLPC   H5Y22280   4.325   2.521   6.828  0.6578 -0.0834  0.2922
  192SLPC   C3622281   4.147   2.624   6.765 -0.7672 -0.1153 -0.3516
  192SLPC   H6X22282   4.084   2.610   6.675 -0.7446 -2.0845 -0.0995
  192SLPC   H6Y22283   4.202   2.721   6.763  0.1417 -0.6138 -0.0994
  192SLPC   C3722284   4.072   2.622   6.892  0.2527  0.0008  0.9423
  192SLPC   H7X22285   4.136   2.640   6.981  3.9945 -1.6161 -1.1753
  192SLPC   H7Y22286   4.007   2.532   6.896 -0.0068  0.0438 -1.1001
  192SLPC   C3822287   3.982   2.740   6.898  0.1489  0.7698 -0.6958
  192SLPC   H8X22288   3.916   2.747   6.809 -0.1996  2.7973 -0.3265
  192SLPC   H8Y22289   4.051   2.827   6.901  0.7749  0.2932 -0.9969
  192SLPC   C3922290   3.904   2.735   7.030  0.2041 -0.7323  0.3465
  192SLPC   H9X22291   3.982   2.726   7.109  2.4687 -0.5386 -1.7323
  192SLPC   H9Y22292   3.834   2.649   7.035 -2.6738  1.3697 -0.9562
  192SLPC  C31022293   3.828   2.862   7.050 -0.1783  0.0666  0.7744
  192SLPC  H10X22294   3.773   2.875   6.954  0.1722 -0.3043  0.5201
  192SLPC  H10Y22295   3.906   2.940   7.064 -0.3353  0.1828  1.0101
  192SLPC  C31122296   3.735   2.887   7.172 -0.6724 -0.6731 -0.0722
  192SLPC  H11X22297   3.667   2.800   7.176  1.9564 -2.8569 -0.0598
  192SLPC  H11Y22298   3.670   2.976   7.163 -0.0263  0.0361  1.7041
  192SLPC  C31222299   3.822   2.898   7.298 -0.0417 -0.5615  0.1316
  192SLPC  H12X22300   3.873   2.996   7.293 -0.6267 -0.1046  2.2313
  192SLPC  H12Y22301   3.892   2.811   7.296  0.5363 -0.1212  0.9165
  192SLPC  C31322302   3.742   2.894   7.427 -1.2475  0.5899  0.6633
  192SLPC  H13X22303   3.665   2.816   7.441 -0.0956 -0.6229  0.4495
  192SLPC  H13Y22304   3.678   2.983   7.440 -1.7233  0.2703  0.5301
  192SLPC  C31422305   3.830   2.899   7.546  0.2505  0.5140 -0.2033
  192SLPC  H14X22306   3.787   2.961   7.628 -0.4722 -0.2908  0.0436
  192SLPC  H14Y22307   3.921   2.956   7.520  1.0112 -0.0558  1.1038
  192SLPC  C31522308   3.878   2.755   7.600  0.7585  0.2119  0.3943
  192SLPC  H15X22309   3.951   2.776   7.681  1.6706  0.1039 -0.3792
  192SLPC  H15Y22310   3.925   2.703   7.513 -1.6645 -0.8988 -0.3300
  192SLPC  C31622311   3.766   2.670   7.664  0.4828 -0.1408  0.5069
  192SLPC  H16X22312   3.713   2.635   7.573 -0.6251 -0.8385  1.3866
  192SLPC  H16Y22313   3.698   2.736   7.723  1.3060 -0.4253  1.8173
  192SLPC  C31722314   3.812   2.557   7.752 -0.4656 -0.4184  0.3874
  192SLPC  H17X22315   3.732   2.509   7.812 -0.0395 -1.6102  0.0306
  192SLPC  H17Y22316   3.875   2.597   7.835 -1.3556  0.5147  0.6292
  192SLPC  C31822317   3.887   2.441   7.681 -0.6252 -0.7765 -0.9674
  192SLPC  H18X22318   3.993   2.464   7.662 -0.0865 -0.7947  1.6299
  192SLPC  H18Y22319   3.838   2.410   7.587  0.2257 -2.7948 -0.7893
  192SLPC  H18Z22320   3.899   2.355   7.751  0.1033 -0.1546 -0.3166
  193SOD    SOD22321   5.562   4.300   4.325  0.0820  0.1218  0.0162
  194SOD    SOD22322   2.823   3.778   5.519  0.5001  0.3028  0.1247
  195SOD    SOD22323   5.516   5.532   5.748 -0.1984 -0.1072 -0.3286
  196SOD    SOD22324   2.854   1.065  14.320  0.2439  0.1795  0.1969
  197SOD    SOD22325   0.068   6.021  15.478  0.2270  0.1764  0.0145
  198SOD    SOD22326   5.866   0.613  12.683 -0.4507  0.1576 -0.0941
  199SOD    SOD22327   4.203   5.122   6.399  0.1819 -0.7897 -0.0751
  200SOD    SOD22328   0.704   4.764   2.852 -0.2635  0.2004  0.0523
  201SOD    SOD22329   0.944   2.160  16.004 -0.1541  0.1800  0.4567
  202SOD    SOD22330   2.358   3.789   6.438 -0.2361  0.2880  0.4349
  203SOD    SOD22331   3.495   5.185   1.475  0.6451 -0.1458  0.6028
  204SOD    SOD22332   0.301   1.878   5.378 -0.2415  0.2124  0.6803
  205SOD    SOD22333   0.173   0.393  10.773 -0.2328  0.1388  0.1598
  206SOD    SOD22334   3.082   3.816  17.074  0.1055  0.4373  0.5637
  207SOD    SOD22335   1.577   3.867   6.277  0.3462 -0.4808  0.3010
  208SOD    SOD22336   2.566   6.624  15.814  0.3520  0.0455 -0.1704
  209SOD    SOD22337   4.436   2.543  10.939  0.5207  0.2333  0.5734
  210SOD    SOD22338   2.240   2.668   4.791 -0.2139 -0.4246 -0.2048
  211SOD    SOD22339   1.207   4.827  11.507 -0.5018  0.5664 -0.3062
  212SOD    SOD22340   6.764   3.760   3.208 -0.0070  0.1352  0.0400
  213SOD    SOD22341   1.647   1.837   0.109 -0.0314  0.1653 -0.5122
  214SOD    SOD22342   2.451   1.927  10.950 -0.3699 -0.1388  0.3124
  215SOD    SOD22343   4.842   1.564   6.120 -0.1913 -0.3511 -0.2037
  216SOD    SOD22344   0.536   6.100  13.856  0.5431  0.4207 -0.1437
  217SOD    SOD22345   2.315   0.200   6.476  0.3816  0.0853  0.5873
  218SOD    SOD22346   6.762   4.202   6.274 -0.4919  0.3066  0.2010
  219SOD    SOD22347   4.980   0.572  10.746 -0.5942 -0.3155  0.1682
  220SOD    SOD22348   3.566   6.759  12.000  0.7388 -0.0814 -0.4077
  221SOD    SOD22349   0.219   1.053  15.293 -0.4881  0.5359  0.2033
  222SOD    SOD22350   1.915   2.151   5.355  0.4605 -0.0155  0.1637
  223SOD    SOD22351   5.238   0.444   0.348 -0.4467 -0.3123  0.5287
  224SOD    SOD22352   2.626   0.789  10.840  0.4071  0.0900 -0.0870
  225SOD    SOD22353   2.018   5.585   2.965 -0.3238 -0.3361 -0.4908
  226SOD    SOD22354   4.046   0.837  13.727 -0.4353  0.0368 -0.3137
  227SOD    SOD22355   1.395   3.589  10.858  0.3939 -0.2100 -0.3621
  228SOD    SOD22356   4.738   6.802   2.423  0.1226  0.1527 -0.1330
  229SOD    SOD22357   3.525   3.089   5.905 -0.7198 -0.0599  0.4393
  230SOD    SOD22358   6.210   0.855  15.589  0.8885  0.1290  0.3753
  231SOD    SOD22359   6.661   2.793  11.788  0.0172  0.4734  0.1949
  232SOD    SOD22360   5.014   3.344   5.265  0.3844  0.0620  0.2707
  233SOD    SOD22361   6.516   4.338   5.572 -0.1740  0.1420 -0.1733
  234SOD    SOD22362   3.897   4.790  14.151  0.0114 -0.1020 -0.1012
  235SOD    SOD22363   0.349   2.048   6.334 -0.0486 -0.7007  0.2620
  236SOD    SOD22364   4.474   5.878  15.740 -0.2843 -0.2393  0.4350
  237SOD    SOD22365   0.983   3.584  12.401 -0.0555 -0.6262 -0.0497
  238SOD    SOD22366   3.508   5.378   5.942  0.2382  0.8832  0.4732
  239SOD    SOD22367   6.201   3.082   0.416 -0.0846 -0.2240  0.0516
  240SOD    SOD22368   5.588   2.981   0.190 -0.0060  0.5087 -0.1680
  241SOD    SOD22369   2.374   2.317  11.961 -0.5225 -0.2790 -0.1376
  242SOD    SOD22370   1.597   0.561  16.249  0.8115  0.0111  0.1086
  243SOD    SOD22371   2.047   3.966   0.208 -0.6367  0.6034 -0.2194
  244SOD    SOD22372   6.168   1.405  10.890 -0.3704  0.1313 -0.2943
  245SOD    SOD22373   4.634   5.850   3.757 -0.5061 -0.1506 -0.5096
  246SOD    SOD22374   3.040   2.652   4.010 -0.5602 -0.1988 -0.0825
  247SOD    SOD22375   1.270   4.624   2.106 -0.7580 -0.3703  0.5864
  248SOD    SOD22376   1.376   0.444  14.782 -0.1166 -0.2385  0.2604
  249SOD    SOD22377   5.438   5.237  13.050  0.0424 -0.2373 -0.1682
  250SOD    SOD22378   6.132   2.776  10.737 -0.2000  0.1275  0.1051
  251SOD    SOD22379   6.465   6.376  13.678  0.0956  0.2703  0.4705
  252SOD    SOD22380   1.586   5.671  11.776  0.2970 -0.0211  0.3545
  253SOD    SOD22381   3.634   0.642   1.382  0.3221  0.1744 -0.3042
  254SOD    SOD22382   4.331   0.700   4.600 -0.2654 -0.0270  0.1844
  255SOD    SOD22383   2.700   5.894   4.566  0.1931  0.1387  0.3267
  256SOD    SOD22384   5.716   2.177  11.659  0.3635  0.3263 -0.0039
  257SOD    SOD22385   3.664   3.801  15.895  0.2068  0.0160 -0.3199
  258SOD    SOD22386   4.476   2.522   0.490 -0.0249  0.1071  0.0915
  259SOD    SOD22387   0.615   3.048   1.037 -0.0022  0.5927 -0.2618
  260SOD    SOD22388   5.669   4.460   0.106  0.1825  0.5410  0.3624
  261SOD    SOD22389   3.705   1.150  15.774 -0.4078  0.0802 -0.4950
  262SOD    SOD22390   4.248   3.986   5.517 -0.1110  0.2475  0.3421
  263SOD    SOD22391   5.822   5.716  14.119  0.1590  0.1779  0.7243
  264SOD    SOD22392   3.651   6.103  11.245 -0.3190  0.2321 -0.3846
  265SOD    SOD22393   3.805   1.687  10.497 -0.3436 -0.3504  0.3345
  266CLA    CLA22394   0.580   2.159   5.207 -0.1862 -0.1446 -0.0128
  267CLA    CLA22395   3.642   5.701   3.265 -0.1802 -0.1533  0.0325
  268CLA    CLA22396   5.440   6.088  15.114  0.4838  0.0269  0.7552
  269CLA    CLA22397   6.696   5.385  12.408 -0.3594 -0.0883  0.2609
  270CLA    CLA22398   6.541   6.420  15.993  0.5250  0.2993 -0.2305
  271CLA    CLA22399   6.288   1.588  16.593  0.0945 -0.1787  0.3558
  272CLA    CLA22400   4.363   6.806   3.295 -0.0152  0.0125 -0.1491
  273CLA    CLA22401   3.861   2.228  16.570 -0.0243  0.1717 -0.1551
  274CLA    CLA22402   1.461   1.452  12.813  0.2504  0.2357 -0.0628
  275CLA    CLA22403   0.636   4.918   4.524  0.3933 -0.0515  0.0198
  276CLA    CLA22404   4.186   4.941  14.778  0.3407  0.4675  0.3339
  277CLA    CLA22405   2.692   2.910   4.973  0.2043 -0.5378  0.2116
  278CLA    CLA22406   2.427   0.923   0.992  0.1900  0.1412 -0.2284
  279CLA    CLA22407   4.664   3.525   4.574  0.0174 -0.3584  0.2054
  280CLA    CLA22408   5.555   1.502   5.591  0.0533  0.0755  0.1875
  281CLA    CLA22409   2.993   5.343  16.677  0.0303  0.3012 -0.1685
  282CLA    CLA22410   0.319   0.371  13.804  0.2828  0.1941  0.0468
  283CLA    CLA22411   0.634   3.523  11.444 -0.4366 -0.2895  0.0349
  284CLA    CLA22412   6.500   5.228   4.589 -0.1466  0.1445  0.4409
  285CLA    CLA22413   5.897   5.367  16.799  0.1092  0.1191 -0.6571
  286CLA    CLA22414   4.983   4.890  12.200  0.2385  0.0139  0.0935
  287CLA    CLA22415   4.105   1.179  13.197 -0.1512 -0.1131  0.1690
  288CLA    CLA22416   1.448   2.971  13.271  0.4895  0.2198 -0.4978
  289CLA    CLA22417   5.193   4.012   2.523 -0.1415  0.0316 -0.1793
  290CLA    CLA22418   0.940   1.168  15.317 -0.0012 -0.1764  0.5959
  291CLA    CLA22419   5.275   5.989   1.359 -0.3563  0.0470 -0.0505
  292CLA    CLA22420   4.238   2.643   1.050  0.1870 -0.2560 -0.1566
  293CLA    CLA22421   4.985   5.017   0.505  0.0735  0.1402 -0.5756
  294CLA    CLA22422   2.567   4.286   1.536  0.1010 -0.1338  0.0141
  295CLA    CLA22423   2.621   5.246  11.935  0.0861 -0.0492 -0.0568
  296CLA    CLA22424   1.353   0.383  15.474 -0.4634 -0.6142  0.2554
  297CLA    CLA22425   2.632   3.605   3.340  0.0569 -0.0183 -0.3168
  298CLA    CLA22426   3.218   5.879  14.094  0.3279 -0.2959  0.3063
  299CLA    CLA22427   1.589   3.392   3.409  0.0305  0.1073 -0.0954
  300CLA    CLA22428   2.057   0.117  14.853  0.5486  0.1255  0.1559
  301CLA    CLA22429   3.714   1.373  16.243  0.1712 -0.1930  0.6546
  302CLA    CLA22430   0.646   1.729   6.053  0.0688 -0.2184  0.0475
  303CLA    CLA22431   0.586   6.457   2.008  0.0485  0.0643 -0.1454
  304CLA    CLA22432   6.578   0.958   2.751  0.1600 -0.2566 -0.5205
  305CLA    CLA22433   4.848   1.492   3.264 -0.4273  0.0805  0.4154
  306CLA    CLA22434   0.017   3.234   3.123 -0.1144  0.0759  0.3464
  307CLA    CLA22435   1.385   5.034  12.755  0.0112 -0.0154  0.1200
  308CLA    CLA22436   2.555   1.641  12.442 -0.0407 -0.0461  0.3039
  309CLA    CLA22437   1.716   4.725  16.662  0.4930  0.3594 -0.0104
  310CLA    CLA22438   3.756   0.831  12.715  0.1727 -0.2580 -0.4156
  311CLA    CLA22439   1.178   4.601   2.980  0.0153  0.1286 -0.3130
  312CLA    CLA22440   4.895   0.598  17.118  0.1151  0.2111 -0.2223
  313CLA    CLA22441   6.708   3.168   0.158 -0.2327 -0.1274  0.3151
  314CLA    CLA22442   3.507   4.158  16.157  0.0060  0.0383  0.2577
  315CLA    CLA22443   2.980   2.263   4.534  0.5471 -0.4336  0.1930
  316CLA    CLA22444   0.070   6.228   1.539  0.0860  0.2981 -0.0597
  317CLA    CLA22445   5.174   4.935  16.748  0.6470  0.1126 -0.0497
  318CLA    CLA22446   1.748   1.922  15.546  0.2970 -0.3535  0.0511
  319TIP3   OH222447   2.866   5.498  14.409  0.1020 -0.1986 -0.0922
  319TIP3    H122448   2.908   5.562  14.467 -2.1650  0.1151  1.3300
  319TIP3    H222449   2.780   5.536  14.389 -0.7103 -2.1020 -0.4452
  320TIP3   OH222450   2.943   2.615   5.357  0.4690 -0.1457 -0.0582
  320TIP3    H122451   2.953   2.599   5.263  1.1810 -0.1244  0.0077
  320TIP3    H222452   3.032   2.633   5.388  0.1962  0.1933  0.5573
  321TIP3   OH222453   2.693   4.531   3.376  0.5115 -0.0432 -0.0341
  321TIP3    H122454   2.765   4.480   3.412  1.7238  1.1766 -0.6365
  321TIP3    H222455   2.676   4.492   3.290 -2.2746 -2.8514  1.5885
  322TIP3   OH222456   1.877   3.035   3.046  0.4967 -0.2296 -0.5618
  322TIP3    H122457   1.812   3.095   3.084  0.7031 -0.6425  0.4717
  322TIP3    H222458   1.869   2.955   3.098  1.3027 -0.5580 -0.9309
  323TIP3   OH222459   1.026   2.918  13.138  0.2604 -0.4204 -0.2670
  323TIP3    H122460   0.938   2.947  13.115 -0.0911 -0.9919  0.2937
  323TIP3    H222461   1.043   2.845  13.079  0.3638 -0.3008 -0.3844
  324TIP3   OH222462   1.290   4.546   0.503 -0.2722  0.1699 -0.3009
  324TIP3    H122463   1.359   4.492   0.541 -1.1013  0.0683  1.1559
  324TIP3    H222464   1.209   4.508   0.538 -0.9228  1.8973  0.2016
  325TIP3   OH222465   4.330   5.612  14.324 -0.3649  0.3309 -0.2848
  325TIP3    H122466   4.285   5.696  14.328 -1.6290 -0.3271 -0.0800
  325TIP3    H222467   4.288   5.566  14.251  0.0886 -0.2360 -0.1948
  326TIP3   OH222468   0.517   3.161  15.257 -0.0141 -0.2193 -0.6873
  326TIP3    H122469   0.463   3.185  15.332  1.1529 -1.6214  0.6419
  326TIP3    H222470   0.537   3.245  15.215  0.4575  0.7552  1.3679
  327TIP3   OH222471   6.424   0.001  10.727  0.1127  0.0932  0.1545
  327TIP3    H122472   6.501   0.051  10.703  0.0960 -0.0728 -0.2516
  327TIP3    H222473   6.358   0.025  10.662  0.5566 -1.5650 -0.9669
  328TIP3   OH222474   0.221   2.276   2.544  0.6739 -0.3114  0.8600
  328TIP3    H122475   0.154   2.344   2.545  1.3152  0.4066 -1.3064
  328TIP3    H222476   0.196   2.219   2.472  2.4875  0.0952 -0.1344
  329TIP3   OH222477   1.056   3.884  16.153  0.0003 -0.1419 -0.1158
  329TIP3    H122478   0.980   3.838  16.187  0.4222 -0.2927  0.6430
  329TIP3    H222479   1.120   3.880  16.224 -0.0045  1.7703  0.0439
  330TIP3   OH222480   2.537   0.994  10.435 -0.5471 -0.0385 -0.1408
  330TIP3    H122481   2.474   0.986  10.506 -0.3582  0.2657  0.0664
  330TIP3    H222482   2.494   0.953  10.359 -1.0537  0.3027 -0.0430
  331TIP3   OH222483   5.182   3.072   3.799  0.4306  0.7348 -0.0517
  331TIP3    H122484   5.182   3.152   3.748 -0.6268  1.6012  1.2456
  331TIP3    H222485   5.162   3.100   3.888  0.1790 -0.9500  0.4604
  332TIP3   OH222486   4.568   6.606   5.767  0.5545 -0.5722 -0.9137
  332TIP3    H122487   4.594   6.697   5.758 -1.7452  0.0168 -2.3356
  332TIP3    H222488   4.649   6.556   5.754  1.6540  1.2165 -1.1584
  333TIP3   OH222489   5.204   0.877  16.232  0.1349  0.6004 -1.0304
  333TIP3    H122490   5.244   0.949  16.282 -1.4850  0.9325 -0.1396
  333TIP3    H222491   5.157   0.826  16.298  1.1357 -1.2409 -1.6698
  334TIP3   OH222492   0.025   1.147   3.565  0.1214  0.4133 -0.1415
  334TIP3    H122493   0.056   1.195   3.488  2.8770  0.1996  0.7242
  334TIP3    H222494   0.084   1.072   3.571 -0.6134 -0.0688  1.6723
  335TIP3   OH222495   2.737   2.566  14.227 -0.0220  0.3039  0.5384
  335TIP3    H122496   2.643   2.574  14.212 -0.2275 -3.0204 -0.6090
  335TIP3    H222497   2.747   2.489  14.283  2.0894 -1.5392 -2.1144
  336TIP3   OH222498   6.373   5.211   2.650  0.2252  0.6238  0.2338
  336TIP3    H122499   6.381   5.198   2.744 -0.6381  0.1987  0.2584
  336TIP3    H222500   6.328   5.295   2.641  0.7681  0.9144  0.1836
  337TIP3   OH222501   1.992   4.499  13.625  0.0333  0.4429  0.7387
  337TIP3    H122502   2.082   4.485  13.595 -0.0230  0.5301  0.5282
  337TIP3    H222503   1.977   4.593  13.613 -0.4995  0.2238 -0.3835
  338TIP3   OH222504   0.817   5.929   4.374  0.2086 -0.3729 -0.0227
  338TIP3    H122505   0.766   5.848   4.372  2.4075 -1.9096  1.6682
  338TIP3    H222506   0.790   5.972   4.455 -0.0112 -0.0339 -0.2709
  339TIP3   OH222507   3.150   1.292   1.917 -0.4582 -0.0453 -0.4762
  339TIP3    H122508   3.161   1.262   1.827 -1.9574 -0.4253 -0.5650
  339TIP3    H222509   3.206   1.369   1.923  0.3884 -0.5581 -1.4448
  340TIP3   OH222510   2.858   2.433  16.134 -0.2806  0.2095 -0.4208
  340TIP3    H122511   2.827   2.522  16.116 -0.2312 -0.0358 -1.8345
  340TIP3    H222512   2.947   2.431  16.100  0.4453  0.1757  1.3929
  341TIP3   OH222513   2.292   5.991  11.690 -0.0127  0.4173  0.0389
  341TIP3    H122514   2.330   5.911  11.728 -0.0886 -0.6077 -1.9350
  341TIP3    H222515   2.228   5.960  11.627  0.4020  2.0352 -1.2388
  342TIP3   OH222516   2.639   6.564   5.250 -0.1529 -0.1392 -0.0270
  342TIP3    H122517   2.544   6.571   5.258 -0.2861 -0.9321 -0.6339
  342TIP3    H222518   2.674   6.626   5.313 -1.0720 -0.4101  0.7711
  343TIP3   OH222519   1.681   4.347   3.017 -0.1189  0.3582  0.8133
  343TIP3    H122520   1.759   4.355   2.962 -1.8016 -1.6944 -2.2012
  343TIP3    H222521   1.621   4.413   2.983 -0.2556  0.9173  2.0911
  344TIP3   OH222522   0.482   0.937   1.879 -0.2264  0.5980 -0.2443
  344TIP3    H122523   0.494   1.031   1.868 -0.4172  0.3891 -2.9157
  344TIP3    H222524   0.401   0.918   1.832  0.1006 -0.9920 -0.2108
  345TIP3   OH222525   2.527   4.384  16.457 -0.3356 -0.1768  0.1601
  345TIP3    H122526   2.485   4.367  16.542 -0.6546  0.5332  0.1537
  345TIP3    H222527   2.481   4.461  16.423 -0.8743 -1.0322 -1.1122
  346TIP3   OH222528   1.768   2.945  13.306 -0.1479 -0.0518  0.1447
  346TIP3    H122529   1.674   2.963  13.305 -0.0220  0.7012  0.8903
  346TIP3    H222530   1.808   3.027  13.277  0.3187 -0.0306  0.8248
  347TIP3   OH222531   4.087   3.020  14.329  0.5280 -0.8626 -0.0096
  347TIP3    H122532   4.027   3.039  14.401  0.2386 -0.5404 -0.3289
  347TIP3    H222533   4.129   2.938  14.354 -0.6000 -1.5032 -0.1197
  348TIP3   OH222534   3.822   0.525  14.981  0.2509  0.2449 -0.0364
  348TIP3    H122535   3.841   0.589  15.049 -0.3328 -0.2027  0.5576
  348TIP3    H222536   3.904   0.517  14.932  0.8330  0.1962  0.9256
  349TIP3   OH222537   4.642   2.613  13.474 -0.3609 -0.1910  0.5723
  349TIP3    H122538   4.733   2.618  13.504 -0.7279  0.3059  1.6384
  349TIP3    H222539   4.612   2.704  13.473 -0.6181 -0.2694 -0.5659
  350TIP3   OH222540   3.108   4.062   0.094  0.4993 -0.1861  0.0809
  350TIP3    H122541   3.196   4.032   0.070  0.4674  1.1176 -1.9218
  350TIP3    H222542   3.058   3.981   0.106  1.6743 -0.9369  0.1067
  351TIP3   OH222543   0.771   0.274  16.572 -0.4123  0.3482  0.3045
  351TIP3    H122544   0.696   0.317  16.532 -0.1107  0.4006 -0.2109
  351TIP3    H222545   0.738   0.188  16.598 -0.5637  0.2357 -0.2441
  352TIP3   OH222546   1.578   5.059   0.427 -0.1486 -0.7339 -0.4189
  352TIP3    H122547   1.657   5.010   0.449  0.3348  0.2471  0.0905
  352TIP3    H222548   1.607   5.125   0.364 -0.6055 -0.5279 -0.4188
  353TIP3   OH222549   4.453   6.224  15.248 -0.2916  0.7537 -0.1268
  353TIP3    H122550   4.547   6.211  15.233 -0.4974  0.0441 -0.8181
  353TIP3    H222551   4.443   6.219  15.344  0.1152 -1.0173 -0.1398
  354TIP3   OH222552   3.649   0.322  16.298 -0.1225  0.7229 -0.2404
  354TIP3    H122553   3.641   0.396  16.238  0.9660 -0.9301 -2.6108
  354TIP3    H222554   3.606   0.250  16.252  1.0220 -0.7082  0.8341
  355TIP3   OH222555   3.543   6.664   4.140 -0.2828 -0.1220  0.6451
  355TIP3    H122556   3.587   6.587   4.104  0.0282  0.1875  0.3462
  355TIP3    H222557   3.609   6.705   4.197 -0.7223 -0.5278  1.4590
  356TIP3   OH222558   4.048   0.736   1.590  0.2497 -0.0903 -0.3939
  356TIP3    H122559   4.046   0.770   1.680  2.8121  0.7380 -0.5572
  356TIP3    H222560   4.114   0.667   1.592  3.1094  2.3118 -2.2327
  357TIP3   OH222561   0.031   3.982   6.235  0.1240  0.1199 -0.0879
  357TIP3    H122562   0.117   3.975   6.192 -0.0577  0.3607 -0.5025
  357TIP3    H222563   0.014   3.894   6.268  1.3058  0.4513  1.5387
  358TIP3   OH222564   3.591   0.166  11.876  0.0207  0.3568  0.4768
  358TIP3    H122565   3.661   0.109  11.844  0.4585  1.1592 -0.0238
  358TIP3    H222566   3.612   0.252  11.840 -1.2607  0.5980  0.2805
  359TIP3   OH222567   0.744   4.341   0.121 -0.1962  0.5416 -0.3515
  359TIP3    H122568   0.682   4.343   0.048 -2.0830 -0.3013  1.1398
  359TIP3    H222569   0.814   4.282   0.092 -1.2692 -0.3509 -1.2127
  360TIP3   OH222570   1.382   4.929  13.506  0.4274  0.1792  0.2177
  360TIP3    H122571   1.353   4.839  13.490  1.4438 -0.1067 -0.0598
  360TIP3    H222572   1.434   4.924  13.587  0.5817  0.4994  0.1403
  361TIP3   OH222573   6.399   3.517   3.031  0.0628 -0.0643  0.4831
  361TIP3    H122574   6.473   3.537   2.975 -0.1859 -2.1978 -0.7316
  361TIP3    H222575   6.414   3.426   3.058 -1.4672 -0.1188  1.2595
  362TIP3   OH222576   6.225   2.105  17.173  0.3922 -0.7263 -0.4090
  362TIP3    H122577   6.260   2.090  17.261  1.2544 -1.5451 -0.8712
  362TIP3    H222578   6.267   2.187  17.145  2.4877 -1.9668 -1.1666
  363TIP3   OH222579   5.930   0.870   0.319  0.3243 -0.0947  0.1368
  363TIP3    H122580   5.969   0.928   0.253  2.0391 -0.6217  0.6274
  363TIP3    H222581   5.870   0.926   0.368 -0.4981  0.4568 -1.4286
  364TIP3   OH222582   5.351   4.238  12.104  0.2268 -0.2969 -0.5856
  364TIP3    H122583   5.354   4.147  12.075 -1.1676 -0.8882  0.9692
  364TIP3    H222584   5.258   4.260  12.103  0.4590  0.7786  0.0572
  365TIP3   OH222585   4.116   1.959   3.460  0.3874  0.1459 -0.1895
  365TIP3    H122586   4.073   2.027   3.408  2.1820  0.9190 -0.7479
  365TIP3    H222587   4.120   1.884   3.401 -1.2370 -0.3704  0.2915
  366TIP3   OH222588   3.343   0.340  14.243  0.2994 -0.3219 -0.1190
  366TIP3    H122589   3.426   0.293  14.233  1.2192  0.8351  1.5161
  366TIP3    H222590   3.349   0.412  14.181 -0.5593 -1.5420 -1.7007
  367TIP3   OH222591   5.548   4.278   1.470  0.1967  0.1848  0.4560
  367TIP3    H122592   5.595   4.266   1.387 -0.5919  1.0368 -0.1309
  367TIP3    H222593   5.540   4.189   1.505  2.3167  0.0231  0.6382
  368TIP3   OH222594   0.557   4.699  16.226  0.5947 -0.5069 -0.2880
  368TIP3    H122595   0.546   4.778  16.175 -0.4309 -1.5240 -1.7103
  368TIP3    H222596   0.509   4.716  16.307  0.8122  0.4932 -0.3541
  369TIP3   OH222597   4.443   3.432  16.389  0.2472  0.1688 -0.1514
  369TIP3    H122598   4.352   3.402  16.396  0.8414 -1.6601  0.2413
  369TIP3    H222599   4.468   3.454  16.478  0.9819 -1.9336  0.2175
  370TIP3   OH222600   2.914   4.451  14.897 -0.6992  0.0404  0.6591
  370TIP3    H122601   2.837   4.474  14.846 -1.7176 -1.3492  1.5193
  370TIP3    H222602   2.942   4.366  14.863 -1.3395 -0.8608  2.3098
  371TIP3   OH222603   4.950   3.606   4.462 -0.7032  0.2904  0.1597
  371TIP3    H122604   4.898   3.534   4.497  0.0961  0.2746  1.3778
  371TIP3    H222605   5.025   3.563   4.421 -0.7651  0.3872 -0.0551
  372TIP3   OH222606   4.923   3.862   1.418  0.3647  0.5810  0.0629
  372TIP3    H122607   4.935   3.889   1.509  2.6890 -0.6067  0.2057
  372TIP3    H222608   4.870   3.931   1.379  0.4429  1.8122  1.9850
  373TIP3   OH222609   2.116   2.581   5.446 -0.5725 -0.5895 -0.3950
  373TIP3    H122610   2.211   2.591   5.439 -0.5749  0.0467  0.3342
  373TIP3    H222611   2.084   2.592   5.356 -0.0104 -0.1454 -0.5455
  374TIP3   OH222612   4.936   1.450   5.205  0.1479  0.4246  0.2686
  374TIP3    H122613   4.917   1.362   5.171 -1.2707  0.5770  0.6013
  374TIP3    H222614   4.895   1.452   5.291  1.4820  0.9208  0.9204
  375TIP3   OH222615   1.480   0.858  11.729  0.0865  0.4182  0.8020
  375TIP3    H122616   1.391   0.891  11.717 -0.2486 -0.9191 -0.6667
  375TIP3    H222617   1.521   0.867  11.643  0.7179 -0.8130  0.9533
  376TIP3   OH222618   6.398   1.111  13.153  0.0757 -0.0744  0.2138
  376TIP3    H122619   6.471   1.169  13.133  0.7665 -1.1146 -0.3485
  376TIP3    H222620   6.338   1.166  13.204  0.7042  1.1207 -0.2808
  377TIP3   OH222621   2.461   2.390   5.177 -0.2233  0.6937  0.3267
  377TIP3    H122622   2.460   2.313   5.121  0.5439 -0.6679  2.0879
  377TIP3    H222623   2.527   2.448   5.138  1.2107 -0.7728  0.4485
  378TIP3   OH222624   0.442   4.677  11.704 -0.0356  0.3058  0.2263
  378TIP3    H122625   0.494   4.722  11.771  0.8038  0.0633 -0.2492
  378TIP3    H222626   0.373   4.632  11.753  1.2821 -0.8823  1.0885
  379TIP3   OH222627   3.583   0.565  14.436  0.5602 -0.1530 -0.0435
  379TIP3    H122628   3.649   0.552  14.368 -0.4321 -2.1307 -0.6868
  379TIP3    H222629   3.586   0.659  14.454  1.1314  0.3788 -2.5339
  380TIP3   OH222630   6.575   2.624  15.035  0.3111  0.3064  0.1727
  380TIP3    H122631   6.584   2.700  14.978 -1.1636 -1.0457 -1.9837
  380TIP3    H222632   6.657   2.576  15.024 -0.0967 -0.1243 -1.1556
  381TIP3   OH222633   6.148   4.987  11.673  0.2526  0.2950 -0.2005
  381TIP3    H122634   6.214   4.982  11.603 -0.6291  0.2079 -1.0487
  381TIP3    H222635   6.162   5.072  11.714  0.7218  0.3859 -0.5413
  382TIP3   OH222636   4.624   6.793   2.770 -1.3805 -0.0768  0.4133
  382TIP3    H122637   4.605   6.887   2.767 -1.3365 -0.0082  1.7903
  382TIP3    H222638   4.572   6.761   2.844  0.4204 -0.6927  1.4636
  383TIP3   OH222639   0.838   4.672   4.508  0.3247  0.3823 -0.3123
  383TIP3    H122640   0.879   4.743   4.459  0.4315  0.5022 -0.0498
  383TIP3    H222641   0.751   4.704   4.530  0.4373  0.5010 -0.0400
  384TIP3   OH222642   0.557   5.360   3.714  0.2673 -0.0979 -0.2510
  384TIP3    H122643   0.483   5.418   3.695  0.3441  0.3346  0.7055
  384TIP3    H222644   0.586   5.328   3.629 -0.3978  0.5038 -0.7088
  385TIP3   OH222645   3.312   3.139   1.359  0.1688  0.2145  0.6048
  385TIP3    H122646   3.285   3.194   1.432  0.8141 -0.4499  1.3589
  385TIP3    H222647   3.408   3.146   1.358  0.4557 -2.4151  1.9883
  386TIP3   OH222648   2.686   5.157   3.814 -0.1056 -0.3711  0.4620
  386TIP3    H122649   2.673   5.063   3.826 -1.6470 -0.2826 -0.2292
  386TIP3    H222650   2.728   5.164   3.728  1.0445 -0.4579  0.9955
  387TIP3   OH222651   0.352   5.587  13.872  0.2285 -0.6619  0.0326
  387TIP3    H122652   0.385   5.645  13.803 -0.2375  1.7779  1.7438
  387TIP3    H222653   0.430   5.541  13.904  0.5456 -1.3332 -1.6268
  388TIP3   OH222654   0.695   1.659  13.024 -0.0142 -0.1204 -0.6063
  388TIP3    H122655   0.736   1.588  13.073 -0.4551  0.1487  0.1679
  388TIP3    H222656   0.768   1.703  12.980  0.3972 -0.3364 -0.1508
  389TIP3   OH222657   1.856   3.906   2.153  0.4962  0.1408  0.0445
  389TIP3    H122658   1.817   3.935   2.235 -0.8975  1.0502 -0.9179
  389TIP3    H222659   1.888   3.986   2.111  0.7744 -0.2564 -0.5171
  390TIP3   OH222660   5.271   2.470   1.297 -0.0589 -0.0996 -1.2770
  390TIP3    H122661   5.341   2.523   1.258 -0.8296  1.4612 -0.6178
  390TIP3    H222662   5.209   2.455   1.225  0.0042  0.1732 -1.3893
  391TIP3   OH222663   1.990   1.415   0.561 -0.1178 -0.0546  0.2101
  391TIP3    H122664   1.900   1.387   0.574  0.1702 -0.2700  1.9270
  391TIP3    H222665   1.985   1.510   0.550 -0.4145  0.1595  2.0168
  392TIP3   OH222666   6.189   6.556   6.347 -0.1766 -0.0472 -0.1889
  392TIP3    H122667   6.154   6.576   6.260  0.0070  0.3373 -0.1760
  392TIP3    H222668   6.192   6.640   6.392  1.0011 -0.0213 -0.2839
  393TIP3   OH222669   2.068   6.609   4.017  0.0118  0.1319 -0.0645
  393TIP3    H122670   2.138   6.609   3.952  0.4743 -0.1719  0.4296
  393TIP3    H222671   2.105   6.653   4.093 -0.5106  0.4401  0.0168
  394TIP3   OH222672   5.216   4.048  16.092 -0.4241 -0.0848 -0.6174
  394TIP3    H122673   5.214   3.969  16.145 -2.1760  0.9572  1.0040
  394TIP3    H222674   5.309   4.070  16.084  0.0620 -2.0557 -0.7967
  395TIP3   OH222675   1.331   2.713   4.345  0.4048  0.9808  0.4216
  395TIP3    H122676   1.328   2.770   4.268 -2.6441  0.3314 -0.1112
  395TIP3    H222677   1.245   2.726   4.387  0.8002 -0.9530  1.9698
  396TIP3   OH222678   2.435   6.002   4.253  0.4290 -0.1641 -0.0070
  396TIP3    H122679   2.418   6.058   4.177  0.1278 -0.6956 -0.3433
  396TIP3    H222680   2.394   5.918   4.230  3.3834 -1.5304 -0.8686
  397TIP3   OH222681   5.202   3.394  11.790 -0.5907 -0.0961  0.0187
  397TIP3    H122682   5.265   3.326  11.765  0.0227  0.5204 -0.1620
  397TIP3    H222683   5.162   3.421  11.707  0.1832  0.7295 -0.1031
  398TIP3   OH222684   1.560   6.196  15.722  0.2891 -0.6927 -0.0766
  398TIP3    H122685   1.521   6.266  15.670  0.5452 -0.8058 -0.4289
  398TIP3    H222686   1.635   6.238  15.765 -0.0947 -0.5261  0.4392
  399TIP3   OH222687   4.120   5.298   0.715  0.5899 -0.4417 -0.0662
  399TIP3    H122688   4.052   5.238   0.685 -0.5566  0.8691 -0.2202
  399TIP3    H222689   4.185   5.298   0.645 -0.5355  0.2157 -1.1678
  400TIP3   OH222690   2.022   5.434  14.474  0.3072  0.0814  0.1451
  400TIP3    H122691   1.952   5.478  14.522  0.3650  2.1905 -1.5632
  400TIP3    H222692   1.994   5.343  14.470 -1.1765  0.4258  1.4891
  401TIP3   OH222693   4.676   3.434  14.918  0.2183  0.0639 -0.4198
  401TIP3    H122694   4.633   3.378  14.983  0.3181  1.2015  0.6593
  401TIP3    H222695   4.770   3.419  14.932  0.4187  2.8218  2.1388
  402TIP3   OH222696   1.498   4.400  11.858 -1.1059 -0.1081  0.0566
  402TIP3    H122697   1.511   4.348  11.936 -1.3046  1.0407  0.8856
  402TIP3    H222698   1.405   4.391  11.837 -0.7869 -1.5107 -0.8771
  403TIP3   OH222699   3.264   1.971  16.992  0.4812  0.2043 -0.1850
  403TIP3    H122700   3.258   1.911  17.066 -0.2490  0.6747  0.1454
  403TIP3    H222701   3.346   2.019  17.006  1.3615 -1.0739 -0.7450
  404TIP3   OH222702   1.984   6.493  17.155 -0.0117 -0.3971  0.3297
  404TIP3    H122703   1.965   6.478  17.063  0.5077 -4.6533  0.7193
  404TIP3    H222704   2.079   6.489  17.162  0.0257  0.8615  0.9983
  405TIP3   OH222705   1.483   4.047   4.330  0.1212 -0.4619  0.3339
  405TIP3    H122706   1.532   4.121   4.295  0.5205 -0.4113  0.9867
  405TIP3    H222707   1.400   4.048   4.282 -0.0546  0.6755  0.6364
  406TIP3   OH222708   5.135   6.087   6.470 -0.0971 -0.2638 -0.5451
  406TIP3    H122709   5.229   6.100   6.457  0.4529  0.8757  3.3162
  406TIP3    H222710   5.095   6.164   6.431  0.7381  0.1075 -0.7003
  407TIP3   OH222711   2.423   5.257   5.464  0.7516 -0.5900  0.5772
  407TIP3    H122712   2.483   5.220   5.529  0.6289  0.6833  1.4548
  407TIP3    H222713   2.365   5.185   5.441 -0.8500 -0.5195  3.8167
  408TIP3   OH222714   1.757   3.636   3.863  0.0081  0.0068 -0.4396
  408TIP3    H122715   1.721   3.725   3.865  0.7552  0.3179 -0.7885
  408TIP3    H222716   1.696   3.586   3.808 -1.7933 -0.3259  1.6950
  409TIP3   OH222717   4.492   4.962  11.280 -0.2582  0.1751  0.2683
  409TIP3    H122718   4.520   4.999  11.196  0.1115  0.9042  0.6987
  409TIP3    H222719   4.553   4.999  11.343  0.3940 -1.5373  0.6760
  410TIP3   OH222720   0.831   1.146  14.849 -0.0530  0.4212  0.3866
  410TIP3    H122721   0.818   1.098  14.768  0.4039  0.3001  0.3843
  410TIP3    H222722   0.925   1.149  14.861 -0.0119  2.1028 -0.0795
  411TIP3   OH222723   4.160   1.643  12.832 -0.1106  0.3930  0.0684
  411TIP3    H122724   4.198   1.718  12.877  0.7483 -0.1481  0.2899
  411TIP3    H222725   4.166   1.572  12.896  0.1115 -0.1184 -0.5103
  412TIP3   OH222726   2.525   5.044  11.622  0.2559 -0.2264 -0.1410
  412TIP3    H122727   2.512   4.953  11.595 -0.8094  0.0594 -0.6364
  412TIP3    H222728   2.613   5.066  11.590 -0.5400 -0.2339 -2.4920
  413TIP3   OH222729   5.380   3.487   4.719  0.4680 -0.5193 -0.2840
  413TIP3    H122730   5.414   3.442   4.641  0.4376 -0.0105 -0.5980
  413TIP3    H222731   5.407   3.578   4.707 -0.7379 -0.1628 -0.3776
  414TIP3   OH222732   3.123   3.464   5.478  0.5711 -0.0697  0.6009
  414TIP3    H122733   3.077   3.383   5.500 -1.9006  1.1208  0.0893
  414TIP3    H222734   3.150   3.452   5.387  0.2397 -0.3252  0.5352
  415TIP3   OH222735   1.763   1.693   4.620  0.0548 -0.5441 -0.7062
  415TIP3    H122736   1.726   1.773   4.657  0.2343 -0.9087  0.2786
  415TIP3    H222737   1.826   1.724   4.555 -0.3391  0.1027 -0.7877
  416TIP3   OH222738   6.798   0.575   5.718 -0.5845  0.0258 -0.1786
  416TIP3    H122739   6.721   0.617   5.678 -0.7529 -0.4442 -0.3586
  416TIP3    H222740   6.841   0.530   5.645 -0.4473 -0.1784  0.0267
  417TIP3   OH222741   6.270   3.831   0.749  0.4248 -0.0699 -0.5517
  417TIP3    H122742   6.341   3.883   0.787 -0.4942  0.5923  0.3283
  417TIP3    H222743   6.313   3.771   0.688  1.7673  0.0694  0.2314
  418TIP3   OH222744   1.990   6.404  11.593  0.3434  0.4138  0.0026
  418TIP3    H122745   1.999   6.498  11.578  0.5606  0.7106  1.7372
  418TIP3    H222746   1.909   6.380  11.547  1.6295  0.8574 -2.7018
  419TIP3   OH222747   2.571   5.482   2.514 -0.1376  0.1841  0.2572
  419TIP3    H122748   2.652   5.480   2.464 -0.6738 -0.5446 -0.6058
  419TIP3    H222749   2.600   5.485   2.605  0.8504  0.6348 -0.0513
  420TIP3   OH222750   6.487   3.304  16.432 -0.0125 -0.0612 -0.1208
  420TIP3    H122751   6.576   3.270  16.433  1.1252  2.7023  0.8245
  420TIP3    H222752   6.475   3.338  16.344  0.5027  1.0650  0.2358
  421TIP3   OH222753   1.111   1.458   2.597 -0.1763  0.3617 -0.6368
  421TIP3    H122754   1.028   1.420   2.625 -0.0450 -0.7663 -1.6497
  421TIP3    H222755   1.177   1.411   2.649 -0.0627 -0.2850 -1.3394
  422TIP3   OH222756   1.956   0.196   2.233  0.6167 -0.0526 -0.2216
  422TIP3    H122757   1.954   0.284   2.271 -1.5812 -0.6523  1.2145
  422TIP3    H222758   1.881   0.151   2.272  2.4789 -3.0359  0.1859
  423TIP3   OH222759   5.446   3.572  11.921 -0.2391  0.0503  0.4870
  423TIP3    H122760   5.528   3.583  11.873 -0.4135  1.3293  0.4490
  423TIP3    H222761   5.392   3.646  11.893 -1.8909 -1.4213 -0.4274
  424TIP3   OH222762   6.091   2.333   1.487  0.4382  0.2021 -0.1397
  424TIP3    H122763   6.155   2.346   1.557  1.2899 -0.8793 -0.6910
  424TIP3    H222764   6.079   2.420   1.449  1.0313  0.5488  0.4362
  425TIP3   OH222765   2.409   1.406   4.084 -0.3188  0.0550 -0.1372
  425TIP3    H122766   2.368   1.320   4.099  1.6115 -0.6616  1.5687
  425TIP3    H222767   2.500   1.385   4.062 -0.3974  1.6289 -2.2242
  426TIP3   OH222768   4.634   3.999  13.510 -0.5198 -0.2382 -0.1307
  426TIP3    H122769   4.615   4.015  13.418  1.0853  0.7260 -0.3259
  426TIP3    H222770   4.708   4.055  13.530 -0.1504 -1.2212  1.4852
  427TIP3   OH222771   3.983   4.456  11.832 -0.2582  0.2073  0.0267
  427TIP3    H122772   3.887   4.458  11.838 -0.1808  1.8273  1.5539
  427TIP3    H222773   4.001   4.384  11.772 -2.4251 -0.2105 -0.2315
  428TIP3   OH222774   4.857   3.128  13.303  0.1411 -0.5128  0.4929
  428TIP3    H122775   4.785   3.067  13.290 -0.7090  0.7829 -1.2829
  428TIP3    H222776   4.815   3.212  13.322  1.0578  0.5801 -1.9469
  429TIP3   OH222777   1.137   1.281   4.744  0.3617 -0.2540  0.0271
  429TIP3    H122778   1.136   1.305   4.837  0.1381 -1.2786  0.3089
  429TIP3    H222779   1.222   1.311   4.713  0.1717  0.6994  0.3882
  430TIP3   OH222780   6.511   5.142   5.128 -0.0752 -0.1875  0.0798
  430TIP3    H122781   6.421   5.135   5.096 -0.0249 -1.7608  0.1998
  430TIP3    H222782   6.558   5.186   5.057 -1.0498  1.2659  0.2956
  431TIP3   OH222783   6.410   6.759  12.590 -0.0584  0.3089  0.2084
  431TIP3    H122784   6.481   6.694  12.591 -0.2401  0.0941 -0.3823
  431TIP3    H222785   6.335   6.712  12.626 -0.1233  0.2732  0.0251
  432TIP3   OH222786   4.568   5.470   5.947  0.0832 -0.4133  0.2000
  432TIP3    H122787   4.559   5.527   6.023 -0.4680 -0.1995 -0.0197
  432TIP3    H222788   4.601   5.527   5.878 -1.5672 -0.0653 -0.3475
  433TIP3   OH222789   5.818   5.690  11.660  0.2122  0.1250 -0.2580
  433TIP3    H122790   5.760   5.752  11.705  0.2141  1.0614 -1.5039
  433TIP3    H222791   5.901   5.737  11.651 -0.0579  0.3254 -2.0218
  434TIP3   OH222792   5.755   1.166   2.432  0.2929  0.0193 -0.0725
  434TIP3    H122793   5.834   1.220   2.430 -0.3158  0.9551 -2.5870
  434TIP3    H222794   5.703   1.202   2.504  1.1595  0.9159  0.1267
  435TIP3   OH222795   4.634   5.976   2.702 -0.0968  0.4036  0.2490
  435TIP3    H122796   4.669   5.998   2.615 -2.3539 -0.4786 -0.9776
  435TIP3    H222797   4.675   6.039   2.761  1.6901  0.8816 -1.4139
  436TIP3   OH222798   4.840   5.459  14.066 -0.0396 -0.0687 -0.4020
  436TIP3    H122799   4.897   5.382  14.072  0.0833  0.1002  0.7233
  436TIP3    H222800   4.755   5.424  14.041  0.4079 -0.3806 -1.5853
  437TIP3   OH222801   6.288   1.138  17.161 -0.2460 -0.1096 -0.3533
  437TIP3    H122802   6.230   1.215  17.162  0.1379  0.1869 -0.5532
  437TIP3    H222803   6.293   1.111  17.252 -0.5988 -0.0615 -0.3146
  438TIP3   OH222804   5.803   6.085  14.365 -0.6266  0.0978  0.1828
  438TIP3    H122805   5.763   6.171  14.363 -1.8832 -0.4462  0.9134
  438TIP3    H222806   5.853   6.080  14.283 -0.0821  1.7078  0.3846
  439TIP3   OH222807   4.164   0.072   6.406  0.3549 -0.1342 -0.0676
  439TIP3    H122808   4.113  -0.004   6.374  2.0324 -2.1862  1.8341
  439TIP3    H222809   4.137   0.082   6.497  1.5300  0.3508  0.2374
  440TIP3   OH222810   2.277   4.622  14.462 -0.4562  0.0124 -0.0922
  440TIP3    H122811   2.191   4.580  14.462 -1.1911  1.4497 -1.2132
  440TIP3    H222812   2.264   4.705  14.507  0.3652  0.2304 -0.2398
  441TIP3   OH222813   3.273   4.015  16.043  0.1672  0.3250  0.0728
  441TIP3    H122814   3.359   4.017  16.085  1.0918  0.3486 -1.7295
  441TIP3    H222815   3.245   4.106  16.041  2.1764  0.9975 -3.2771
  442TIP3   OH222816   0.496   2.332   2.497  0.0988  0.0848  0.1149
  442TIP3    H122817   0.402   2.315   2.503  0.4419 -2.4302 -0.5703
  442TIP3    H222818   0.538   2.250   2.523  2.1622  1.3569  1.1460
  443TIP3   OH222819   0.130   4.016  16.512  0.0424  0.1590  0.1265
  443TIP3    H122820   0.213   3.968  16.506  0.9201  1.6497 -0.2465
  443TIP3    H222821   0.117   4.029  16.606  0.4472  0.2687  0.1716
  444TIP3   OH222822   0.448   2.939  12.694  0.3547 -0.1397 -0.3670
  444TIP3    H122823   0.538   2.927  12.666  0.9079  0.5215  1.0098
  444TIP3    H222824   0.446   2.908  12.784 -0.6016  0.5436 -0.1273
  445TIP3   OH222825   2.379   4.154   1.954 -0.6232 -0.4012 -0.0273
  445TIP3    H122826   2.358   4.067   1.986 -0.0354 -0.1649  1.0464
  445TIP3    H222827   2.461   4.144   1.907 -1.4312 -0.7281 -1.4261
  446TIP3   OH222828   0.013   3.523   3.923  0.3095 -0.2242 -0.0967
  446TIP3    H122829  -0.013   3.435   3.896  0.4963 -0.3010 -0.0289
  446TIP3    H222830   0.100   3.511   3.962  0.7226  0.1176 -0.8915
  447TIP3   OH222831   4.451   3.620   4.793  0.2053 -0.0037 -0.4586
  447TIP3    H122832   4.510   3.592   4.723  0.6377  1.1688 -0.5957
  447TIP3    H222833   4.509   3.658   4.859 -0.1485 -1.5472  0.8064
  448TIP3   OH222834   2.265   0.413  11.362 -0.2184 -0.1072 -0.0081
  448TIP3    H122835   2.223   0.435  11.279  0.7625  0.5589 -0.3490
  448TIP3    H222836   2.225   0.473  11.426 -0.2117  0.1227 -0.2180
  449TIP3   OH222837   6.472   4.555  14.332 -0.1285  0.0041 -0.5289
  449TIP3    H122838   6.497   4.557  14.240  0.9239  3.0094 -0.2630
  449TIP3    H222839   6.552   4.576  14.380 -1.4652  2.6786  0.7651
  450TIP3   OH222840   5.517   5.697   3.006  0.3789 -0.1811 -0.6013
  450TIP3    H122841   5.462   5.693   2.928  1.8901 -0.4804 -1.6984
  450TIP3    H222842   5.455   5.699   3.079 -1.1032  1.1915 -1.8238
  451TIP3   OH222843   4.371   2.370   4.019 -0.0635 -0.1242 -0.2992
  451TIP3    H122844   4.392   2.329   3.935 -1.3657 -2.2944  0.3560
  451TIP3    H222845   4.281   2.400   4.009  0.1446  0.6339 -0.0087
  452TIP3   OH222846   5.884   6.464   4.095  0.0502 -0.2382 -0.0587
  452TIP3    H122847   5.825   6.530   4.132 -0.5053 -0.0067 -1.3165
  452TIP3    H222848   5.899   6.492   4.005 -0.0375 -1.7048 -0.5672
  453TIP3   OH222849   3.493   4.931   5.185  0.3924 -0.0353 -0.1236
  453TIP3    H122850   3.554   4.924   5.111 -1.5341 -0.9749 -1.7145
  453TIP3    H222851   3.475   4.841   5.210  0.2951  0.2542  0.9014
  454TIP3   OH222852   6.371   4.895  14.419  0.3587  0.2977 -0.0560
  454TIP3    H122853   6.375   4.817  14.474 -0.2210 -0.0167 -0.4420
  454TIP3    H222854   6.452   4.942  14.438  1.5750 -1.2509 -1.0572
  455TIP3   OH222855   1.435   1.917  11.722  0.4290  0.3524  0.2993
  455TIP3    H122856   1.448   1.900  11.628 -1.7318  1.3251 -0.2166
  455TIP3    H222857   1.433   1.829  11.761 -0.1502 -0.1359 -0.7773
  456TIP3   OH222858   3.013   0.505  16.275  0.0974 -0.2861 -0.5565
  456TIP3    H122859   3.100   0.535  16.302 -0.4218  1.5844 -0.8097
  456TIP3    H222860   2.987   0.566  16.205 -1.9145 -0.0090  0.3571
  457TIP3   OH222861   3.929   0.021  13.856 -0.1819  0.3140  0.6171
  457TIP3    H122862   3.956   0.014  13.948  0.7240 -1.0932  0.2717
  457TIP3    H222863   4.011   0.018  13.807 -0.7746 -2.6912 -0.4010
  458TIP3   OH222864   3.695   3.487   2.083 -0.0014  0.3600 -0.0283
  458TIP3    H122865   3.672   3.502   2.174  0.8822 -2.1661  0.7102
  458TIP3    H222866   3.612   3.490   2.036 -0.4518  1.7859  0.8120
  459TIP3   OH222867   6.701   4.481  14.837 -0.9651 -0.2202  0.1467
  459TIP3    H122868   6.718   4.393  14.870 -1.6028  0.0173  1.1608
  459TIP3    H222869   6.779   4.504  14.787 -0.0402 -0.6964  1.3239
  460TIP3   OH222870   4.202   5.459  16.187 -0.6272  0.3585 -0.1964
  460TIP3    H122871   4.169   5.371  16.165 -1.3275  0.8482 -1.1841
  460TIP3    H222872   4.124   5.514  16.185 -0.3584  0.8318  1.4650
  461TIP3   OH222873   4.778   1.466  11.077  0.3961  0.3403  0.0454
  461TIP3    H122874   4.847   1.510  11.027 -1.4627  2.9814 -0.4364
  461TIP3    H222875   4.710   1.446  11.012 -1.0461  1.6850  1.0521
  462TIP3   OH222876   0.837   1.753   6.730 -0.3528  0.1745 -0.8500
  462TIP3    H122877   0.931   1.772   6.729 -0.5379  1.1070 -1.3381
  462TIP3    H222878   0.830   1.665   6.692  0.3669 -0.1727 -0.2234
  463TIP3   OH222879   6.180   5.023  13.960 -0.3020 -0.0307 -0.0888
  463TIP3    H122880   6.121   5.080  13.911 -0.2842 -0.8661 -1.1294
  463TIP3    H222881   6.133   4.940  13.967  0.7883 -0.7735 -1.1104
  464TIP3   OH222882   4.365   5.427  15.273  0.2805 -0.0470 -0.3191
  464TIP3    H122883   4.335   5.344  15.310 -1.4116 -0.0684 -1.6150
  464TIP3    H222884   4.419   5.466  15.342 -3.3946  0.3691  2.6985
  465TIP3   OH222885   2.186   5.676  13.371  0.8680  0.3699  0.2526
  465TIP3    H122886   2.171   5.583  13.358  0.0551  0.6096 -0.7218
  465TIP3    H222887   2.156   5.694  13.460  0.6374 -0.2256  0.2964
  466TIP3   OH222888   5.765   0.329   3.019  0.1590 -0.0557 -0.0957
  466TIP3    H122889   5.704   0.400   3.002  0.8494  1.3913  2.7912
  466TIP3    H222890   5.851   0.368   3.009  0.5548 -0.5365  1.2245
  467TIP3   OH222891   1.804   4.340   4.653  0.6534  0.1564 -0.4094
  467TIP3    H122892   1.878   4.395   4.627  2.2025 -2.3410 -1.6403
  467TIP3    H222893   1.842   4.275   4.712 -1.1090  0.3098  0.9785
  468TIP3   OH222894   2.666   0.487  11.239 -0.0541 -0.4960  0.3980
  468TIP3    H122895   2.718   0.424  11.290 -0.1130 -1.8760 -1.1520
  468TIP3    H222896   2.605   0.525  11.302  0.6012 -1.3346  1.5703
  469TIP3   OH222897   2.180   0.716  14.327 -0.0971 -0.6104 -0.1942
  469TIP3    H122898   2.147   0.802  14.299 -0.8144 -1.1609 -1.1048
  469TIP3    H222899   2.256   0.736  14.381 -1.8465  0.7220  1.9260
  470TIP3   OH222900   1.046   2.720   5.578  0.6591 -0.0508 -0.5891
  470TIP3    H122901   1.077   2.681   5.496 -1.9803  0.8237 -2.1081
  470TIP3    H222902   1.073   2.657   5.645  1.8789 -1.3875 -2.2226
  471TIP3   OH222903   3.922   4.165  13.239  0.1192 -0.4518 -0.3844
  471TIP3    H122904   4.011   4.130  13.244  0.2190 -0.2516 -0.7178
  471TIP3    H222905   3.902   4.167  13.146  0.4659  1.2229 -0.4554
  472TIP3   OH222906   5.922   4.671  14.584 -0.5677  0.1427 -0.3205
  472TIP3    H122907   6.002   4.722  14.592 -0.7137  0.2224  0.7767
  472TIP3    H222908   5.866   4.723  14.527  0.5923 -0.4885 -2.1216
  473TIP3   OH222909   4.955   4.367  15.735 -0.5767 -0.2017  0.0989
  473TIP3    H122910   4.998   4.381  15.650 -2.0769 -1.8541 -1.0136
  473TIP3    H222911   5.001   4.292  15.773  2.1310  2.3707  2.2795
  474TIP3   OH222912   1.012   0.099   5.373 -0.0808 -0.1008 -0.1904
  474TIP3    H122913   0.995   0.155   5.298  0.0460 -1.0374 -0.9427
  474TIP3    H222914   0.965   0.018   5.353  0.3809 -0.5491  0.5044
  475TIP3   OH222915   6.375   6.358  10.995 -1.2673 -0.7360 -0.2085
  475TIP3    H122916   6.447   6.338  10.936  0.8438 -0.6479  2.1812
  475TIP3    H222917   6.335   6.436  10.957  1.6873  0.9216 -0.2426
  476TIP3   OH222918   0.048   5.748  16.921  0.7098  0.7799  0.3811
  476TIP3    H122919   0.117   5.758  16.987  1.1910 -1.3916  0.2738
  476TIP3    H222920   0.006   5.665  16.943  0.5806  0.2278 -1.7512
  477TIP3   OH222921   0.726   3.261   4.409 -0.0300 -0.9783 -0.3647
  477TIP3    H122922   0.788   3.208   4.458 -0.4194 -1.4976 -0.4186
  477TIP3    H222923   0.640   3.225   4.434 -0.2176 -1.5770 -1.7700
  478TIP3   OH222924   5.914   1.712  14.424 -0.5213  0.1338 -0.2560
  478TIP3    H122925   5.982   1.659  14.383  1.6209  2.7924 -0.4507
  478TIP3    H222926   5.902   1.674  14.510 -0.4222 -1.7194 -1.0253
  479TIP3   OH222927   1.429   5.012  12.146 -0.0121  0.1986  0.6299
  479TIP3    H122928   1.475   4.976  12.221 -0.0357 -1.6843 -0.2046
  479TIP3    H222929   1.447   4.951  12.075 -0.5442  1.5575 -0.7429
  480TIP3   OH222930   5.661   5.764   5.297 -0.0707  0.3952  0.3089
  480TIP3    H122931   5.652   5.726   5.210  0.1708  0.4223  0.2734
  480TIP3    H222932   5.748   5.737   5.327 -0.1073  0.4802  0.4969
  481TIP3   OH222933   3.442   6.618  14.077 -0.2119  0.5779  0.3429
  481TIP3    H122934   3.441   6.709  14.048  0.5877  0.1141 -1.2657
  481TIP3    H222935   3.513   6.614  14.141  1.5131  0.6218 -1.4472
  482TIP3   OH222936   3.126   6.153  13.920  0.1129  0.4083 -0.1931
  482TIP3    H122937   3.192   6.222  13.910  2.1251 -1.4602 -0.5751
  482TIP3    H222938   3.171   6.084  13.968 -1.6546 -0.8774 -0.2852
  483TIP3   OH222939   1.643   5.101   1.619  0.2865  0.3852  0.0292
  483TIP3    H122940   1.621   5.007   1.619  0.7460  0.2070 -2.4975
  483TIP3    H222941   1.653   5.123   1.526  2.3310  2.4336  0.6415
  484TIP3   OH222942   1.416   4.713  15.082 -0.8060  0.0422 -0.2145
  484TIP3    H122943   1.349   4.774  15.051  0.0859  1.2575  0.1599
  484TIP3    H222944   1.428   4.737  15.174 -0.2507 -0.5403 -0.1306
  485TIP3   OH222945   6.636   2.742   6.051 -0.4461  0.9560 -0.1540
  485TIP3    H122946   6.611   2.761   6.141 -1.1326  0.0797 -0.1459
  485TIP3    H222947   6.608   2.818   6.001 -0.8210  1.0825  0.2508
  486TIP3   OH222948   5.944   6.306   6.119 -0.4517  0.2177 -0.3695
  486TIP3    H122949   5.911   6.358   6.045  1.4372  0.8172 -0.8248
  486TIP3    H222950   6.037   6.328   6.125 -0.5596  0.2650  2.2832
  487TIP3   OH222951   6.686   2.710  14.698 -0.0552  0.2810 -0.1250
  487TIP3    H122952   6.601   2.664  14.699  0.0312 -0.0260  2.7646
  487TIP3    H222953   6.743   2.653  14.647 -0.6779 -1.4795  1.0398
  488TIP3   OH222954   6.662   4.799  14.222 -0.0178 -0.5171  0.8521
  488TIP3    H122955   6.681   4.893  14.224  1.0538 -0.7015  0.1373
  488TIP3    H222956   6.601   4.788  14.150  0.4498 -0.4600  0.4434
  489TIP3   OH222957   5.566   0.820   0.441 -0.7233  0.0101  0.1040
  489TIP3    H122958   5.640   0.880   0.451  0.3564 -1.2083 -0.2659
  489TIP3    H222959   5.489   0.874   0.456  0.2785  0.9451  2.3460
  490TIP3   OH222960   3.582   4.088  15.190 -0.3019 -0.3965  0.0886
  490TIP3    H122961   3.616   4.113  15.104  0.3383 -0.9043  0.1891
  490TIP3    H222962   3.500   4.041  15.171  0.3956 -1.4809 -0.3246
  491TIP3   OH222963   4.049   4.056   5.588  0.5042  0.0239 -0.6036
  491TIP3    H122964   4.021   4.140   5.553  0.4800 -0.3804 -1.5867
  491TIP3    H222965   3.972   4.022   5.634  0.2443  0.1568 -0.9388
  492TIP3   OH222966   1.723   5.054  12.732  0.1925  0.2381 -0.0806
  492TIP3    H122967   1.636   5.015  12.742  0.3603  0.0904  0.8745
  492TIP3    H222968   1.749   5.077  12.821  1.2633 -0.0022 -0.3222
  493TIP3   OH222969   1.993   1.976   5.486  1.1455  0.3174  0.2299
  493TIP3    H122970   1.934   1.910   5.523 -1.1990  1.6626 -0.9130
  493TIP3    H222971   2.031   2.020   5.563 -1.8560  1.5427  1.1720
  494TIP3   OH222972   0.503   4.342   4.052 -0.1360  0.6699 -0.2991
  494TIP3    H122973   0.582   4.294   4.027 -0.4675  1.3047 -2.7366
  494TIP3    H222974   0.438   4.274   4.066 -0.1475  0.2665 -2.0791
  495TIP3   OH222975   2.655   4.478  15.910  0.5629  0.0552  0.1187
  495TIP3    H122976   2.680   4.514  15.995 -0.7154  0.9448  0.1489
  495TIP3    H222977   2.620   4.391  15.931 -1.5387  0.9952  0.8070
  496TIP3   OH222978   1.399   0.692  17.140  0.0106  0.2555  0.5121
  496TIP3    H122979   1.464   0.744  17.188 -0.9171  1.4172  0.5638
  496TIP3    H222980   1.332   0.672  17.205 -0.9274  1.2734 -0.1160
  497TIP3   OH222981   4.712   4.522   3.788 -0.1906  0.3827  0.3586
  497TIP3    H122982   4.786   4.488   3.738 -0.2749  0.0385  0.4711
  497TIP3    H222983   4.651   4.449   3.796  0.6127 -0.1320  2.4976
  498TIP3   OH222984   0.338   3.111   0.446 -0.0826  0.2305  0.1045
  498TIP3    H122985   0.272   3.179   0.431 -1.0307 -0.2836  1.7621
  498TIP3    H222986   0.399   3.151   0.508  0.3780  0.1859 -0.3110
  499TIP3   OH222987   3.868   6.095   3.908  0.0327 -0.5683 -0.0716
  499TIP3    H122988   3.907   6.110   3.995  0.3450 -0.0856 -0.2943
  499TIP3    H222989   3.802   6.027   3.923 -0.9824  0.5766  0.8282
  500TIP3   OH222990   0.122   6.653  14.005  0.0626 -0.4116 -0.4633
  500TIP3    H122991   0.182   6.579  14.001 -0.1270 -0.5677 -0.4132
  500TIP3    H222992   0.048   6.627  13.951  0.4665  0.1723 -1.3243
  501TIP3   OH222993   5.761   0.237  13.042  0.1956 -0.2636 -0.0525
  501TIP3    H122994   5.681   0.184  13.036 -0.9197  1.4841 -2.5572
  501TIP3    H222995   5.738   0.307  13.102 -0.6988  0.9229 -1.6856
  502TIP3   OH222996   1.181   2.431  15.481  0.1278  0.1759 -0.0096
  502TIP3    H122997   1.265   2.424  15.526  0.0304 -0.3320  0.0993
  502TIP3    H222998   1.146   2.516  15.508  0.5261  0.3105  0.0821
  503TIP3   OH222999   1.908   3.823  13.574 -0.6801 -0.1070  0.4823
  503TIP3    H123000   1.944   3.904  13.610 -0.7562  0.0662  0.1726
  503TIP3    H223001   1.857   3.851  13.498 -0.1460 -0.5060 -0.0391
  504TIP3   OH223002   2.322   0.920  12.838 -0.5059  0.3994 -0.1012
  504TIP3    H123003   2.315   0.981  12.765  0.4593  1.9924  1.0525
  504TIP3    H223004   2.398   0.951  12.887  0.9408 -2.6257 -0.2092
  505TIP3   OH223005   1.666   1.399  16.530 -0.4064  0.0348  0.0332
  505TIP3    H123006   1.743   1.377  16.477 -0.3731  0.5125 -0.1177
  505TIP3    H223007   1.642   1.316  16.573  1.0766  0.1844  1.2393
  506TIP3   OH223008   6.256   6.086   5.276 -0.4542  0.0796 -0.5198
  506TIP3    H123009   6.275   6.000   5.240  0.6873 -0.2971  0.9279
  506TIP3    H223010   6.166   6.080   5.308 -0.6847 -0.2781 -1.2171
  507TIP3   OH223011   5.144   0.807   0.890  0.3525 -0.8553 -0.4101
  507TIP3    H123012   5.073   0.868   0.867  2.0141  0.7509 -1.6140
  507TIP3    H223013   5.121   0.776   0.977 -1.4199  0.2315 -0.4187
  508TIP3   OH223014   1.748   2.716   0.728 -0.2463  0.3613  0.1449
  508TIP3    H123015   1.696   2.698   0.806 -0.5075  0.0424 -0.0962
  508TIP3    H223016   1.836   2.730   0.761 -0.3137  0.0284  0.4845
  509TIP3   OH223017   5.836   4.791   5.568 -0.8384  0.5394  0.0494
  509TIP3    H123018   5.888   4.770   5.490 -2.8438 -2.4546 -0.6497
  509TIP3    H223019   5.849   4.885   5.580  0.8497  0.8262 -2.9084
  510TIP3   OH223020   4.773   4.512   4.965  0.3657  0.0751 -0.2661
  510TIP3    H123021   4.807   4.562   5.040 -0.0968 -0.1979  0.1286
  510TIP3    H223022   4.829   4.538   4.892  1.1151  0.0110  0.2678
  511TIP3   OH223023   5.178   6.288  15.709  0.0335  0.2286  0.1241
  511TIP3    H123024   5.144   6.339  15.782  1.0731  0.4417  0.4773
  511TIP3    H223025   5.148   6.199  15.725 -1.6886  0.6601 -0.4226
  512TIP3   OH223026   6.115   2.209  12.822 -0.2287  0.4509 -0.1790
  512TIP3    H123027   6.061   2.131  12.810  0.6808  0.1186 -2.8717
  512TIP3    H223028   6.203   2.174  12.838  0.1303  0.9054 -1.1072
  513TIP3   OH223029   2.146   2.121   4.249  0.0721 -0.1260  0.1612
  513TIP3    H123030   2.203   2.196   4.233 -0.3655  0.2185  0.2145
  513TIP3    H223031   2.074   2.156   4.301  0.6871 -0.9021  1.5978
  514TIP3   OH223032   5.897   4.260  16.265  0.9794  0.3845 -0.0582
  514TIP3    H123033   5.843   4.259  16.343  1.6134 -0.5014  0.3951
  514TIP3    H223034   5.878   4.344  16.223 -0.5947  0.1693  0.1654
  515TIP3   OH223035   6.255   5.083   5.031 -0.3975 -0.5568  0.1695
  515TIP3    H123036   6.163   5.093   5.007 -0.3429 -0.8479 -0.1634
  515TIP3    H223037   6.273   4.989   5.021  0.2447 -0.3356 -0.9002
  516TIP3   OH223038   2.018   1.513  12.692  0.0610  0.3528 -0.3425
  516TIP3    H123039   2.085   1.483  12.631  0.3205  4.1549 -2.2024
  516TIP3    H223040   1.937   1.510  12.642 -0.5127 -0.4274  0.5934
  517TIP3   OH223041   6.595   0.648   1.817  0.2569 -0.4920  0.0768
  517TIP3    H123042   6.586   0.582   1.748 -2.4336  1.0166 -1.1912
  517TIP3    H223043   6.514   0.641   1.868  1.1680 -0.0055  1.6803
  518TIP3   OH223044   0.350   0.193   3.735  0.0109  0.2024 -0.1058
  518TIP3    H123045   0.384   0.104   3.725  0.5974  0.0842  2.2429
  518TIP3    H223046   0.258   0.182   3.757 -0.1213  0.2363 -0.6241
  519TIP3   OH223047   3.479   0.767   3.426  0.4868  0.2435  0.3867
  519TIP3    H123048   3.531   0.778   3.346 -1.3940  1.8506 -0.7207
  519TIP3    H223049   3.457   0.856   3.453 -0.1006 -0.3306  1.8984
  520TIP3   OH223050   2.638   4.275  15.542  0.6598 -0.4836 -0.0252
  520TIP3    H123051   2.651   4.314  15.456 -0.7028 -0.0102 -0.0524
  520TIP3    H223052   2.713   4.304  15.594  0.6617  0.5846 -0.5938
  521TIP3   OH223053   5.933   4.805  15.638  0.2683 -0.3102 -0.4589
  521TIP3    H123054   5.840   4.824  15.628 -0.5749 -3.3487  0.6353
  521TIP3    H223055   5.968   4.812  15.549 -0.8092  1.4630 -0.8039
  522TIP3   OH223056   6.574   2.506   2.997  0.0107 -0.1551  0.2362
  522TIP3    H123057   6.577   2.410   2.991 -2.3357 -0.2376 -0.8900
  522TIP3    H223058   6.496   2.530   2.947  0.8817  2.4123 -0.0139
  523TIP3   OH223059   3.830   6.159  12.042  0.3116 -0.1460  0.4883
  523TIP3    H123060   3.905   6.178  11.985  0.3913 -0.8289  0.3625
  523TIP3    H223061   3.803   6.071  12.018 -0.3342 -0.0290  0.7652
  524TIP3   OH223062   6.662   4.688   5.539 -0.7146  0.1558  0.3318
  524TIP3    H123063   6.635   4.621   5.601 -1.1446  1.2108  1.3270
  524TIP3    H223064   6.601   4.760   5.553  1.3948  1.9034  1.3476
  525TIP3   OH223065   5.104   0.516  14.217 -0.7494 -0.4858 -0.8228
  525TIP3    H123066   5.043   0.463  14.267 -0.9009  0.3987 -0.0459
  525TIP3    H223067   5.051   0.588  14.182  0.0008  0.9004  0.7584
  526TIP3   OH223068   3.379   0.505   0.100  0.0461  0.4200 -0.2596
  526TIP3    H123069   3.337   0.491   0.015 -0.8744  3.7556 -0.5162
  526TIP3    H223070   3.311   0.488   0.164  0.3343 -0.7535 -0.2555
  527TIP3   OH223071   2.322   2.625  11.677  0.1971 -0.3669 -0.0162
  527TIP3    H123072   2.298   2.710  11.714 -0.5102 -0.6557  0.2234
  527TIP3    H223073   2.416   2.630  11.664  0.3428  0.0650  1.0426
  528TIP3   OH223074   4.252   4.625  12.154 -0.1441  0.1727  0.3418
  528TIP3    H123075   4.196   4.560  12.198  0.0030  0.4301  0.9179
  528TIP3    H223076   4.326   4.574  12.121 -0.3712 -0.0597  0.1856
  529TIP3   OH223077   6.525   6.623   1.417  0.1096 -0.0462  0.5188
  529TIP3    H123078   6.442   6.650   1.379 -1.4627 -2.6712  1.7466
  529TIP3    H223079   6.506   6.614   1.511  2.0163 -0.0106  0.9554
  530TIP3   OH223080   3.260   2.697   0.069  0.1767  0.6984  0.0408
  530TIP3    H123081   3.200   2.653   0.009 -1.5570 -1.1861  2.9168
  530TIP3    H223082   3.347   2.682   0.031 -0.8495  0.5307 -2.4550
  531TIP3   OH223083   0.521   6.355  16.570 -0.9507  0.1041 -0.1686
  531TIP3    H123084   0.581   6.413  16.524 -0.9215  0.3848  0.2199
  531TIP3    H223085   0.527   6.271  16.523  1.2056 -0.4786  1.0265
  532TIP3   OH223086   2.633   0.791  13.727  0.3445 -0.3831 -0.1912
  532TIP3    H123087   2.666   0.706  13.755  1.0894  0.0345  0.2396
  532TIP3    H223088   2.541   0.791  13.752 -0.2471 -1.8857 -2.1394
  533TIP3   OH223089   0.914   6.398  16.691  0.0207  0.0385  0.2800
  533TIP3    H123090   0.879   6.354  16.614 -0.5052  0.8450  0.0393
  533TIP3    H223091   0.935   6.327  16.752 -3.6991 -0.5285  1.1707
  534TIP3   OH223092   5.905   5.762   4.646 -0.2626 -0.2175  0.3281
  534TIP3    H123093   5.890   5.719   4.562  0.6872 -0.4739  0.2726
  534TIP3    H223094   5.906   5.855   4.627  0.7317 -0.3001 -0.1001
  535TIP3   OH223095   3.557   5.941  14.135  0.5711 -0.1231 -0.0501
  535TIP3    H123096   3.576   5.959  14.227 -0.2195  0.1919  0.0499
  535TIP3    H223097   3.462   5.935  14.130  0.6563 -2.3396 -0.4304
  536TIP3   OH223098   6.204   2.599  16.556 -0.4871 -0.1504 -0.2504
  536TIP3    H123099   6.204   2.545  16.636 -0.0794  0.0791 -0.0956
  536TIP3    H223100   6.120   2.644  16.559 -0.5673 -0.3061 -0.0627
  537TIP3   OH223101   0.651   1.924  12.565  0.1224 -0.3638  0.2498
  537TIP3    H123102   0.591   1.879  12.624  1.2590  0.6831  2.3249
  537TIP3    H223103   0.714   1.857  12.539  1.5704 -0.2133  2.9929
  538TIP3   OH223104   5.478   2.375   4.119 -0.5010 -0.0584 -0.4167
  538TIP3    H123105   5.477   2.347   4.028 -0.8751 -1.0189 -0.1332
  538TIP3    H223106   5.466   2.294   4.169  2.0850  0.0788  0.5894
  539TIP3   OH223107   2.734   6.074  17.064 -0.5357  0.8303 -0.1224
  539TIP3    H123108   2.682   6.068  17.144 -0.8140  1.3864 -0.2571
  539TIP3    H223109   2.691   6.142  17.013 -0.6301  0.1570 -0.9526
  540TIP3   OH223110   0.480   0.046  11.978 -0.0850 -0.0843  0.2666
  540TIP3    H123111   0.436  -0.004  11.909 -2.2788 -1.8240  2.7265
  540TIP3    H223112   0.542  -0.017  12.016  1.5757  1.0593 -0.4249
  541TIP3   OH223113   1.319   3.392   2.938 -0.2155  0.2822 -0.4318
  541TIP3    H123114   1.405   3.350   2.944 -0.4727 -0.1904 -0.0040
  541TIP3    H223115   1.256   3.320   2.951 -0.6729  0.6544 -0.5620
  542TIP3   OH223116   2.887   4.078  13.385  0.0159 -0.5181 -0.3671
  542TIP3    H123117   2.863   4.005  13.327 -2.4813  1.0307 -1.4865
  542TIP3    H223118   2.834   4.065  13.463 -0.9872  0.3929 -0.8617
  543TIP3   OH223119   5.166   3.147   2.030  0.1582 -0.2965 -0.0201
  543TIP3    H123120   5.196   3.153   2.121 -1.7466  0.6633  0.6032
  543TIP3    H223121   5.179   3.055   2.006 -2.8631 -1.6038  2.6258
  544TIP3   OH223122   2.878   2.359  16.844 -0.1663 -0.2097  0.1112
  544TIP3    H123123   2.964   2.321  16.858 -0.3032 -0.2777  0.7945
  544TIP3    H223124   2.878   2.386  16.752  1.1045  1.0944  0.4581
  545TIP3   OH223125   1.016   5.134  15.888 -0.6523  0.4119 -0.7274
  545TIP3    H123126   1.056   5.179  15.814  1.1124 -0.8721 -0.5896
  545TIP3    H223127   1.047   5.182  15.965  1.7647 -1.3095 -0.5360
  546TIP3   OH223128   1.831   1.675  14.753  0.3963 -0.4931  0.4673
  546TIP3    H123129   1.752   1.648  14.708 -0.2640  1.9240  0.0240
  546TIP3    H223130   1.827   1.631  14.838 -2.1955  0.6642  1.0338
  547TIP3   OH223131   4.396   6.611  11.921  0.2819  0.6284  0.4989
  547TIP3    H123132   4.338   6.687  11.917 -0.9460 -0.3160 -0.4308
  547TIP3    H223133   4.484   6.648  11.921 -0.2052  2.0470 -2.1785
  548TIP3   OH223134   0.795   2.582   6.379 -0.8644  0.0838 -0.4080
  548TIP3    H123135   0.783   2.487   6.381 -1.7097  0.1832 -0.2519
  548TIP3    H223136   0.711   2.617   6.408 -0.6071  0.8855 -0.6095
  549TIP3   OH223137   4.095   5.780  14.766 -0.1829 -0.5571  0.6594
  549TIP3    H123138   4.043   5.860  14.768  0.2597 -0.2508  0.2522
  549TIP3    H223139   4.174   5.804  14.717  0.2893 -1.0416  1.1698
  550TIP3   OH223140   5.658   5.063  12.648  0.1781  0.1838 -0.1497
  550TIP3    H123141   5.666   4.972  12.618 -1.4057 -0.2530  0.6602
  550TIP3    H223142   5.674   5.115  12.570  1.4550 -0.7678 -0.5648
  551TIP3   OH223143   5.774   1.515  11.811  0.6506  0.8425 -0.8068
  551TIP3    H123144   5.711   1.551  11.873  0.4365 -0.8505  0.0198
  551TIP3    H223145   5.853   1.568  11.823  0.3560  1.0308  0.3745
  552TIP3   OH223146   6.174   0.414  11.016 -0.0956  0.1919 -0.0443
  552TIP3    H123147   6.196   0.381  11.103 -0.5465 -0.3816 -0.1465
  552TIP3    H223148   6.258   0.442  10.979 -0.1137  2.2864  1.3220
  553TIP3   OH223149   2.961   6.729   3.735  0.0387  0.5827 -0.1958
  553TIP3    H123150   2.943   6.729   3.829  1.6686  0.5896  0.1571
  553TIP3    H223151   3.048   6.770   3.728  0.3881 -0.3456 -1.5972
  554TIP3   OH223152   6.013   4.121  11.618 -0.1382  0.3497  0.3674
  554TIP3    H123153   6.049   4.209  11.606 -3.8733  1.8157 -2.1236
  554TIP3    H223154   5.925   4.136  11.652 -0.5167 -2.5378  0.8889
  555TIP3   OH223155   2.117   6.509   1.768  0.1020  0.2406 -0.2012
  555TIP3    H123156   2.079   6.558   1.841 -1.5333 -0.1103 -0.7633
  555TIP3    H223157   2.210   6.531   1.770  0.0398  0.4846  1.7736
  556TIP3   OH223158   1.708   6.565   0.607  0.0247  0.1971 -0.0552
  556TIP3    H123159   1.614   6.566   0.627 -0.1168 -0.2396 -0.6767
  556TIP3    H223160   1.716   6.618   0.527  0.3069  0.2013 -0.0258
  557TIP3   OH223161   4.674   5.540  16.931 -0.1526  0.0375 -0.3032
  557TIP3    H123162   4.749   5.517  16.877 -1.4783 -1.0216 -1.7740
  557TIP3    H223163   4.651   5.459  16.977  0.3476  0.6763  1.1445
  558TIP3   OH223164   6.159   3.949   5.937 -0.0010 -0.0175  0.5885
  558TIP3    H123165   6.179   3.877   5.876  0.6408  1.7628 -1.4142
  558TIP3    H223166   6.144   3.905   6.021 -0.1959 -2.5326 -0.6583
  559TIP3   OH223167   5.707   1.427   1.655 -0.3087 -0.8276  0.3392
  559TIP3    H123168   5.743   1.353   1.605  0.7804 -1.2244  1.6253
  559TIP3    H223169   5.781   1.457   1.708 -1.2660 -0.0561  1.2655
  560TIP3   OH223170   0.062   0.341  10.565  0.1812 -0.3513 -0.7023
  560TIP3    H123171   0.063   0.313  10.473  0.1393 -1.8942 -0.2604
  560TIP3    H223172  -0.004   0.410  10.568  2.6665  2.4161 -2.5146
  561TIP3   OH223173   1.055   1.089  12.860 -0.5149  0.2765  0.5990
  561TIP3    H123174   1.038   0.999  12.833  1.1882 -0.3616  1.4599
  561TIP3    H223175   1.001   1.102  12.938 -0.8444  0.0451  0.4111
  562TIP3   OH223176   4.880   3.898  16.450 -0.0707 -0.0181  0.7009
  562TIP3    H123177   4.859   3.827  16.511  0.8765  0.0780  1.1457
  562TIP3    H223178   4.794   3.932  16.424 -0.5166  0.8626  3.0677
  563TIP3   OH223179   2.889   4.639   1.991 -0.1245 -0.5117 -0.1731
  563TIP3    H123180   2.827   4.567   1.984 -0.9709  0.2581 -1.0890
  563TIP3    H223181   2.834   4.718   1.992  0.8186  0.2019 -1.1214
  564TIP3   OH223182   4.342   1.305   4.343  0.5709  0.0272  0.0056
  564TIP3    H123183   4.399   1.231   4.323  1.1019 -0.2133  2.2002
  564TIP3    H223184   4.401   1.373   4.374 -0.1483  0.4762  0.4177
  565TIP3   OH223185   6.620   0.006   5.458  0.5299  0.1502  0.2685
  565TIP3    H123186   6.577   0.083   5.419 -0.4567 -0.4806  0.0682
  565TIP3    H223187   6.630   0.028   5.550  0.2649  0.5224  0.2111
  566TIP3   OH223188   5.632   4.776   4.044  0.1545  0.9539 -0.2704
  566TIP3    H123189   5.585   4.859   4.041 -1.6827  0.0917  1.8680
  566TIP3    H223190   5.590   4.722   3.977 -1.2797  0.5584  0.8880
  567TIP3   OH223191   1.730   0.102  13.988 -0.6649 -0.0961  0.3369
  567TIP3    H123192   1.636   0.116  13.978 -0.9634 -1.9193  0.1799
  567TIP3    H223193   1.740   0.007  13.982  0.9516 -0.1044  2.3605
  568TIP3   OH223194   2.511   0.317   4.939  0.1706  0.0777 -0.1634
  568TIP3    H123195   2.578   0.335   4.873 -0.1563 -0.0294 -0.5273
  568TIP3    H223196   2.507   0.398   4.991  1.3929 -0.3140  0.6046
  569TIP3   OH223197   2.849   3.809  12.756 -0.0376 -0.1466 -0.1378
  569TIP3    H123198   2.808   3.890  12.786 -1.0221 -0.5760 -0.2448
  569TIP3    H223199   2.775   3.748  12.746  0.7075 -1.1245  0.1788
  570TIP3   OH223200   1.312   3.976   3.968 -0.0009  0.3544  0.0064
  570TIP3    H123201   1.316   3.956   3.874  0.4742 -0.5141  0.1970
  570TIP3    H223202   1.393   4.022   3.987 -0.9470  2.2891 -0.3636
  571TIP3   OH223203   1.261   3.322  14.388 -0.1955  0.0999  0.1038
  571TIP3    H123204   1.320   3.393  14.361 -0.8952 -0.2198 -2.5972
  571TIP3    H223205   1.184   3.366  14.422  0.3989  0.5597  0.8952
  572TIP3   OH223206   1.825   3.341   1.909 -0.0027 -0.1203  0.0293
  572TIP3    H123207   1.770   3.270   1.877  0.6368 -0.0244 -1.3760
  572TIP3    H223208   1.784   3.369   1.991  0.1183 -2.5660  1.0119
  573TIP3   OH223209   3.900   1.459  12.745 -0.0462 -0.2385  0.4079
  573TIP3    H123210   3.989   1.445  12.713 -0.0100  0.3001  0.2686
  573TIP3    H223211   3.891   1.399  12.818  0.5500 -0.0558  0.6343
  574TIP3   OH223212   3.149   2.641  10.619 -0.1331 -1.1687  1.0788
  574TIP3    H123213   3.054   2.628  10.624 -0.3782 -0.3102 -0.6034
  574TIP3    H223214   3.160   2.732  10.592  1.0853 -1.7433 -0.5563
  575TIP3   OH223215   4.974   4.167  17.240 -0.5470  0.6787  0.3668
  575TIP3    H123216   4.896   4.166  17.184 -0.2228  0.4267 -0.0747
  575TIP3    H223217   5.010   4.255  17.228 -0.2933  0.5156 -0.0733
  576TIP3   OH223218   5.950   2.366  12.953 -0.1711  0.4272  0.3268
  576TIP3    H123219   6.009   2.300  12.916  0.5460 -0.0584  2.2271
  576TIP3    H223220   6.005   2.417  13.012 -1.7066 -0.3070  2.4923
  577TIP3   OH223221   2.525   0.282  11.422  0.0767 -0.1439  1.2932
  577TIP3    H123222   2.462   0.344  11.386 -0.7266 -0.3690  2.2821
  577TIP3    H223223   2.587   0.267  11.350 -1.5924 -0.7517 -0.0791
  578TIP3   OH223224   6.171   0.671   1.199 -0.6160 -0.3331 -0.5262
  578TIP3    H123225   6.222   0.613   1.142 -0.7717 -1.2913  0.2815
  578TIP3    H223226   6.080   0.644   1.185 -0.7657  0.2851 -0.7614
  579TIP3   OH223227   6.014   4.119  14.398 -0.2139 -0.4097 -0.1392
  579TIP3    H123228   6.040   4.204  14.364  2.2907 -1.6094 -1.5079
  579TIP3    H223229   5.970   4.075  14.325  1.0570 -1.2978 -0.4053
  580TIP3   OH223230   2.456   0.059   1.014 -0.2705 -0.2801  0.8081
  580TIP3    H123231   2.427   0.148   0.995 -3.0990 -0.8354  1.9757
  580TIP3    H223232   2.376   0.006   1.008  1.4421 -2.9587 -0.7515
  581TIP3   OH223233   1.150   3.363   4.517 -0.3931 -0.8743  0.2248
  581TIP3    H123234   1.159   3.332   4.607 -1.1054  0.8630  0.9549
  581TIP3    H223235   1.225   3.420   4.503 -1.2944  0.4300  0.4626
  582TIP3   OH223236   1.184   6.499  13.746  0.2904 -0.5336  0.1485
  582TIP3    H123237   1.272   6.501  13.709  0.1108 -1.4029 -0.3526
  582TIP3    H223238   1.161   6.591  13.761  0.8428 -0.2437 -0.7584
  583TIP3   OH223239   4.290   2.324   4.696 -0.1475  0.5298 -0.1260
  583TIP3    H123240   4.263   2.245   4.649 -0.4800  0.0614  0.8186
  583TIP3    H223241   4.344   2.372   4.634  0.0843 -0.4567 -0.7070
  584TIP3   OH223242   5.871   3.602   5.414 -0.1957  0.0137 -0.2713
  584TIP3    H123243   5.924   3.618   5.335  1.2263  0.5779  0.7613
  584TIP3    H223244   5.914   3.529   5.458 -1.7629 -1.1945 -0.6510
  585TIP3   OH223245   0.925   0.027  12.874 -0.3422 -0.1422 -0.2366
  585TIP3    H123246   0.915   0.071  12.958 -0.4590  0.2447 -0.4494
  585TIP3    H223247   0.839   0.037  12.832 -0.7730 -1.6701  0.2279
  586TIP3   OH223248   0.720   5.612   3.198 -0.2610  0.3437  0.0839
  586TIP3    H123249   0.807   5.642   3.222 -0.0857 -1.8714  2.6228
  586TIP3    H223250   0.663   5.642   3.269 -0.6459 -2.2349  0.9744
  587TIP3   OH223251   4.985   1.539   5.924  0.3109 -0.0764 -0.2291
  587TIP3    H123252   4.904   1.553   5.876  0.1285 -3.2335 -1.0004
  587TIP3    H223253   5.014   1.451   5.900  2.2958 -0.3138  2.4748
  588TIP3   OH223254   3.824   1.331  11.389 -0.0680 -0.3661 -0.4605
  588TIP3    H123255   3.869   1.413  11.369  1.2678 -0.3855  2.1397
  588TIP3    H223256   3.738   1.357  11.420 -0.0983 -0.0334 -0.8212
  589TIP3   OH223257   5.650   5.160   2.604 -0.3656 -0.6210 -0.5691
  589TIP3    H123258   5.615   5.233   2.553  0.4698 -0.0931 -0.4141
  589TIP3    H223259   5.656   5.088   2.541  0.5084 -0.0228 -1.1990
  590TIP3   OH223260   1.626   1.464   6.480 -0.0433 -0.3347  0.6880
  590TIP3    H123261   1.624   1.547   6.432  0.9430  0.7125  2.3513
  590TIP3    H223262   1.540   1.459   6.523  0.0977  0.1359  1.0368
  591TIP3   OH223263   0.362   0.078  12.282  0.2628 -0.6994 -0.3520
  591TIP3    H123264   0.425   0.071  12.353  1.9177  0.3272 -1.6398
  591TIP3    H223265   0.321  -0.009  12.277  2.8598 -1.9819 -0.5912
  592TIP3   OH223266   1.745   4.364  13.549  0.1310 -0.2947 -0.4920
  592TIP3    H123267   1.792   4.419  13.612  1.2363 -0.5383 -1.0921
  592TIP3    H223268   1.738   4.419  13.471 -0.3996 -0.3464 -0.4860
  593TIP3   OH223269   0.481   3.045   3.741  0.5462 -0.1772  0.4605
  593TIP3    H123270   0.396   3.031   3.700 -0.2203  2.4138  1.0186
  593TIP3    H223271   0.525   3.110   3.686  0.7823  0.9912  1.9713
  594TIP3   OH223272   1.291   1.838   5.779 -0.0780 -0.0169  0.1098
  594TIP3    H123273   1.361   1.864   5.840  0.0676 -0.9211  0.3514
  594TIP3    H223274   1.338   1.809   5.701 -0.2718  1.3022 -0.5137
  595TIP3   OH223275   2.151   2.726  17.082 -0.0452 -0.9081 -0.1742
  595TIP3    H123276   2.097   2.795  17.046  1.7617  0.1096 -1.0945
  595TIP3    H223277   2.130   2.724  17.175 -1.8044 -0.7473 -0.5485
  596TIP3   OH223278   0.679   2.941  11.730 -0.5196  0.6459 -0.3592
  596TIP3    H123279   0.727   2.990  11.663  0.5257  0.6806  0.3855
  596TIP3    H223280   0.631   2.874  11.681  1.5134 -0.3785 -1.0411
  597TIP3   OH223281   3.585   2.707   4.778 -0.8044  0.4504  0.3767
  597TIP3    H123282   3.491   2.707   4.762 -0.6861 -1.0626 -0.4490
  597TIP3    H223283   3.612   2.797   4.759 -1.8558  0.5369 -0.8860
  598TIP3   OH223284   5.194   1.113   1.026  0.2334 -0.5098  0.0782
  598TIP3    H123285   5.177   1.145   1.115  0.6375  1.0344 -0.3621
  598TIP3    H223286   5.117   1.062   1.003 -0.8750  0.8797  0.5392
  599TIP3   OH223287   3.327   5.810  14.688  0.7384  0.7088 -0.1199
  599TIP3    H123288   3.251   5.765  14.725  2.6893 -1.5322  1.4704
  599TIP3    H223289   3.318   5.798  14.593 -0.7003  0.2210  0.0508
  600TIP3   OH223290   3.950   0.629   5.920 -0.1285 -0.3159  0.0300
  600TIP3    H123291   3.871   0.577   5.931  0.8077 -1.8126  0.0241
  600TIP3    H223292   4.020   0.564   5.907  0.6717  0.9584 -3.1631
  601TIP3   OH223293   2.337   3.637   2.174 -0.2148 -0.1970  0.1674
  601TIP3    H123294   2.380   3.630   2.089 -0.7083  0.6201 -0.1517
  601TIP3    H223295   2.403   3.677   2.231  0.3357 -1.3145  0.3477
  602TIP3   OH223296   1.519   1.571  15.150 -0.2947 -0.2402  0.3572
  602TIP3    H123297   1.598   1.603  15.195 -1.7325  1.3182  1.9216
  602TIP3    H223298   1.498   1.640  15.088 -0.4260 -0.6620 -0.0669
  603TIP3   OH223299   4.502   0.081  16.455 -0.7221  0.6771  0.2828
  603TIP3    H123300   4.485  -0.002  16.410  0.1087  0.1644  0.8834
  603TIP3    H223301   4.441   0.143  16.416 -1.1032 -0.1360 -0.4317
  604TIP3   OH223302   5.558   4.424   3.909  0.2715 -1.2299  0.6953
  604TIP3    H123303   5.614   4.353   3.878 -1.1426 -1.6812 -0.9460
  604TIP3    H223304   5.482   4.380   3.946  0.5956 -0.6028  2.1895
  605TIP3   OH223305   1.693   3.908  12.910  0.3951  0.1410 -0.1449
  605TIP3    H123306   1.731   3.898  12.823  2.3503  1.7205  0.4534
  605TIP3    H223307   1.651   3.824  12.927 -0.2403 -0.1443 -2.6671
  606TIP3   OH223308   3.353   2.103  13.268  0.4342 -0.0776  0.0589
  606TIP3    H123309   3.314   2.148  13.343  0.1224  0.8783 -0.6547
  606TIP3    H223310   3.447   2.109  13.284  0.3663 -0.0864  0.4865
  607TIP3   OH223311   6.111   2.403  11.960  0.1717 -0.4170 -0.3389
  607TIP3    H123312   6.127   2.494  11.982  4.6979 -1.0405 -0.0532
  607TIP3    H223313   6.026   2.383  11.999 -1.1223  3.6579 -0.6758
  608TIP3   OH223314   6.210   1.864  17.052 -0.1072  0.0825 -0.0608
  608TIP3    H123315   6.274   1.818  16.997  0.2282 -0.1449  0.5017
  608TIP3    H223316   6.229   1.957  17.039  0.4599  0.0134  0.2293
  609TIP3   OH223317   0.664   5.345  14.788  0.4056 -0.4666 -0.1679
  609TIP3    H123318   0.710   5.416  14.743  0.1676 -1.2317 -1.6731
  609TIP3    H223319   0.661   5.273  14.725 -2.0671 -0.7660  0.1709
  610TIP3   OH223320   5.355   1.598   2.557  0.4773  0.2895  0.0351
  610TIP3    H123321   5.342   1.635   2.469  1.4615 -2.5944 -1.4610
  610TIP3    H223322   5.431   1.644   2.592  2.9994 -1.5064 -2.6139
  611TIP3   OH223323   4.245   6.541   6.580  0.3018 -0.6297  0.1330
  611TIP3    H123324   4.226   6.565   6.490 -0.9921 -0.2225  0.4882
  611TIP3    H223325   4.331   6.500   6.577  1.1343  1.1078 -1.0017
  612TIP3   OH223326   1.342   4.263  12.529  0.0773 -0.3751 -0.1448
  612TIP3    H123327   1.265   4.286  12.477  1.8685  1.8398 -2.0418
  612TIP3    H223328   1.352   4.336  12.590  1.4127  0.1044 -0.8923
  613TIP3   OH223329   1.353   3.694   0.589  0.2791  0.0043  0.0151
  613TIP3    H123330   1.258   3.685   0.574  0.2812  0.5653 -0.3697
  613TIP3    H223331   1.392   3.622   0.539 -0.0030 -0.8767  1.0325
  614TIP3   OH223332   1.312   1.542   6.380  0.2045 -0.5335  0.3115
  614TIP3    H123333   1.307   1.452   6.410 -0.4670 -0.3094  0.9091
  614TIP3    H223334   1.249   1.547   6.308  0.1187 -0.4986  0.3893
  615TIP3   OH223335   2.598   1.008   0.145 -0.2709  0.4020  0.2490
  615TIP3    H123336   2.558   0.947   0.083  1.9536 -0.3824 -0.5022
  615TIP3    H223337   2.666   0.957   0.190  0.8765  1.9916  0.4305
  616TIP3   OH223338   3.035   2.412  14.523  0.7736 -0.1369 -0.0480
  616TIP3    H123339   3.035   2.400  14.428 -1.9132 -1.9328  0.0680
  616TIP3    H223340   2.980   2.341  14.556 -1.7249  2.6866  2.5070
  617TIP3   OH223341   5.384   3.391  15.805  0.6261  0.0009 -0.2749
  617TIP3    H123342   5.449   3.440  15.855  0.9128  0.8128 -1.4079
  617TIP3    H223343   5.300   3.427  15.832  0.7920  0.5626 -0.4963
  618TIP3   OH223344   2.424   3.069  11.335  0.0964 -0.2121 -0.2756
  618TIP3    H123345   2.407   3.042  11.245 -3.2093  1.1443 -0.2230
  618TIP3    H223346   2.489   3.139  11.328 -1.3711  1.0710 -1.8753
  619TIP3   OH223347   0.048   1.905  12.265  0.5928 -0.0146 -0.7820
  619TIP3    H123348  -0.019   1.888  12.331 -1.8320  0.5634 -2.9248
  619TIP3    H223349   0.045   2.000  12.252  2.0077  0.0512 -0.8176
  620TIP3   OH223350   2.667   5.140  15.295 -0.6721  0.1903  0.0327
  620TIP3    H123351   2.620   5.073  15.247 -2.6546  1.4295  0.1236
  620TIP3    H223352   2.615   5.155  15.374  1.2261 -0.1007  1.4189
  621TIP3   OH223353   0.974   3.236   5.476 -0.1285 -0.1245  0.1974
  621TIP3    H123354   1.035   3.176   5.433  0.3844  0.7127 -0.2782
  621TIP3    H223355   0.930   3.182   5.543  0.0689 -1.0962 -0.4357
  622TIP3   OH223356   4.489   5.928  17.045  0.1638 -0.2941  0.0496
  622TIP3    H123357   4.569   5.895  17.002 -1.5159 -2.4737 -1.6245
  622TIP3    H223358   4.452   5.852  17.088 -0.0925  1.1112  2.5115
  623TIP3   OH223359   2.609   1.786   0.566 -0.4415 -0.3130  0.1433
  623TIP3    H123360   2.608   1.692   0.580  1.6417 -0.5796 -1.0843
  623TIP3    H223361   2.674   1.818   0.629 -1.3953  0.3806  0.8058
  624TIP3   OH223362   3.844   3.257  15.751  0.1501  0.0352 -0.0108
  624TIP3    H123363   3.937   3.277  15.735  0.7732 -2.1339  0.5968
  624TIP3    H223364   3.824   3.302  15.833  0.5667  0.7356 -0.2789
  625TIP3   OH223365   4.321   3.827   3.530 -0.1899  0.1742  0.4114
  625TIP3    H123366   4.226   3.833   3.538 -0.2753 -1.0864  0.5382
  625TIP3    H223367   4.350   3.917   3.515 -1.4377  0.5170 -0.0410
  626TIP3   OH223368   4.668   4.066   4.559  0.5757 -0.3677  0.1561
  626TIP3    H123369   4.680   4.052   4.653  2.3090 -1.6086 -0.1827
  626TIP3    H223370   4.627   3.985   4.527 -0.3829  0.2081 -0.1175
  627TIP3   OH223371   5.484   6.349  16.203 -0.1626  0.2476 -0.1831
  627TIP3    H123372   5.503   6.265  16.161 -0.1360  0.0238  0.2736
  627TIP3    H223373   5.410   6.384  16.154 -0.5624 -0.3258  0.0066
  628TIP3   OH223374   0.163   3.652  14.018 -0.0248 -0.0662 -0.4303
  628TIP3    H123375   0.080   3.699  14.012 -0.2731 -0.6587 -2.2524
  628TIP3    H223376   0.158   3.607  14.103 -1.7414 -0.3930 -0.6520
  629TIP3   OH223377   0.119   5.358   5.315  0.5780 -0.0351  0.3550
  629TIP3    H123378   0.166   5.306   5.381 -0.4962  1.1781  2.1669
  629TIP3    H223379   0.163   5.443   5.317  0.1285  0.2051 -0.0369
  630TIP3   OH223380   2.406   1.457  15.287  0.5923 -0.2100  0.3443
  630TIP3    H123381   2.382   1.365  15.302 -0.4544  0.0979  0.6828
  630TIP3    H223382   2.361   1.505  15.357 -0.5225  0.7696 -0.9733
  631TIP3   OH223383   1.082   5.292  10.793  0.0084 -0.4356 -0.2908
  631TIP3    H123384   1.052   5.201  10.800 -0.0589 -0.4138 -0.2993
  631TIP3    H223385   1.130   5.294  10.710 -1.2434 -0.1032 -1.0320
  632TIP3   OH223386   3.209   6.341  15.748  0.6974  0.2756  0.3705
  632TIP3    H123387   3.138   6.334  15.812  0.2465  1.5514  0.0438
  632TIP3    H223388   3.216   6.254  15.710 -1.5143  0.3838 -0.4261
  633TIP3   OH223389   4.062   5.359   1.182  0.4106  0.0211 -0.3820
  633TIP3    H123390   3.993   5.396   1.127 -1.0033 -0.6666  0.8908
  633TIP3    H223391   4.067   5.418   1.257 -0.3910 -1.1526  0.6259
  634TIP3   OH223392   0.364   3.760  14.447 -0.2402  0.0827 -0.5765
  634TIP3    H123393   0.374   3.715  14.363  0.0354 -2.3568  0.6652
  634TIP3    H223394   0.292   3.715  14.490 -1.0961  2.0005  0.1112
  635TIP3   OH223395   1.621   3.939  15.725 -0.0085 -0.0777  0.0780
  635TIP3    H123396   1.539   3.908  15.764  0.2266 -1.4504 -0.4719
  635TIP3    H223397   1.689   3.892  15.772  0.3208 -1.0387 -1.2827
  636TIP3   OH223398   1.906   4.730   2.467  0.0197 -0.0144 -0.4597
  636TIP3    H123399   1.878   4.667   2.534 -0.4390  1.2879  0.6182
  636TIP3    H223400   1.998   4.709   2.451  0.2588 -0.0605  0.9097
  637TIP3   OH223401   1.888   6.259   4.833 -0.0873  0.0103 -0.0554
  637TIP3    H123402   1.880   6.285   4.925 -1.4493  2.3715 -0.7535
  637TIP3    H223403   1.930   6.173   4.836  1.5547  0.7719  2.6906
  638TIP3   OH223404   6.388   3.366   1.764  0.3119  0.5403  0.2163
  638TIP3    H123405   6.388   3.288   1.819 -1.6016  0.9182  0.8389
  638TIP3    H223406   6.468   3.414   1.791 -0.3333  0.5091  2.4304
  639TIP3   OH223407   2.097   0.937  12.084  1.2586 -0.2536 -0.2160
  639TIP3    H123408   2.030   0.906  12.144  1.4328  2.9676  1.8815
  639TIP3    H223409   2.178   0.895  12.114  0.8717 -0.8476 -0.0034
  640TIP3   OH223410   6.073   4.939   4.585  0.8986  0.0804  0.3875
  640TIP3    H123411   6.127   4.861   4.599  0.3100 -0.3495  0.3169
  640TIP3    H223412   6.019   4.916   4.509  1.5951  1.0342 -0.4209
  641TIP3   OH223413   3.633   1.933   2.632  0.2959 -0.3505  0.4112
  641TIP3    H123414   3.668   1.951   2.720  1.2374  0.1712 -0.0606
  641TIP3    H223415   3.563   1.869   2.647  0.7062 -0.5649  1.4989
  642TIP3   OH223416   2.605   2.738   0.912  0.5020  0.7232 -0.1658
  642TIP3    H123417   2.586   2.665   0.971 -1.0010  0.6011 -0.7550
  642TIP3    H223418   2.625   2.696   0.828  2.3303  0.9083  0.1470
  643TIP3   OH223419   4.365   0.001   5.164  0.0407  0.2968 -0.0075
  643TIP3    H123420   4.454  -0.034   5.162 -0.4966 -1.2216 -2.8289
  643TIP3    H223421   4.365   0.070   5.098 -0.9729 -0.0320 -0.3690
  644TIP3   OH223422   0.159   1.146  17.169  0.6444 -0.0517  0.4650
  644TIP3    H123423   0.154   1.214  17.101  3.5375 -1.9044 -1.9064
  644TIP3    H223424   0.215   1.184  17.236  1.6914  0.2231 -0.5234
  645TIP3   OH223425   1.633   6.740   4.375  0.0122  0.4495 -0.1874
  645TIP3    H123426   1.604   6.766   4.463  0.5339  2.1098 -0.4618
  645TIP3    H223427   1.570   6.782   4.316 -0.2855 -0.5861 -0.6174
  646TIP3   OH223428   4.184   4.041   0.686 -0.0378 -0.0223  0.1296
  646TIP3    H123429   4.247   4.044   0.758 -0.3982  1.6476  0.4123
  646TIP3    H223430   4.232   4.000   0.614  0.3677 -1.5898  1.2561
  647TIP3   OH223431   4.489   6.132  11.542  0.2016 -0.3513  0.3847
  647TIP3    H123432   4.455   6.217  11.515  0.4112 -0.3333  0.1751
  647TIP3    H223433   4.548   6.152  11.615  1.6932 -0.0965 -0.8297
  648TIP3   OH223434   2.084   5.200   1.166 -0.2672 -0.2438  0.2207
  648TIP3    H123435   2.166   5.171   1.208  0.1696  1.4961  0.6319
  648TIP3    H223436   2.028   5.123   1.169  1.7834 -1.9349 -1.2745
  649TIP3   OH223437   3.199   2.961   1.960 -0.0435  0.1066 -0.1178
  649TIP3    H123438   3.225   3.017   2.033  3.1478 -0.5555 -0.5930
  649TIP3    H223439   3.164   2.881   2.002 -0.3740  0.6152  0.6051
  650TIP3   OH223440   5.849   3.994  17.100  0.2183  0.2236 -0.2981
  650TIP3    H123441   5.880   3.930  17.036 -0.0924 -0.8358  0.5670
  650TIP3    H223442   5.899   4.073  17.081  1.6037 -0.6684 -0.5791
  651TIP3   OH223443   3.919   4.150  15.211  0.0599  0.1311 -0.2051
  651TIP3    H123444   3.872   4.078  15.254  1.5490 -1.2850 -0.8274
  651TIP3    H223445   4.005   4.150  15.252 -0.2247  2.2910  0.5044
  652TIP3   OH223446   4.310   4.902  17.031 -0.2750 -0.0359  0.0732
  652TIP3    H123447   4.222   4.894  17.067 -0.9820  3.6290 -0.4184
  652TIP3    H223448   4.296   4.937  16.943  1.6561  0.7513  0.0357
  653TIP3   OH223449   4.083   1.590  13.798 -0.6677 -0.5236 -0.0729
  653TIP3    H123450   4.116   1.638  13.721  0.7422 -0.3218  0.6202
  653TIP3    H223451   4.035   1.516  13.761 -2.6383  1.2012 -1.1711
  654TIP3   OH223452   0.587   6.109   5.168  0.3315 -0.2400  0.1345
  654TIP3    H123453   0.602   6.191   5.123 -1.7331  0.1453  0.0468
  654TIP3    H223454   0.626   6.121   5.255 -0.5672  1.1082  0.3726
  655TIP3   OH223455   3.470   5.967  15.796  0.3460  0.7028  0.8552
  655TIP3    H123456   3.395   5.910  15.811  0.1199  1.1810  1.5906
  655TIP3    H223457   3.480   6.016  15.878  1.4452  0.6607  0.7639
  656TIP3   OH223458   5.059   6.504  13.203 -0.6756  0.4370  0.1070
  656TIP3    H123459   5.024   6.482  13.290 -1.1538 -0.6776 -0.3445
  656TIP3    H223460   5.106   6.586  13.216  3.3347 -1.9060  2.4989
  657TIP3   OH223461   5.575   1.136   3.008 -0.0477  0.3221 -0.1819
  657TIP3    H123462   5.537   1.220   2.983 -1.1160 -0.1951 -0.3492
  657TIP3    H223463   5.515   1.100   3.072  0.9085  0.1007  0.6217
  658TIP3   OH223464   0.940   0.803  13.054  0.2274  0.1134 -0.6706
  658TIP3    H123465   0.955   0.896  13.043 -0.2514  0.0294 -2.4837
  658TIP3    H223466   0.859   0.797  13.105 -0.3656  0.7314 -1.5071
  659TIP3   OH223467   2.599   1.791   1.480 -0.3435 -0.2439 -0.3987
  659TIP3    H123468   2.506   1.766   1.483 -0.2604 -0.7024 -1.3473
  659TIP3    H223469   2.634   1.762   1.564 -0.6731 -1.6474 -0.7346
  660TIP3   OH223470   6.294   4.568   1.942 -0.0516 -0.4586  0.0276
  660TIP3    H123471   6.348   4.531   2.011  2.4934 -0.0976 -1.6286
  660TIP3    H223472   6.346   4.556   1.862 -1.9052  1.0472 -1.5027
  661TIP3   OH223473   4.968   1.009   3.468  0.0151 -0.0596 -0.3829
  661TIP3    H123474   4.914   0.971   3.537  0.4873  1.4540  0.8542
  661TIP3    H223475   4.953   1.103   3.475  1.7672  0.2803 -0.9014
  662TIP3   OH223476   3.448   2.658   1.590  0.1797 -0.0313  0.4406
  662TIP3    H123477   3.481   2.672   1.678  3.1295  0.9026 -0.6822
  662TIP3    H223478   3.514   2.604   1.547 -1.3017 -0.6890 -1.1538
  663TIP3   OH223479   2.236   0.973   6.334  0.0047 -0.4281  0.1933
  663TIP3    H123480   2.211   0.889   6.295 -0.4115  0.2272 -0.9969
  663TIP3    H223481   2.313   1.000   6.284 -0.5043  0.4013 -0.1643
  664TIP3   OH223482   2.302   2.779  12.140 -0.3308 -0.2463  0.1607
  664TIP3    H123483   2.262   2.794  12.225  1.9408 -0.5220  1.3634
  664TIP3    H223484   2.275   2.855  12.088 -1.0141  0.4129  1.4188
  665TIP3   OH223485   2.223   5.163   4.050 -0.3028 -0.1578  0.4659
  665TIP3    H123486   2.313   5.161   4.082 -0.3141  1.3856  0.6914
  665TIP3    H223487   2.229   5.133   3.960  1.1477  3.7007 -0.9211
  666TIP3   OH223488   0.513   3.228   2.009  0.4665  0.1745 -0.4013
  666TIP3    H123489   0.488   3.311   1.968  2.1978  1.4372  0.8955
  666TIP3    H223490   0.609   3.226   2.002  0.5376 -1.1917  0.5704
  667TIP3   OH223491   6.574   5.260  16.391 -0.0380 -0.4403  0.2199
  667TIP3    H123492   6.487   5.221  16.384 -1.2287  1.9207  0.7235
  667TIP3    H223493   6.573   5.334  16.330  1.9681 -0.8589 -0.4174
  668TIP3   OH223494   5.981   6.392   4.858  0.6613 -0.2536  0.0107
  668TIP3    H123495   6.006   6.396   4.951 -0.4157  1.2556  0.2773
  668TIP3    H223496   6.053   6.436   4.812  1.4502 -1.4676  0.0508
  669TIP3   OH223497   3.291   6.678  12.566  0.3922  0.4909 -0.2035
  669TIP3    H123498   3.245   6.631  12.496  0.1750 -2.2327  1.6282
  669TIP3    H223499   3.229   6.680  12.638  1.3245  1.4606  0.6104
  670TIP3   OH223500   6.437   3.844  15.902  0.9372 -0.7277  0.3291
  670TIP3    H123501   6.373   3.899  15.947 -1.1081 -0.3849 -2.7127
  670TIP3    H223502   6.508   3.904  15.880 -0.1667  0.2099 -0.8464
  671TIP3   OH223503   0.929   6.573  15.627 -0.4482 -0.5260  1.2641
  671TIP3    H123504   0.865   6.507  15.598 -0.5857  0.7672 -1.6691
  671TIP3    H223505   1.014   6.532  15.611 -0.5137  0.2351 -1.4439
  672TIP3   OH223506   0.172   1.756  17.144 -0.1404 -0.5387 -0.4631
  672TIP3    H123507   0.236   1.703  17.097  0.6386  1.0815 -1.3290
  672TIP3    H223508   0.220   1.794  17.217  0.2730  1.5493 -1.7252
  673TIP3   OH223509   2.523   5.589   3.431 -0.0758 -0.5877  0.6016
  673TIP3    H123510   2.560   5.602   3.344  1.5523  1.5302  1.5213
  673TIP3    H223511   2.578   5.522   3.471  2.5195  1.9683  1.6692
  674TIP3   OH223512   5.692   5.508  11.475  0.7845  0.3822 -0.0941
  674TIP3    H123513   5.747   5.432  11.455  0.4189  0.1861 -0.3622
  674TIP3    H223514   5.727   5.542  11.557  0.4760 -0.5252  0.4279
  675TIP3   OH223515   2.649   6.253   1.688 -0.2144  0.0748  0.1041
  675TIP3    H123516   2.618   6.343   1.679  0.1427  0.1998  0.0825
  675TIP3    H223517   2.589   6.213   1.751 -2.6395 -0.7551 -2.5681
  676TIP3   OH223518   1.609   0.100   4.165  0.2012  0.5187  0.4743
  676TIP3    H123519   1.623   0.155   4.243 -1.1565  1.5471  0.0238
  676TIP3    H223520   1.696   0.089   4.128  1.1749 -1.4328  3.0438
  677TIP3   OH223521   6.067   6.628   5.406  0.1587 -0.2765 -0.0774
  677TIP3    H123522   6.036   6.626   5.316  1.3574 -0.7286 -0.5031
  677TIP3    H223523   6.107   6.714   5.416 -0.9603  0.2012  0.3827
  678TIP3   OH223524   2.020   2.321   5.474  0.0298  0.1358  0.3241
  678TIP3    H123525   2.114   2.339   5.481 -0.0660  0.4813  0.7734
  678TIP3    H223526   1.982   2.403   5.444  0.0234 -0.3861 -1.1636
  679TIP3   OH223527   1.745   5.304   4.050  0.5928 -0.3424  0.0470
  679TIP3    H123528   1.686   5.355   3.995  0.1794 -0.3958  0.4306
  679TIP3    H223529   1.687   5.257   4.110  1.0849  1.2429  1.8536
  680TIP3   OH223530   4.159   1.180   4.019 -0.0709  0.1920  0.2316
  680TIP3    H123531   4.117   1.190   3.934  0.9836 -0.6454 -0.4155
  680TIP3    H223532   4.089   1.194   4.082 -1.1554 -0.4448 -0.7925
  681TIP3   OH223533   4.272   3.406  11.106  0.3853 -0.4214  0.2817
  681TIP3    H123534   4.302   3.354  11.031  0.3578 -0.6481  0.4278
  681TIP3    H223535   4.199   3.355  11.143 -0.0692  0.0399  0.0338
  682TIP3   OH223536   0.918   2.263  15.293  0.3024  0.2533 -0.1624
  682TIP3    H123537   0.977   2.245  15.220  2.1593 -0.9736  1.5320
  682TIP3    H223538   0.882   2.350  15.274  1.3141  0.2972 -2.1194
  683TIP3   OH223539   4.030   5.229  16.115 -0.3255 -0.4414 -0.5226
  683TIP3    H123540   3.942   5.245  16.081  0.1103 -0.6752 -1.8230
  683TIP3    H223541   4.074   5.182  16.045  1.2526  0.8349 -0.4318
  684TIP3   OH223542   6.799   0.968   5.696 -0.4417  0.7273 -0.0220
  684TIP3    H123543   6.873   0.919   5.661 -1.5598 -0.3210 -1.0248
  684TIP3    H223544   6.791   1.044   5.640 -0.1075  0.8651  0.1152
  685TIP3   OH223545   1.775   4.857  13.854 -0.2567  0.4453  0.1363
  685TIP3    H123546   1.781   4.787  13.918 -0.1443  0.0737 -0.2713
  685TIP3    H223547   1.811   4.819  13.774  2.2607  1.7965  0.5393
  686TIP3   OH223548   6.409   3.011   0.548  0.3241 -0.2888 -0.4098
  686TIP3    H123549   6.437   2.963   0.625 -0.2317  0.0340 -0.0024
  686TIP3    H223550   6.484   3.067   0.526 -0.2356  1.1603  1.1462
  687TIP3   OH223551   5.445   2.294   1.674 -0.1564 -0.3506  0.6812
  687TIP3    H123552   5.531   2.325   1.645  0.0345 -0.8792  0.6698
  687TIP3    H223553   5.462   2.255   1.760 -0.6577  0.8853  1.3744
  688TIP3   OH223554   1.668   6.319  14.496  0.0778 -1.2039 -0.2844
  688TIP3    H123555   1.738   6.336  14.434 -0.3792 -1.8573 -1.0001
  688TIP3    H223556   1.679   6.227  14.521 -0.4816 -1.2959 -0.3632
  689TIP3   OH223557   1.104   5.397   1.656 -0.0650  0.5062 -0.2655
  689TIP3    H123558   1.192   5.384   1.693  0.1728 -1.0128 -1.2655
  689TIP3    H223559   1.057   5.446   1.723  0.6642 -1.2017  1.5749
  690TIP3   OH223560   2.204   1.280  16.490  0.2703  0.1110  0.5210
  690TIP3    H123561   2.237   1.221  16.558  2.8555  0.2148 -0.5387
  690TIP3    H223562   2.201   1.366  16.533  1.3574  0.0817  0.6744
  691TIP3   OH223563   1.588   6.790  16.719  0.0684 -0.0736 -0.3197
  691TIP3    H123564   1.516   6.735  16.751 -0.0370  0.2365 -0.0058
  691TIP3    H223565   1.621   6.833  16.798  0.4699 -0.0645 -0.4924
  692TIP3   OH223566   4.865   0.797   4.872 -0.8655  0.0217 -0.1145
  692TIP3    H123567   4.874   0.739   4.796  2.2814 -2.5765  1.9437
  692TIP3    H223568   4.916   0.874   4.849  1.3583 -1.3919 -0.2048
  693TIP3   OH223569   4.315   0.577   3.529  0.0890  0.4270 -0.3227
  693TIP3    H123570   4.246   0.520   3.496  0.7722 -0.1741 -0.7685
  693TIP3    H223571   4.360   0.608   3.450 -0.6342  2.0745 -0.1195
  694TIP3   OH223572   4.605   1.692   3.285 -0.4280  0.2501  0.7539
  694TIP3    H123573   4.580   1.702   3.193  1.5505  1.9655  0.3211
  694TIP3    H223574   4.673   1.625   3.284 -0.2075  0.4688  0.9107
  695TIP3   OH223575   5.866   5.613  14.967 -0.2024  0.1929  0.3177
  695TIP3    H123576   5.813   5.574  14.898  0.5771  1.7557 -1.2606
  695TIP3    H223577   5.807   5.620  15.043 -1.6075 -0.0103 -0.7287
  696TIP3   OH223578   1.682   6.353  10.164  0.0818  0.2045  0.4357
  696TIP3    H123579   1.688   6.429  10.106 -0.3655 -0.6724 -0.8008
  696TIP3    H223580   1.590   6.350  10.191 -0.2345 -0.6556 -0.6360
  697TIP3   OH223581   4.640   3.200  12.076 -0.1868 -0.1276  0.1385
  697TIP3    H123582   4.656   3.120  12.025 -2.9030 -2.0129  1.9986
  697TIP3    H223583   4.598   3.260  12.014  2.4139  0.2475 -1.4428
  698TIP3   OH223584   4.523   4.381   0.356  0.0991 -0.7115  0.4687
  698TIP3    H123585   4.471   4.436   0.297  0.8249 -1.1687 -0.6323
  698TIP3    H223586   4.525   4.429   0.438  1.5371  1.4131 -0.7268
  699TIP3   OH223587   1.501   3.784   4.467 -0.4335 -0.3074  0.3249
  699TIP3    H123588   1.536   3.777   4.378 -0.9992 -1.4309  0.1619
  699TIP3    H223589   1.473   3.875   4.475  0.6514  0.0956 -0.2382
  700TIP3   OH223590   2.053   5.076  12.398 -0.7153  0.0470  0.2708
  700TIP3    H123591   2.148   5.085  12.400 -0.3220 -2.0428 -2.6197
  700TIP3    H223592   2.022   5.159  12.362  0.4202 -0.4502 -2.0597
  701TIP3   OH223593   4.786   5.744   4.847  0.1483  0.2491 -0.1873
  701TIP3    H123594   4.695   5.765   4.824  0.0353 -1.7673 -1.8939
  701TIP3    H223595   4.826   5.829   4.863 -1.7624  1.2839 -0.4918
  702TIP3   OH223596   3.814   0.536   5.548  0.1933 -0.7371 -0.0226
  702TIP3    H123597   3.890   0.490   5.512  0.7765  0.0851  0.1362
  702TIP3    H223598   3.798   0.608   5.487  0.4192 -0.0751  0.6782
  703TIP3   OH223599   6.716   6.534   0.996  0.2580  0.5195  0.3397
  703TIP3    H123600   6.760   6.619   0.985  1.4655  0.0211  1.1580
  703TIP3    H223601   6.670   6.521   0.913  1.8160  0.9977 -0.6650
  704TIP3   OH223602   4.089   6.786   0.638  0.1034 -0.9527  0.1690
  704TIP3    H123603   4.142   6.848   0.588 -2.8120  1.7345  0.0733
  704TIP3    H223604   4.094   6.817   0.728 -2.6905  0.6016 -0.1205
  705TIP3   OH223605   3.542   1.863  11.867 -0.4815 -0.0741  0.5631
  705TIP3    H123606   3.453   1.839  11.891  0.3570 -2.3729  1.7128
  705TIP3    H223607   3.595   1.831  11.940  1.4009  0.1037 -0.6619
  706TIP3   OH223608   1.438   1.913  14.868  0.2306  0.4772  0.0862
  706TIP3    H123609   1.384   1.902  14.947 -0.4034 -2.7383 -0.6438
  706TIP3    H223610   1.467   1.824  14.847  1.1384  1.3662 -2.8169
  707TIP3   OH223611   1.496   3.444  11.022  0.1254  0.1062  0.3981
  707TIP3    H123612   1.569   3.404  11.070  0.7624  0.3609 -0.3458
  707TIP3    H223613   1.419   3.395  11.052  0.6774 -0.5786  0.7425
  708TIP3   OH223614   5.941   4.978  12.066  0.5667 -0.1394 -0.3959
  708TIP3    H123615   5.938   5.045  11.998 -0.9189  0.2765  0.0256
  708TIP3    H223616   5.890   4.905  12.031  0.4414 -0.2285 -0.0405
  709TIP3   OH223617   0.503   0.011  12.501  0.4175 -0.5691  0.8119
  709TIP3    H123618   0.468  -0.052  12.563  0.5466 -0.5157  0.9396
  709TIP3    H223619   0.589  -0.024  12.477  0.5316 -0.3917  0.9588
  710TIP3   OH223620   4.696   5.379  12.028  0.8243 -0.1034  0.1398
  710TIP3    H123621   4.768   5.322  12.055 -0.0665 -2.0049 -1.1942
  710TIP3    H223622   4.633   5.374  12.100  0.9693 -0.4419  0.2445
  711TIP3   OH223623   4.749   6.326  16.140 -0.0139 -0.1248 -0.0020
  711TIP3    H123624   4.722   6.367  16.222  1.0012  2.1252 -0.7161
  711TIP3    H223625   4.717   6.385  16.072  2.5426  0.1848 -1.0457
  712TIP3   OH223626   0.321   0.777  14.651 -0.3248 -0.1419  0.6680
  712TIP3    H123627   0.393   0.808  14.597 -0.3954 -0.2943  0.4858
  712TIP3    H223628   0.339   0.814  14.738 -1.8393  2.7517 -0.1039
  713TIP3   OH223629   3.233   2.380  16.940  0.1000 -0.1757 -0.3336
  713TIP3    H123630   3.183   2.358  17.018 -1.5544  1.8469 -0.7354
  713TIP3    H223631   3.325   2.376  16.968 -0.4648  2.0996  2.2663
  714TIP3   OH223632   2.720   6.053   4.164  0.0345 -0.4759 -0.3931
  714TIP3    H123633   2.682   6.106   4.234  0.5531  1.2647 -1.3585
  714TIP3    H223634   2.682   6.090   4.084  1.5762 -0.5812 -1.1982
  715TIP3   OH223635   0.243   1.338   1.394 -0.1867 -0.2828 -0.0907
  715TIP3    H123636   0.293   1.257   1.402 -1.5304 -1.3391 -1.7171
  715TIP3    H223637   0.175   1.331   1.462 -0.0120 -0.2894  0.0847
  716TIP3   OH223638   6.482   6.061   1.620  0.0307  0.4292 -0.7953
  716TIP3    H123639   6.398   6.031   1.653  0.1699  0.6586 -0.2326
  716TIP3    H223640   6.460   6.132   1.560 -0.0583  2.4883  1.5235
  717TIP3   OH223641   0.970   3.312  15.534 -0.0579 -0.4211  0.2494
  717TIP3    H123642   1.052   3.352  15.507 -0.9919  0.0951 -2.0432
  717TIP3    H223643   0.969   3.227  15.491 -1.9072  0.7119 -2.1808
  718TIP3   OH223644   1.405   6.754   6.670 -0.0735 -0.1781 -0.1466
  718TIP3    H123645   1.483   6.784   6.717  0.3999  1.0938 -1.6366
  718TIP3    H223646   1.411   6.798   6.585 -1.6747 -1.2010 -0.8242
  719TIP3   OH223647   5.947   5.194   0.864 -0.0324  0.5848  0.4418
  719TIP3    H123648   5.853   5.177   0.874  0.2195 -0.6749  0.8237
  719TIP3    H223649   5.961   5.194   0.769 -0.2872 -0.1176  0.3926
  720TIP3   OH223650   5.947   0.792  11.832  0.1016 -0.3877  0.1006
  720TIP3    H123651   5.906   0.781  11.747  1.3645 -0.9695 -0.4636
  720TIP3    H223652   5.889   0.851  11.880 -0.5357  0.0839 -1.2130
  721TIP3   OH223653   6.338   5.489   4.667  0.1847 -0.7115 -0.1872
  721TIP3    H123654   6.271   5.508   4.601  0.6369  0.1525 -0.4043
  721TIP3    H223655   6.383   5.411   4.634  1.2099  0.4149 -1.5402
  722TIP3   OH223656   4.577   3.324  15.671  0.1633  0.8476 -0.1039
  722TIP3    H123657   4.568   3.230  15.686 -2.8992  0.7582 -1.7127
  722TIP3    H223658   4.635   3.355  15.742  1.1799 -2.1697  0.5073
  723TIP3   OH223659   1.648   3.780   4.203  0.7216 -0.0378 -0.4499
  723TIP3    H123660   1.672   3.854   4.147  0.0873  2.8297  2.7501
  723TIP3    H223661   1.725   3.723   4.202  1.6559  1.1739 -2.2087
  724TIP3   OH223662   0.660   4.976  17.249 -0.1580 -0.1573 -0.2293
  724TIP3    H123663   0.746   4.996  17.286  0.4342 -2.7242 -0.0339
  724TIP3    H223664   0.621   4.915  17.311 -0.7180 -1.6083 -1.9395
  725TIP3   OH223665   4.200   6.623   3.771 -0.3179  0.2455  0.1879
  725TIP3    H123666   4.228   6.603   3.682 -1.0075 -0.2092  0.0650
  725TIP3    H223667   4.165   6.712   3.765 -0.4595  0.1774 -0.0205
  726TIP3   OH223668   0.458   3.593   0.259  0.4114  0.2944 -0.1514
  726TIP3    H123669   0.380   3.561   0.213 -1.1848 -0.8618  3.0198
  726TIP3    H223670   0.442   3.686   0.271  0.4001  0.4173 -1.0597
  727TIP3   OH223671   5.746   4.060   4.750 -0.3389 -1.0108  0.1558
  727TIP3    H123672   5.746   3.966   4.735  1.2385 -0.7436 -1.8881
  727TIP3    H223673   5.795   4.072   4.831 -2.6967 -2.0254  1.8692
  728TIP3   OH223674   6.670   5.734   5.601 -0.0842  0.0447 -0.3369
  728TIP3    H123675   6.603   5.777   5.654 -0.1955 -0.8340  0.2693
  728TIP3    H223676   6.744   5.722   5.661  0.1973  0.0142 -0.6854
  729TIP3   OH223677   3.563   6.718   5.357  0.3391  0.3009 -0.3934
  729TIP3    H123678   3.613   6.645   5.392 -4.1799 -1.1414  4.1939
  729TIP3    H223679   3.524   6.685   5.276  0.0568 -1.6420  0.5025
  730TIP3   OH223680   0.975   3.367   2.465 -0.5097  0.0562  0.5452
  730TIP3    H123681   0.987   3.393   2.557  0.4577  0.6729  0.2601
  730TIP3    H223682   1.017   3.437   2.415 -2.2909  0.4816 -0.4334
  731TIP3   OH223683   0.212   3.987   6.029 -0.2369 -0.4099 -0.2838
  731TIP3    H123684   0.183   3.904   5.991 -1.0552  0.7945 -2.5075
  731TIP3    H223685   0.302   3.998   5.996  0.5650 -1.2365  1.5279
  732TIP3   OH223686   6.495   1.180   3.234 -0.4059 -0.1354  0.0454
  732TIP3    H123687   6.426   1.200   3.171 -0.8942 -1.4490  0.1230
  732TIP3    H223688   6.508   1.085   3.225  1.8763  0.1626 -0.4532
  733TIP3   OH223689   2.598   4.542   0.036  0.0178 -0.3797  0.1147
  733TIP3    H123690   2.656   4.571   0.106  0.7924  1.5059 -1.2305
  733TIP3    H223691   2.513   4.532   0.078 -0.0042  2.6350  1.0413
  734TIP3   OH223692   4.721   0.063  14.871  0.1982 -0.6509 -0.1512
  734TIP3    H123693   4.688   0.052  14.960 -0.7155 -0.9708 -0.5180
  734TIP3    H223694   4.646   0.043  14.815  0.9910 -1.3227 -1.0118
  735TIP3   OH223695   4.554   1.775  12.878  0.2411  0.4592 -0.0309
  735TIP3    H123696   4.538   1.864  12.846  1.2279  1.0789  1.0850
  735TIP3    H223697   4.547   1.783  12.973  0.8704 -0.5368  0.1108
  736TIP3   OH223698   6.494   4.521  15.476 -0.5437 -0.6826 -0.2561
  736TIP3    H123699   6.430   4.452  15.493 -0.0616 -0.9886  0.3538
  736TIP3    H223700   6.447   4.602  15.493  0.1073 -0.9438  3.5164
  737TIP3   OH223701   6.561   0.361  10.852 -0.2353 -0.1841 -0.1204
  737TIP3    H123702   6.651   0.388  10.871 -0.5810 -0.7921  3.0769
  737TIP3    H223703   6.565   0.322  10.765  2.3424  0.8802 -0.5656
  738TIP3   OH223704   3.171   1.169  13.674  0.4034  0.0017 -0.1374
  738TIP3    H123705   3.252   1.220  13.675  0.9093 -0.7710 -0.8773
  738TIP3    H223706   3.114   1.216  13.613 -0.3406  1.4355  1.5389
  739TIP3   OH223707   3.594   0.918  16.557 -0.2743 -0.3093 -0.1465
  739TIP3    H123708   3.605   0.823  16.560 -2.4541 -0.6501 -0.7732
  739TIP3    H223709   3.539   0.933  16.480  1.4223  1.6512 -1.0606
  740TIP3   OH223710   0.580   1.574   0.640 -0.1534  0.1992 -0.1385
  740TIP3    H123711   0.638   1.566   0.717 -1.1918 -2.1264  0.5086
  740TIP3    H223712   0.494   1.595   0.677 -0.3031  0.8444 -0.8395
  741TIP3   OH223713   1.345   5.025  15.394 -0.9458  0.0141 -0.2822
  741TIP3    H123714   1.329   5.090  15.462  1.7816 -1.5241  2.0539
  741TIP3    H223715   1.415   5.063  15.341 -0.1817 -0.4654  0.3589
  742TIP3   OH223716   4.794   4.430  10.809 -0.0849 -0.3445  0.0815
  742TIP3    H123717   4.776   4.443  10.902 -1.7805  1.6157 -0.4599
  742TIP3    H223718   4.860   4.496  10.788 -0.0793 -0.4444 -0.2111
  743TIP3   OH223719   1.843   1.226   1.826 -0.3976  0.4629 -0.0627
  743TIP3    H123720   1.885   1.294   1.878 -1.2784  2.6060 -1.9398
  743TIP3    H223721   1.753   1.257   1.815 -1.1846 -1.6371 -0.0322
  744TIP3   OH223722   5.310   2.623   2.184  0.3332  0.0591 -0.6089
  744TIP3    H123723   5.394   2.607   2.227  0.1917 -0.3928 -0.4909
  744TIP3    H223724   5.283   2.710   2.213  0.4406 -0.0728 -0.1153
  745TIP3   OH223725   6.715   4.794   6.004 -0.1836 -0.2496 -0.5122
  745TIP3    H123726   6.706   4.699   6.013  1.4783 -0.5628 -1.7381
  745TIP3    H223727   6.742   4.824   6.091  1.1743 -1.1840 -0.5813
  746TIP3   OH223728   2.342   1.558   5.808  0.7450  0.6895  0.3021
  746TIP3    H123729   2.396   1.607   5.870  0.5954  0.1097  0.9129
  746TIP3    H223730   2.254   1.557   5.848  0.5025  0.8381 -0.2229
  747TIP3   OH223731   6.125   3.732  16.118 -0.0127 -0.0364  0.0594
  747TIP3    H123732   6.184   3.806  16.135  0.0539  0.1966 -1.1245
  747TIP3    H223733   6.087   3.751  16.032  1.3243 -2.2487 -1.0883
  748TIP3   OH223734   0.104   6.424   4.401  0.3165  0.0801 -0.1696
  748TIP3    H123735   0.118   6.392   4.491  0.9157  1.2665  0.1724
  748TIP3    H223736   0.013   6.452   4.400  0.5935  1.0410  0.3971
  749TIP3   OH223737   3.115   6.290   5.453 -0.2664 -0.2221 -0.1898
  749TIP3    H123738   3.038   6.289   5.396 -1.0226  0.2178  0.8057
  749TIP3    H223739   3.169   6.361   5.418 -0.4289 -0.3556 -0.7299
  750TIP3   OH223740   0.893   0.725   1.681 -0.0325 -0.1312 -0.1533
  750TIP3    H123741   0.874   0.819   1.684 -1.3718 -0.3918  0.1026
  750TIP3    H223742   0.983   0.720   1.650 -0.2525  1.2092 -1.1074
  751TIP3   OH223743   4.342   4.591  10.859 -0.0089 -0.1498 -0.5392
  751TIP3    H123744   4.315   4.680  10.840 -1.6556 -0.7936 -1.4437
  751TIP3    H223745   4.397   4.566  10.784  2.4973  0.8473  0.8560
  752TIP3   OH223746   4.624   6.020   3.930 -0.0390  0.1919 -0.2049
  752TIP3    H123747   4.648   6.110   3.907  0.7393 -0.2817 -1.3440
  752TIP3    H223748   4.533   6.026   3.960 -0.7425  1.0690 -2.3112
  753TIP3   OH223749   1.911   0.278  13.184  0.0902 -0.3061  0.3589
  753TIP3    H123750   1.945   0.219  13.117  1.4869  1.8928 -0.9894
  753TIP3    H223751   1.838   0.324  13.140 -0.4575 -0.4411  1.1096
  754TIP3   OH223752   3.398   0.416  11.668 -0.0710  0.0738  0.1395
  754TIP3    H123753   3.487   0.399  11.697 -0.0803 -0.8815 -0.3663
  754TIP3    H223754   3.368   0.489  11.723  1.1588  0.6895  0.0210
  755TIP3   OH223755   1.195   3.441   1.753 -0.4954  0.2434 -0.4631
  755TIP3    H123756   1.138   3.495   1.698 -2.8305 -1.4309  0.1137
  755TIP3    H223757   1.208   3.493   1.832  0.7672  1.6009 -1.5044
  756TIP3   OH223758   3.599   1.437  15.911 -0.4315  0.2612  0.4964
  756TIP3    H123759   3.670   1.374  15.926 -0.3927  0.1215 -0.2400
  756TIP3    H223760   3.643   1.523  15.912 -0.1727  0.1439 -0.4229
  757TIP3   OH223761   2.819   4.308  12.390  0.7037  0.2807 -0.4386
  757TIP3    H123762   2.795   4.230  12.340 -0.6179  0.4059 -0.0378
  757TIP3    H223763   2.883   4.276  12.455 -1.4484 -0.9970  1.2081
  758TIP3   OH223764   4.821   2.644  11.799  0.3906 -0.6458 -0.1670
  758TIP3    H123765   4.799   2.719  11.744  1.2748 -1.3543 -1.5527
  758TIP3    H223766   4.756   2.645  11.869 -1.0749  0.0307 -1.4760
  759TIP3   OH223767   6.215   0.119  16.225  0.5806  0.4413 -0.4186
  759TIP3    H123768   6.170   0.202  16.245 -0.5132 -0.0297 -0.8596
  759TIP3    H223769   6.306   0.144  16.214  0.6097  1.3013  1.3405
  760TIP3   OH223770   6.797   4.002   3.698  0.6602 -0.5591 -0.5841
  760TIP3    H123771   6.773   3.927   3.752  0.6461  1.8586  3.1590
  760TIP3    H223772   6.714   4.039   3.668  0.3352  0.2586  1.1740
  761TIP3   OH223773   1.481   6.670   4.915 -0.1686 -0.2459 -0.5617
  761TIP3    H123774   1.463   6.576   4.915 -0.3205 -0.2171 -0.6153
  761TIP3    H223775   1.494   6.692   5.007  0.2511 -0.3916 -0.5842
  762TIP3   OH223776   1.186   1.276  15.643  0.1745  0.0250  0.3577
  762TIP3    H123777   1.132   1.341  15.689  0.6042  0.6480 -0.0017
  762TIP3    H223778   1.273   1.314  15.641  0.9551 -1.5542  2.0774
  763TIP3   OH223779   3.630   0.623   0.044  0.4323  0.2685  0.0691
  763TIP3    H123780   3.628   0.602  -0.050 -2.3716  1.3631 -0.2070
  763TIP3    H223781   3.547   0.589   0.078  1.6174 -0.5641  2.3027
  764TIP3   OH223782   3.381   6.404   1.630 -0.2014  0.0088 -0.2634
  764TIP3    H123783   3.339   6.457   1.699  1.3283  2.0415 -0.7855
  764TIP3    H223784   3.380   6.315   1.665 -0.9817  0.6922  1.6378
  765TIP3   OH223785   2.355   4.371  14.365 -0.5328 -0.0988 -0.1878
  765TIP3    H123786   2.349   4.467  14.364  0.8434  0.0078 -1.7545
  765TIP3    H223787   2.332   4.345  14.275  1.2133 -1.0528 -0.3962
  766TIP3   OH223788   3.202   3.753   6.662  0.5477 -0.5060 -1.1177
  766TIP3    H123789   3.248   3.767   6.579 -0.0633  0.7317 -1.2625
  766TIP3    H223790   3.151   3.832   6.676 -0.1361 -1.0991 -0.0428
  767TIP3   OH223791   5.734   6.576  16.255 -0.7037  0.5578 -0.2807
  767TIP3    H123792   5.815   6.560  16.206  0.9541  0.1866  2.3695
  767TIP3    H223793   5.689   6.492  16.256 -0.4286  0.4054 -0.5879
  768TIP3   OH223794   5.576   2.141  10.759 -0.2392 -0.7812  0.3927
  768TIP3    H123795   5.520   2.194  10.702 -1.3113 -0.0828  2.0385
  768TIP3    H223796   5.598   2.199  10.832  1.4739 -1.5087  0.5168
  769TIP3   OH223797   4.722   0.094  11.107 -0.0577  0.0554  0.3568
  769TIP3    H123798   4.788   0.045  11.057 -0.2757 -2.3089  2.1626
  769TIP3    H223799   4.640   0.049  11.089 -0.9970  2.1078 -0.7599
  770TIP3   OH223800   6.320   0.814   3.431 -0.3904  1.2093  0.1680
  770TIP3    H123801   6.382   0.745   3.408 -0.1101  1.9361 -1.3514
  770TIP3    H223802   6.370   0.895   3.420 -1.3221  1.7573 -0.0737
  771TIP3   OH223803   0.272   3.100  12.017  0.0689  0.4774  0.5405
  771TIP3    H123804   0.336   3.034  11.990 -0.4548 -0.7882  2.1957
  771TIP3    H223805   0.206   3.098  11.947  1.4970  1.4202 -0.9116
  772TIP3   OH223806   4.236   0.605   3.814  0.2214 -0.4659  0.0578
  772TIP3    H123807   4.188   0.666   3.870 -0.3550 -0.6316 -0.2466
  772TIP3    H223808   4.191   0.610   3.730  1.8821  0.7778 -0.8193
  773TIP3   OH223809   0.011   3.037  11.168  0.0585 -0.2069 -0.2143
  773TIP3    H123810   0.063   2.971  11.214  0.7072  0.3343 -0.1448
  773TIP3    H223811  -0.070   2.993  11.145  1.2163 -1.6151 -1.8578
  774TIP3   OH223812   0.196   6.207   3.039 -0.8026 -0.0432 -0.1555
  774TIP3    H123813   0.231   6.183   2.953 -0.5261 -0.7628  0.1461
  774TIP3    H223814   0.142   6.284   3.022 -1.5542 -0.7573 -1.1385
  775TIP3   OH223815   1.474   1.748  12.433  0.1081 -0.3397  0.2238
  775TIP3    H123816   1.397   1.713  12.478  0.3919 -1.8498 -0.4031
  775TIP3    H223817   1.543   1.747  12.499 -0.3335  0.8086  0.7258
  776TIP3   OH223818   0.241   4.062   3.748 -0.0559  0.2205 -0.4465
  776TIP3    H123819   0.151   4.030   3.750  0.0338 -0.0913 -0.9829
  776TIP3    H223820   0.245   4.130   3.815 -1.0434  1.1628 -1.2941
  777TIP3   OH223821   1.556   0.471  16.913  0.6114 -0.4862  0.7700
  777TIP3    H123822   1.489   0.513  16.967  0.6699  1.4239 -0.5269
  777TIP3    H223823   1.509   0.403  16.865 -0.5139  0.8971 -0.2036
  778TIP3   OH223824   2.903   4.047   3.307  0.0551 -0.1179 -0.6176
  778TIP3    H123825   2.921   3.988   3.235  0.3338 -0.1148 -0.5526
  778TIP3    H223826   2.891   3.990   3.383 -0.9290 -0.1629 -0.7976
  779TIP3   OH223827   2.990   2.908  16.160  0.4200  0.1893 -0.5098
  779TIP3    H123828   2.905   2.936  16.127  0.1487 -0.7048 -0.5991
  779TIP3    H223829   2.989   2.930  16.253  0.0347  0.0403 -0.4792
  780TIP3   OH223830   4.620   0.054  10.358  0.2945  0.2915 -0.6999
  780TIP3    H123831   4.684  -0.009  10.392  0.0209  0.0061 -0.7141
  780TIP3    H223832   4.537   0.028  10.397  0.4565  1.6858  0.6641
  781TIP3   OH223833   2.513   2.041   5.968 -0.2704  0.4569  0.2029
  781TIP3    H123834   2.562   2.076   6.043  1.6201 -2.0181  0.2841
  781TIP3    H223835   2.560   2.073   5.891 -0.5844  0.8241  0.1639
  782TIP3   OH223836   0.753   6.043  17.081  0.0274 -0.0937 -0.1138
  782TIP3    H123837   0.724   6.109  17.143 -1.1161  0.9217 -1.6548
  782TIP3    H223838   0.688   5.973  17.088  0.3247 -0.3174  0.3759
  783TIP3   OH223839   0.086   3.546   5.807  0.4255 -0.1457 -0.4101
  783TIP3    H123840   0.127   3.618   5.759  2.9090 -1.8355 -1.0122
  783TIP3    H223841   0.099   3.469   5.752 -1.3066 -1.2791  0.6397
  784TIP3   OH223842   5.425   3.393  13.058 -0.1294  0.0516 -0.1495
  784TIP3    H123843   5.481   3.468  13.078 -0.6230  0.3719  0.0551
  784TIP3    H223844   5.336   3.428  13.062 -0.5043 -1.0070  2.1091
  785TIP3   OH223845   1.846   0.140   2.992  0.7110 -0.3181  0.7484
  785TIP3    H123846   1.908   0.199   2.948 -1.0963  2.1951  1.3091
  785TIP3    H223847   1.826   0.073   2.927  1.1724  0.9756 -0.7941
  786TIP3   OH223848   1.108   2.991   1.067 -0.7893  0.0202 -0.1030
  786TIP3    H123849   1.175   2.931   1.035 -1.4391 -0.9449  0.3197
  786TIP3    H223850   1.157   3.053   1.121 -0.2536 -0.8323  0.4216
  787TIP3   OH223851   2.911   3.168   3.530 -0.3797 -0.2456  0.5955
  787TIP3    H123852   2.837   3.209   3.485 -0.3928  0.5687  1.3494
  787TIP3    H223853   2.983   3.172   3.466 -0.9469 -0.9678 -0.1098
  788TIP3   OH223854   0.761   5.359  12.494 -0.3823 -0.3393  0.5099
  788TIP3    H123855   0.848   5.383  12.464 -1.5463  1.4598 -1.7285
  788TIP3    H223856   0.761   5.263  12.496  1.0260 -0.4306 -1.4217
  789TIP3   OH223857   5.130   0.248   4.899 -0.0292  0.5554  0.3144
  789TIP3    H123858   5.189   0.229   4.972  1.4455  0.4371 -0.8815
  789TIP3    H223859   5.043   0.221   4.931  1.0385 -2.7121  0.8185
  790TIP3   OH223860   3.927   4.111  16.078  0.2949  0.5129  0.5182
  790TIP3    H123861   3.978   4.184  16.111  2.0870  0.3334 -1.6532
  790TIP3    H223862   3.878   4.146  16.003  0.2123 -0.2267  0.2142
  791TIP3   OH223863   5.034   4.785   4.916  0.4608  0.1651  0.4897
  791TIP3    H123864   4.998   4.727   4.982  2.2263 -0.8987  0.5966
  791TIP3    H223865   5.051   4.867   4.962  1.2534 -0.4182  1.2688
  792TIP3   OH223866   1.942   4.680  15.989  0.3506  0.6405 -0.4834
  792TIP3    H123867   1.984   4.759  16.025  0.1652  0.5522 -0.0620
  792TIP3    H223868   1.972   4.610  16.047  0.8780  0.3240 -1.1269
  793TIP3   OH223869   0.529   3.445   0.879 -0.6553 -0.3376 -0.2001
  793TIP3    H123870   0.557   3.382   0.946 -0.7189 -1.0223 -0.8058
  793TIP3    H223871   0.539   3.531   0.921  1.4901 -0.6010 -0.0860
  794TIP3   OH223872   5.426   1.560   5.880 -0.2137  0.1605 -0.4882
  794TIP3    H123873   5.493   1.606   5.931 -1.7724  1.0772  0.8352
  794TIP3    H223874   5.471   1.534   5.800  1.4151  1.7847 -0.1809
  795TIP3   OH223875   5.141   3.420   4.364 -0.4918  0.1785  0.8085
  795TIP3    H123876   5.174   3.470   4.290 -2.0902 -0.2885 -0.2810
  795TIP3    H223877   5.181   3.334   4.355 -1.4375 -0.1870 -0.1304
  796TIP3   OH223878   4.337   3.508  12.407 -0.3423  0.2224 -0.2936
  796TIP3    H123879   4.371   3.421  12.430  0.9082  1.1452  1.5163
  796TIP3    H223880   4.247   3.508  12.441  0.1703  0.1647  1.1116
  797TIP3   OH223881   5.354   6.116  17.077  0.8076 -0.3828  0.0417
  797TIP3    H123882   5.446   6.138  17.092  0.9188 -1.5861  1.2810
  797TIP3    H223883   5.352   6.079  16.988  1.3844  0.3083 -0.2651
  798TIP3   OH223884   3.709   1.533   6.039  0.3618 -0.2880  0.5554
  798TIP3    H123885   3.717   1.624   6.068 -0.5984 -0.7607  2.4382
  798TIP3    H223886   3.768   1.484   6.097  2.3031 -0.7156 -1.6134
  799TIP3   OH223887   3.200   2.927  15.558 -0.0587  0.2371 -0.3516
  799TIP3    H123888   3.270   2.880  15.512  1.4261 -0.8336  2.7459
  799TIP3    H223889   3.184   3.005  15.504  1.2223 -1.0857 -2.8185
  800TIP3   OH223890   2.039   5.235   3.829 -0.4493 -0.2803  0.4838
  800TIP3    H123891   1.977   5.300   3.797 -0.1267 -0.5335 -0.6987
  800TIP3    H223892   2.125   5.276   3.814 -0.2146 -1.1855 -0.8265
  801TIP3   OH223893   2.437   6.126   2.138 -0.7409  0.1858 -0.5818
  801TIP3    H123894   2.353   6.121   2.183 -0.8535 -1.0360 -0.8813
  801TIP3    H223895   2.468   6.215   2.153 -1.7226  0.4071  0.1899
  802TIP3   OH223896   0.873   6.082   6.322 -0.4253  0.4288 -0.1083
  802TIP3    H123897   0.782   6.067   6.347 -0.8463  0.1532 -1.6649
  802TIP3    H223898   0.873   6.076   6.226  0.7660  2.9014 -0.3599
  803TIP3   OH223899   5.735   4.945  13.536 -0.0208  0.2183 -0.2441
  803TIP3    H123900   5.705   4.967  13.624  1.0238  0.6401  0.0195
  803TIP3    H223901   5.747   5.030  13.493  1.7522  0.1274 -0.0000
  804TIP3   OH223902   1.808   4.545  10.700  0.5224 -0.6410 -0.1333
  804TIP3    H123903   1.897   4.566  10.675  0.9068  1.0278  2.3066
  804TIP3    H223904   1.761   4.628  10.696 -0.7490 -1.3550 -0.6659
  805TIP3   OH223905   4.314   2.884  13.404 -0.2362 -0.2715  0.0994
  805TIP3    H123906   4.349   2.813  13.351  0.0450  1.0676 -1.5971
  805TIP3    H223907   4.346   2.866  13.492 -1.2162 -2.8799 -0.0016
  806TIP3   OH223908   2.788   4.342   1.860  0.2077 -0.0742 -0.3747
  806TIP3    H123909   2.735   4.272   1.821  0.1542  0.3259 -1.0292
  806TIP3    H223910   2.874   4.332   1.820  0.1513  0.3449 -0.6067
  807TIP3   OH223911   1.849   2.545  11.600 -0.2275 -0.2579 -0.1909
  807TIP3    H123912   1.907   2.584  11.535 -1.6001 -0.5572 -1.6327
  807TIP3    H223913   1.866   2.451  11.595  2.2675 -0.0999  2.4993
  808TIP3   OH223914   0.881   1.794   4.340  0.4760 -0.0413 -0.7025
  808TIP3    H123915   0.873   1.864   4.405  1.5159 -0.7044  0.1580
  808TIP3    H223916   0.809   1.735   4.360  0.8064 -0.2563 -0.1301
  809TIP3   OH223917   0.169   6.421   4.051  0.4792  0.3228  0.6881
  809TIP3    H123918   0.237   6.357   4.071  1.8922  1.3263 -0.6617
  809TIP3    H223919   0.087   6.371   4.057  1.4596 -1.4114  0.4426
  810TIP3   OH223920   1.056   5.619  16.394 -0.2245 -0.8041  0.0248
  810TIP3    H123921   1.024   5.651  16.479 -0.0984  1.1679 -0.6031
  810TIP3    H223922   1.122   5.553  16.416 -0.8648 -1.0110  1.4314
  811TIP3   OH223923   2.983   1.053   2.807  0.0150  0.1270  0.5555
  811TIP3    H123924   2.953   1.100   2.729  0.4394 -1.9599 -0.9254
  811TIP3    H223925   2.909   0.999   2.833 -0.2549  1.0690  1.8902
  812TIP3   OH223926   3.494   6.616  11.191 -0.3891 -0.0735 -0.5468
  812TIP3    H123927   3.460   6.536  11.230 -1.4483  0.4678 -0.3270
  812TIP3    H223928   3.589   6.606  11.195 -0.3691  0.2575  2.9209
  813TIP3   OH223929   5.212   6.543  10.568 -0.1423 -0.6189  0.4609
  813TIP3    H123930   5.140   6.547  10.631 -1.2553 -0.0012 -0.8113
  813TIP3    H223931   5.204   6.456  10.528  0.7410 -1.1270  1.3231
  814TIP3   OH223932   6.424   6.749  14.355 -0.3065  0.6685  0.4956
  814TIP3    H123933   6.439   6.753  14.449  1.7262  3.8169  0.1757
  814TIP3    H223934   6.363   6.821  14.337  0.1424  0.7778 -0.6924
  815TIP3   OH223935   0.793   3.804  16.299  0.6119 -0.2238 -0.0488
  815TIP3    H123936   0.861   3.780  16.361  0.1909  0.3587  0.6553
  815TIP3    H223937   0.728   3.734  16.307  0.4503 -0.0322  0.3400
  816TIP3   OH223938   3.211   0.516   5.313 -0.0454  0.0377  0.0939
  816TIP3    H123939   3.246   0.431   5.339 -0.4765 -0.3708 -0.6250
  816TIP3    H223940   3.270   0.580   5.353  0.5449 -0.6070  0.2640
  817TIP3   OH223941   2.020   3.550   2.615 -0.2011 -0.3525 -0.1211
  817TIP3    H123942   2.108   3.546   2.652 -0.5322 -1.8045  0.5784
  817TIP3    H223943   1.966   3.498   2.675 -1.6294  0.8473 -0.3050
  818TIP3   OH223944   5.911   0.544   1.176  0.3441  0.0616 -0.4585
  818TIP3    H123945   5.902   0.551   1.081 -2.1103 -1.1352 -0.3698
  818TIP3    H223946   5.846   0.605   1.212  1.3428  0.6141  0.4854
  819TIP3   OH223947   1.226   4.156  12.997 -0.4359  0.7076 -0.4601
  819TIP3    H123948   1.176   4.114  12.927 -1.0033  1.1541 -0.3301
  819TIP3    H223949   1.317   4.148  12.968 -0.5527 -0.3134 -0.5873
  820TIP3   OH223950   2.317   1.369  11.777  0.3296 -0.4433  0.4207
  820TIP3    H123951   2.336   1.463  11.774  0.7725 -0.5531 -0.7145
  820TIP3    H223952   2.246   1.361  11.840 -0.6682  0.8298 -0.4906
  821TIP3   OH223953   2.250   0.117  16.051 -0.0637  0.7398  0.2635
  821TIP3    H123954   2.165   0.104  16.094  0.3462 -0.3613  0.7861
  821TIP3    H223955   2.314   0.094  16.118  0.6048 -0.5357 -0.7580
  822TIP3   OH223956   6.652   3.163   2.093  0.6846 -0.0303 -0.0062
  822TIP3    H123957   6.561   3.137   2.079  0.8932 -0.6885 -0.1882
  822TIP3    H223958   6.650   3.217   2.172  0.0671  0.3852 -0.2925
  823TIP3   OH223959   6.366   4.249   5.754 -0.1493  0.3090 -0.1119
  823TIP3    H123960   6.275   4.221   5.758  0.4587 -1.8283  0.0093
  823TIP3    H223961   6.399   4.238   5.843  0.3413  0.6173 -0.2497
  824TIP3   OH223962   3.520   0.573   2.739 -0.2662  0.1222  0.2887
  824TIP3    H123963   3.530   0.569   2.834  1.8847 -0.2827  0.0802
  824TIP3    H223964   3.487   0.661   2.723 -0.2428  0.3514  1.3742
  825TIP3   OH223965   0.582   2.347   6.071  0.3363  0.1315 -0.2818
  825TIP3    H123966   0.642   2.388   6.009  0.7098  0.7934  0.5002
  825TIP3    H223967   0.624   2.265   6.095  1.5594  1.1506  1.1997
  826TIP3   OH223968   1.699   3.948  12.076 -0.2260  0.1833  0.1583
  826TIP3    H123969   1.606   3.944  12.053  0.0701 -1.8099 -0.9496
  826TIP3    H223970   1.744   3.921  11.996  1.2280 -0.3133  1.1114
  827TIP3   OH223971   3.063   2.726  13.603  0.0175  0.7970 -0.2139
  827TIP3    H123972   3.010   2.790  13.650 -1.0012 -0.1163 -0.0851
  827TIP3    H223973   3.022   2.642  13.623  2.2954 -0.1198  0.9755
  828TIP3   OH223974   1.427   1.193  15.277  0.2026  0.3174  0.0678
  828TIP3    H123975   1.491   1.239  15.332  1.1023  1.2427 -1.6929
  828TIP3    H223976   1.345   1.240  15.290  0.1283 -0.1361  1.4108
  829TIP3   OH223977   5.939   5.014  14.606 -0.5547  0.3639  0.5682
  829TIP3    H123978   5.963   4.934  14.653 -2.0981 -0.8031 -0.5541
  829TIP3    H223979   5.973   5.000  14.517 -1.3264  0.6964  0.2166
  830TIP3   OH223980   5.222   6.014  11.164 -0.0454 -0.7835 -0.0765
  830TIP3    H123981   5.257   5.993  11.077  0.2718 -0.0273 -0.1427
  830TIP3    H223982   5.171   5.937  11.189 -0.1893 -0.9851 -0.9618
  831TIP3   OH223983   1.653   4.913  15.275  0.4941 -0.5507 -0.1628
  831TIP3    H123984   1.706   4.871  15.343  0.2185  1.0542  1.1248
  831TIP3    H223985   1.606   4.842  15.233  1.3272 -1.6826  0.7490
  832TIP3   OH223986   2.681   5.832  16.939  0.0061  0.2255 -0.2944
  832TIP3    H123987   2.625   5.861  16.867  1.0439 -0.2195 -1.3287
  832TIP3    H223988   2.706   5.912  16.984  0.6923  0.7094 -1.4770
  833TIP3   OH223989   3.404   2.911   5.066  0.0544  0.0847 -0.2992
  833TIP3    H123990   3.435   2.972   5.000 -1.2520  2.2223  0.9371
  833TIP3    H223991   3.483   2.879   5.109  0.7765  0.8205 -1.0548
  834TIP3   OH223992   4.578   1.950  12.124  0.1600  0.7405  0.1522
  834TIP3    H123993   4.584   2.038  12.162  2.5326  0.2978  0.9627
  834TIP3    H223994   4.532   1.898  12.190  0.4733  0.9467  0.5400
  835TIP3   OH223995   2.713   2.844  14.309 -0.2897 -0.3271  0.1152
  835TIP3    H123996   2.703   2.755  14.273 -2.4606 -0.5021  1.0612
  835TIP3    H223997   2.672   2.901  14.244 -0.3080 -0.1842  0.2515
  836TIP3   OH223998   2.308   5.417  14.508 -0.1147 -0.0665  0.5604
  836TIP3    H123999   2.339   5.492  14.457  0.4643  0.2065  1.3026
  836TIP3    H224000   2.214   5.429  14.514  0.0631  1.0859  1.4129
  837TIP3   OH224001   4.836   3.598  11.725 -0.3354  0.0813  0.3321
  837TIP3    H124002   4.848   3.602  11.630 -0.9533 -0.4482  0.2240
  837TIP3    H224003   4.923   3.614  11.761  0.2275 -1.3027 -0.3523
  838TIP3   OH224004   4.171   1.316   5.846  0.1892  0.3468 -0.0206
  838TIP3    H124005   4.234   1.253   5.879  0.8614  0.7604 -0.4855
  838TIP3    H224006   4.101   1.263   5.809  0.7680 -0.1351 -0.4509
  839TIP3   OH224007   1.751   2.815   6.075 -0.4693  0.3586 -0.2234
  839TIP3    H124008   1.820   2.764   6.117 -1.0746  0.3907  0.8396
  839TIP3    H224009   1.727   2.882   6.139 -2.0797 -0.1880 -0.2014
  840TIP3   OH224010   0.405   6.782   5.533  0.4002  0.4234 -1.0212
  840TIP3    H124011   0.319   6.746   5.509  1.2839 -0.7776 -2.5303
  840TIP3    H224012   0.467   6.733   5.481  2.1671  0.3557  1.0176
  841TIP3   OH224013   0.251   5.762  17.115 -0.0244  0.4292 -0.1923
  841TIP3    H124014   0.300   5.841  17.136  0.2920 -0.0398  0.9464
  841TIP3    H224015   0.317   5.702  17.079 -0.2401  0.6344 -0.9426
  842TIP3   OH224016   6.021   6.332  17.062  0.4493  0.3143  0.1869
  842TIP3    H124017   6.082   6.311  16.992  1.2913 -0.4611  1.1169
  842TIP3    H224018   5.995   6.423  17.045  1.9025  0.6779 -0.2057
  843TIP3   OH224019   4.763   1.976   3.217  0.2307 -0.1071  0.0597
  843TIP3    H124020   4.839   1.949   3.269 -2.3581 -3.0251  2.7003
  843TIP3    H224021   4.715   1.896   3.201 -3.2328  1.7940  0.0608
  844TIP3   OH224022   5.817   6.345  12.459 -0.3526 -0.1381  0.6456
  844TIP3    H124023   5.737   6.320  12.505 -0.8435 -0.3896 -0.3376
  844TIP3    H224024   5.846   6.265  12.415 -0.9996  0.5713 -1.1286
  845TIP3   OH224025   2.847   0.351   1.763 -0.5418  0.3061 -0.2342
  845TIP3    H124026   2.914   0.304   1.714  0.4669  1.9040 -0.4505
  845TIP3    H224027   2.764   0.318   1.727  0.1163 -1.0706 -0.5618
  846TIP3   OH224028   6.609   1.139  17.129 -0.0768  0.4803  0.5272
  846TIP3    H124029   6.513   1.134  17.126 -0.0795  0.7002  0.2495
  846TIP3    H224030   6.628   1.169  17.219 -0.2578  0.2083  0.6565
  847TIP3   OH224031   0.903   1.003  12.448  0.6039  0.0105 -0.5701
  847TIP3    H124032   0.975   1.035  12.502  1.3754  0.3254 -1.7539
  847TIP3    H224033   0.924   0.910  12.433 -0.3454 -0.4475  0.8157
  848TIP3   OH224034   2.028   0.171   5.806  0.5915  0.5960  0.4149
  848TIP3    H124035   2.018   0.109   5.733 -1.1218 -1.2240  2.0562
  848TIP3    H224036   2.008   0.256   5.767  0.1178 -0.2616 -1.3493
  849TIP3   OH224037   5.203   6.225  12.504  0.5208  0.5767 -0.2152
  849TIP3    H124038   5.213   6.319  12.490 -0.4021  0.6996 -0.0833
  849TIP3    H224039   5.111   6.213  12.526  0.6115 -0.3691 -0.2983
  850TIP3   OH224040   1.363   5.602  13.393 -0.2328  0.8581  0.2115
  850TIP3    H124041   1.301   5.641  13.455 -1.4469  1.0415 -1.0519
  850TIP3    H224042   1.331   5.512  13.380  0.3023  0.6618  0.2252
  851TIP3   OH224043   4.805   2.906  17.003  0.1554 -0.1995 -0.5380
  851TIP3    H124044   4.796   2.821  16.962  0.0256 -0.8702  0.8129
  851TIP3    H224045   4.794   2.889  17.097  1.8609  1.0212 -0.0622
  852TIP3   OH224046   3.606   2.660  12.741 -0.2785  0.3427  0.2207
  852TIP3    H124047   3.621   2.754  12.729 -1.5946  0.3967 -1.3010
  852TIP3    H224048   3.598   2.625  12.653  0.3358 -1.2594  0.7516
  853TIP3   OH224049   5.794   2.499   2.116 -0.4835 -0.0865 -0.4159
  853TIP3    H124050   5.865   2.498   2.180  1.2233  1.2325 -2.1644
  853TIP3    H224051   5.761   2.589   2.117 -0.9953 -0.2614 -0.8046
  854TIP3   OH224052   4.698   0.118   4.418  0.6245 -0.3717 -0.4858
  854TIP3    H124053   4.736   0.056   4.356  0.1855 -0.1680 -0.9724
  854TIP3    H224054   4.652   0.182   4.362 -0.5070 -0.6631  0.0745
  855TIP3   OH224055   3.655   0.990  13.202 -0.3413  0.1258 -0.2166
  855TIP3    H124056   3.714   1.005  13.276  0.4293  1.7308 -1.1091
  855TIP3    H224057   3.585   0.935  13.238  0.0029  0.8563  1.6895
  856TIP3   OH224058   3.378   2.512   1.269 -0.3853 -0.8657 -0.2701
  856TIP3    H124059   3.306   2.498   1.332  0.6288  0.6266  1.2944
  856TIP3    H224060   3.335   2.513   1.184 -2.0292 -1.4123  0.5043
  857TIP3   OH224061   4.926   2.941   1.027 -0.5401 -0.3503  0.0294
  857TIP3    H124062   4.917   2.886   1.105  0.4338  0.0303  0.4162
  857TIP3    H224063   4.838   2.942   0.989 -1.3276  0.4265  1.7729
  858TIP3   OH224064   3.968   0.401   4.194  0.4283 -0.5115  0.2035
  858TIP3    H124065   3.941   0.452   4.270 -0.5098  0.9039 -1.0128
  858TIP3    H224066   3.914   0.322   4.197 -1.5530  0.7439 -0.3546
  859TIP3   OH224067   1.217   5.056   2.395 -0.0978 -0.1667  0.4876
  859TIP3    H124068   1.144   5.107   2.359  0.0125 -0.6321 -0.4346
  859TIP3    H224069   1.233   5.095   2.481  0.4931  1.8859 -0.4728
  860TIP3   OH224070   3.929   2.311   4.566 -0.2876 -0.0157  0.9151
  860TIP3    H124071   3.965   2.223   4.551  0.1072 -0.0707  2.0621
  860TIP3    H224072   3.858   2.297   4.628 -0.3907  0.4524  0.9042
  861TIP3   OH224073   1.539   0.706   0.797  0.3170  0.8649  0.2019
  861TIP3    H124074   1.624   0.677   0.763 -0.1744 -1.6632  0.9326
  861TIP3    H224075   1.560   0.761   0.873  1.3159 -0.3003  0.7944
  862TIP3   OH224076   3.271   1.037   4.666  0.2358  0.0533  0.5469
  862TIP3    H124077   3.340   1.076   4.721 -1.3613  0.9004  2.0635
  862TIP3    H224078   3.267   0.946   4.694 -0.8346  0.5694  2.2201
  863TIP3   OH224079   2.320   3.293   5.572 -0.2845 -1.0565  0.7152
  863TIP3    H124080   2.282   3.380   5.559  0.9840 -0.6496 -0.4136
  863TIP3    H224081   2.366   3.274   5.491  1.7607 -1.5921  1.9168
  864TIP3   OH224082   5.678   3.015   4.579 -0.5759  0.0104 -0.1612
  864TIP3    H124083   5.758   3.052   4.618 -1.7537  2.1516  0.3862
  864TIP3    H224084   5.652   3.078   4.513 -1.0345 -1.4249 -1.4158
  865TIP3   OH224085   6.668   1.019   5.952  0.7401 -0.0736 -0.5714
  865TIP3    H124086   6.624   0.935   5.943  0.5305 -0.3853  2.2947
  865TIP3    H224087   6.702   1.039   5.865 -0.1356 -2.5847 -1.5607
  866TIP3   OH224088   4.999   5.001   4.042  0.2278 -0.1576  0.0555
  866TIP3    H124089   5.046   4.920   4.027  1.0486  0.3960 -0.4041
  866TIP3    H224090   5.066   5.069   4.045 -0.6160  0.9293 -2.5125
  867TIP3   OH224091   1.953   0.109  16.673 -0.5574 -0.1698  0.0117
  867TIP3    H124092   1.870   0.120  16.718 -0.0881  2.1642  0.3938
  867TIP3    H224093   2.020   0.119  16.741  0.0787  0.2422 -0.6539
  868TIP3   OH224094   0.129   2.650   6.281  0.0336 -0.4403 -0.2428
  868TIP3    H124095   0.136   2.734   6.237  1.2656 -1.4517 -2.0861
  868TIP3    H224096   0.093   2.590   6.215  0.1259 -1.5909  0.7072
  869TIP3   OH224097   6.802   1.014  16.996  0.3026 -0.3353 -0.1950
  869TIP3    H124098   6.741   1.077  17.035  1.7698  0.6555  0.6056
  869TIP3    H224099   6.886   1.034  17.038  1.1191 -1.8385 -1.0582
  870TIP3   OH224100   0.734   4.547  13.706 -0.3673  0.5263  0.0175
  870TIP3    H124101   0.782   4.625  13.676 -0.9632  0.7741 -0.2996
  870TIP3    H224102   0.781   4.519  13.785 -0.8737  1.9506  0.8663
  871TIP3   OH224103   2.151   1.291   3.898  0.1682  0.5839  0.6343
  871TIP3    H124104   2.229   1.247   3.864 -1.4962 -1.1303 -1.1611
  871TIP3    H224105   2.108   1.328   3.821 -1.4530  0.4190  1.4149
  872TIP3   OH224106   1.120   0.285  13.463 -0.3697 -0.1779  0.1134
  872TIP3    H124107   1.126   0.319  13.374 -1.1163 -0.5018 -0.0679
  872TIP3    H224108   1.027   0.269  13.477 -0.2579 -0.1823  0.9368
  873TIP3   OH224109   3.929   2.315   2.105 -1.1732  0.1960  0.5957
  873TIP3    H124110   3.887   2.303   2.191 -0.0416  0.2985  1.1837
  873TIP3    H224111   3.997   2.380   2.120 -2.4092  1.9203 -0.9163
  874TIP3   OH224112   3.708   4.007  15.422  0.5448 -0.1000 -0.5275
  874TIP3    H124113   3.656   4.051  15.489  2.5595 -1.1887  1.9293
  874TIP3    H224114   3.661   4.023  15.340 -3.9671 -1.4401  1.4674
  875TIP3   OH224115   4.347   3.183  16.029 -0.0588 -0.0615 -0.8893
  875TIP3    H124116   4.268   3.230  16.002 -0.1193 -0.7729 -2.0344
  875TIP3    H224117   4.418   3.245  16.017 -0.6792  1.7308  3.2009
  876TIP3   OH224118   0.095   4.880  15.451 -0.2929  0.5341  0.1997
  876TIP3    H124119   0.171   4.937  15.463 -0.4334  0.7626  0.0126
  876TIP3    H224120   0.062   4.901  15.363  0.0405 -0.3013 -0.1343
  877TIP3   OH224121   0.779   0.753   3.375  0.0887 -0.1496 -0.1895
  877TIP3    H124122   0.813   0.841   3.358 -1.3854  0.2264 -1.5082
  877TIP3    H224123   0.744   0.724   3.290  0.0489 -1.7886  0.3465
  878TIP3   OH224124   1.564   2.943  12.960  0.3746 -0.0308 -0.8518
  878TIP3    H124125   1.513   2.951  13.041 -0.1197  0.0664 -1.1672
  878TIP3    H224126   1.590   3.032  12.938 -0.8968  0.1551 -1.6833
  879TIP3   OH224127   1.690   0.837  14.362 -0.1116  0.4145  0.1239
  879TIP3    H124128   1.753   0.908  14.368  1.0354 -0.4771 -0.8609
  879TIP3    H224129   1.683   0.803  14.451  0.8398  0.5061  0.2427
  880TIP3   OH224130   6.555   1.906  13.177 -0.2056 -0.2290  0.0364
  880TIP3    H124131   6.475   1.959  13.177 -0.0933 -0.0560  0.2823
  880TIP3    H224132   6.580   1.902  13.270  1.9358  2.5268 -0.2912
  881TIP3   OH224133   4.095   1.854  12.677  0.1168 -0.3415  0.7951
  881TIP3    H124134   4.149   1.871  12.599  0.0939  0.4890  0.9571
  881TIP3    H224135   4.132   1.774  12.714  1.2106  0.1808  0.8694
  882TIP3   OH224136   0.309   2.499  15.206  0.5442 -0.5402  0.2045
  882TIP3    H124137   0.367   2.497  15.130 -2.6654 -1.6138 -2.4417
  882TIP3    H224138   0.250   2.573  15.189  0.4001 -0.1220  2.2557
  883TIP3   OH224139   3.838   4.405  14.788 -0.1073 -0.1884  0.0284
  883TIP3    H124140   3.799   4.492  14.796  1.6010  0.6518 -0.2455
  883TIP3    H224141   3.808   4.357  14.865 -2.2503  0.1300 -0.5478
  884TIP3   OH224142   1.795   6.758  16.293 -0.2204  0.0239  0.1146
  884TIP3    H124143   1.732   6.752  16.364 -1.1419 -2.7656 -0.8080
  884TIP3    H224144   1.880   6.763  16.337 -0.8367 -0.5155  1.4129
  885TIP3   OH224145   4.254   4.523   2.887  0.2487 -0.0670  0.0474
  885TIP3    H124146   4.171   4.568   2.904  0.4330 -0.6472  3.1128
  885TIP3    H224147   4.238   4.472   2.808 -1.9032  0.7902 -0.1421
  886TIP3   OH224148   2.522   0.447   1.658 -0.0287  0.2085 -0.0581
  886TIP3    H124149   2.548   0.529   1.616  1.7618 -0.4662 -0.3444
  886TIP3    H224150   2.469   0.475   1.733 -1.7238  1.4872 -1.6491
  887TIP3   OH224151   4.490   2.524  16.859  0.1115 -0.6115  0.2969
  887TIP3    H124152   4.444   2.542  16.778  0.8128  1.8943  0.3824
  887TIP3    H224153   4.421   2.502  16.922 -0.5243 -1.3837 -0.6451
  888TIP3   OH224154   5.983   5.185   4.100  0.1475 -0.4808  0.6622
  888TIP3    H124155   5.962   5.223   4.185 -0.4569 -0.6349  0.5844
  888TIP3    H224156   5.928   5.234   4.038  0.4938 -0.4511  0.3763
  889TIP3   OH224157   4.430   6.541   2.279 -0.8855 -0.2268 -0.4644
  889TIP3    H124158   4.516   6.500   2.278 -0.7863 -0.0213 -0.4111
  889TIP3    H224159   4.368   6.468   2.269 -0.7557 -0.5034  0.6100
  890TIP3   OH224160   0.019   3.589  13.200 -0.0380 -0.6094 -0.1968
  890TIP3    H124161  -0.031   3.547  13.130  0.9204 -1.3420 -0.4694
  890TIP3    H224162   0.110   3.561  13.184  0.4725  0.7014  0.2573
  891TIP3   OH224163   0.795   4.251   1.594  0.6682 -0.3147 -0.1147
  891TIP3    H124164   0.750   4.303   1.528  1.3556  1.9632  1.1201
  891TIP3    H224165   0.887   4.257   1.571  0.7589 -1.0065  0.0430
  892TIP3   OH224166   2.306   5.447   3.174  0.0231 -0.1181 -0.4503
  892TIP3    H124167   2.255   5.372   3.142 -1.9656  1.2846 -0.6783
  892TIP3    H224168   2.382   5.406   3.216 -0.4236 -2.2282 -1.5105
  893TIP3   OH224169   5.888   3.409  15.694 -0.9256 -0.1599  0.4049
  893TIP3    H124170   5.968   3.445  15.733 -1.2201  1.6736 -0.5492
  893TIP3    H224171   5.818   3.465  15.728 -1.4205  0.1447 -1.0601
  894TIP3   OH224172   1.786   1.093  14.225  0.2999  0.0379 -0.7165
  894TIP3    H124173   1.704   1.143  14.223 -0.2885 -0.9004 -0.7046
  894TIP3    H224174   1.772   1.022  14.161  0.5550 -0.9527  0.3004
  895TIP3   OH224175   4.200   6.659  14.713 -0.4568  0.1540  0.1091
  895TIP3    H124176   4.167   6.702  14.792  0.4824  1.8667 -0.3843
  895TIP3    H224177   4.220   6.570  14.741 -3.2692 -0.3013  0.9631
  896TIP3   OH224178   4.584   3.287   0.724 -0.0673  0.0505  0.2649
  896TIP3    H124179   4.548   3.342   0.794 -0.4627 -2.2289  1.9801
  896TIP3    H224180   4.651   3.341   0.682  0.2852  1.4675  2.5186
  897TIP3   OH224181   5.816   5.921   4.241  0.5419  0.8733 -0.3917
  897TIP3    H124182   5.908   5.900   4.250  0.5534  0.5542 -1.1542
  897TIP3    H224183   5.815   6.014   4.217  0.4544  2.1647  3.8085
  898TIP3   OH224184   2.637   2.887  11.637 -0.5846 -0.2341  0.3030
  898TIP3    H124185   2.662   2.810  11.586 -0.0907  0.9411 -1.2794
  898TIP3    H224186   2.551   2.864  11.674 -0.5899 -1.4119 -0.3915
  899TIP3   OH224187   0.000   4.027  17.135 -0.6743  0.1598  0.2003
  899TIP3    H124188   0.016   4.116  17.102  1.8184  0.3866  1.7636
  899TIP3    H224189  -0.043   4.041  17.219  0.2867 -0.0517  0.7401
  900TIP3   OH224190   1.197   1.687  17.147  0.6599 -0.2696  0.1308
  900TIP3    H124191   1.141   1.621  17.104  0.5979 -0.6676  0.8130
  900TIP3    H224192   1.233   1.738  17.074 -0.4995 -0.0746 -0.3323
  901TIP3   OH224193   5.472   1.015  15.283 -0.5129 -0.0589 -0.0094
  901TIP3    H124194   5.440   1.074  15.352  1.4488  1.5053 -0.3523
  901TIP3    H224195   5.556   1.053  15.256 -0.4129 -1.5963 -2.0769
  902TIP3   OH224196   1.242   4.206  12.161  0.4462  0.2147 -0.9811
  902TIP3    H124197   1.181   4.142  12.124  0.4760 -0.4752  0.1242
  902TIP3    H224198   1.326   4.161  12.161  0.3834  0.0601  0.2110
  903TIP3   OH224199   3.415   6.103  13.430  0.0454 -0.5582 -0.6337
  903TIP3    H124200   3.505   6.132  13.419  0.0038  0.4512  1.1537
  903TIP3    H224201   3.421   6.031  13.493 -0.5606  1.7778  2.3647
  904TIP3   OH224202   3.789   2.857   3.831 -0.7389 -0.0832 -0.1352
  904TIP3    H124203   3.777   2.952   3.828  0.1189  0.0206 -0.4911
  904TIP3    H224204   3.883   2.845   3.830 -0.8515 -0.9763 -1.1967
  905TIP3   OH224205   0.399   3.076  11.248  0.0643  0.2105 -0.4504
  905TIP3    H124206   0.482   3.037  11.221 -1.3548 -2.2545 -1.5477
  905TIP3    H224207   0.361   3.112  11.168 -0.8795 -0.6039 -0.3835
  906TIP3   OH224208   5.330   0.358  11.602 -0.3474  0.0265 -0.7986
  906TIP3    H124209   5.295   0.386  11.687 -1.2809  1.6118 -1.6464
  906TIP3    H224210   5.313   0.264  11.599  0.5749 -0.2464  1.1431
  907TIP3   OH224211   6.781   1.631   0.792 -0.5659  0.0766  0.3019
  907TIP3    H124212   6.854   1.680   0.754  0.2700 -1.2713  0.0611
  907TIP3    H224213   6.788   1.648   0.886 -1.1245  1.4546  0.1162
  908TIP3   OH224214   6.816   0.424  10.909 -0.3410 -0.6810 -0.1561
  908TIP3    H124215   6.834   0.367  10.984 -0.6424  0.7930  1.0780
  908TIP3    H224216   6.835   0.513  10.940  1.3829 -0.1355 -2.4072
  909TIP3   OH224217   0.869   4.918  15.760 -0.1252 -0.5401  0.3100
  909TIP3    H124218   0.928   4.979  15.803 -0.1655 -0.6703  0.5516
  909TIP3    H224219   0.918   4.886  15.685 -0.4989  0.6186 -0.4639
  910TIP3   OH224220   0.644   1.224  10.479  0.0521 -0.4974  0.3575
  910TIP3    H124221   0.625   1.243  10.571  2.3712 -0.4657  0.8847
  910TIP3    H224222   0.706   1.291  10.453  0.3953 -1.2603 -0.8656
  911TIP3   OH224223   4.196   1.773   1.265  0.9103  0.1172 -0.2477
  911TIP3    H124224   4.108   1.787   1.232  1.0391  0.3330 -0.5066
  911TIP3    H224225   4.192   1.800   1.356 -0.2933 -3.5606  0.9500
  912TIP3   OH224226   1.453   2.664   5.688  0.5242  0.2486  0.0886
  912TIP3    H124227   1.471   2.662   5.782  2.9388  0.3229 -0.3211
  912TIP3    H224228   1.526   2.616   5.648 -0.4668  0.1885 -1.7687
  913TIP3   OH224229   3.910   1.120  11.248 -1.0466 -0.5968  0.0428
  913TIP3    H124230   3.899   1.195  11.307 -0.6308 -0.2836 -0.2740
  913TIP3    H224231   3.820   1.094  11.226 -1.1961 -0.3875  0.4027
  914TIP3   OH224232   4.034   4.964  12.301  0.1415  0.2782  0.1618
  914TIP3    H124233   4.075   4.902  12.241  1.0107  1.0270 -0.0501
  914TIP3    H224234   4.089   5.043  12.294  1.5443 -0.2458  3.4777
  915TIP3   OH224235   2.419   3.651   1.922  0.2796 -0.1405 -0.0917
  915TIP3    H124236   2.327   3.661   1.896  0.4923 -0.6423 -1.0958
  915TIP3    H224237   2.469   3.681   1.846  0.9624  0.2600  0.4941
  916TIP3   OH224238   5.891   3.730  13.316 -0.0676  0.1342 -0.6545
  916TIP3    H124239   5.801   3.758  13.303 -0.3537 -0.7555 -0.6185
  916TIP3    H224240   5.915   3.766  13.402  0.5201  2.6365 -1.7811
  917TIP3   OH224241   0.514   3.265  12.181 -0.4407 -0.6417 -0.4211
  917TIP3    H124242   0.525   3.258  12.086 -0.1381 -0.7764 -0.3766
  917TIP3    H224243   0.521   3.175  12.212  1.0996 -0.4381 -0.0974
  918TIP3   OH224244   5.677   0.780   4.622 -0.0237  0.0173 -0.2797
  918TIP3    H124245   5.642   0.848   4.680 -0.3446 -0.6026  0.2702
  918TIP3    H224246   5.600   0.739   4.584  0.1935  1.3926 -2.3447
  919TIP3   OH224247   2.060   2.571  15.416  0.4041  0.0916  0.1317
  919TIP3    H124248   2.120   2.644  15.401 -0.4833  0.4563 -2.0273
  919TIP3    H224249   2.079   2.509  15.344 -0.3235 -0.7931  0.6774
  920TIP3   OH224250   2.827   5.272   5.714  0.0167 -0.2955  0.3694
  920TIP3    H124251   2.843   5.221   5.793  1.1413  2.1173  1.7936
  920TIP3    H224252   2.752   5.228   5.673 -0.7111 -1.5467  2.8166
  921TIP3   OH224253   3.555   5.279   4.296  0.1935  0.0739  0.0873
  921TIP3    H124254   3.534   5.198   4.249  2.2140 -0.6237  0.3016
  921TIP3    H224255   3.579   5.340   4.226  2.8068 -0.8456  0.0623
  922TIP3   OH224256   3.883   0.859  10.360  0.2819 -0.3759  0.7494
  922TIP3    H124257   3.807   0.832  10.413  0.4414  0.2657  1.3223
  922TIP3    H224258   3.936   0.780  10.353 -0.2692 -0.7408  0.6476
  923TIP3   OH224259   6.039   5.695  10.984  0.7879 -0.4886  0.0735
  923TIP3    H124260   6.119   5.744  11.001  0.0733  0.7998 -0.1017
  923TIP3    H224261   5.985   5.754  10.931 -0.5535 -1.0441  0.7557
  924TIP3   OH224262   4.935   3.943   4.948  0.4435 -0.2390  0.4932
  924TIP3    H124263   4.958   3.953   4.855 -0.1951 -2.3416  0.0401
  924TIP3    H224264   5.018   3.922   4.991  0.5667 -0.4148  0.1757
  925TIP3   OH224265   1.768   2.531  12.844  0.1079  0.3522 -0.0695
  925TIP3    H124266   1.673   2.517  12.847  0.3775 -2.2710  3.3652
  925TIP3    H224267   1.779   2.624  12.862 -1.8489  0.3683  1.4067
  926TIP3   OH224268   2.128   0.785  13.588  0.2108  0.5538 -0.0587
  926TIP3    H124269   2.145   0.852  13.522  0.1302 -1.3844 -2.1607
  926TIP3    H224270   2.045   0.746  13.562  0.7081 -0.9859  0.5581
  927TIP3   OH224271   1.843   4.858  12.022  0.5081 -0.1479  0.1673
  927TIP3    H124272   1.880   4.771  12.035 -0.5925 -0.4066  1.9264
  927TIP3    H224273   1.758   4.855  12.066  0.4636  1.8261  0.3195
  928TIP3   OH224274   0.538   3.257  11.593 -0.2331 -0.3505 -0.0313
  928TIP3    H124275   0.609   3.193  11.596 -0.7420 -0.9389  2.7811
  928TIP3    H224276   0.573   3.329  11.541  1.9848 -1.1138  0.2858
  929TIP3   OH224277   3.231   6.007  11.876 -0.3268  0.0875 -0.0507
  929TIP3    H124278   3.144   6.040  11.898  0.1667  0.4803  1.4659
  929TIP3    H224279   3.226   5.913  11.895  0.0766  0.4112  1.8840
  930TIP3   OH224280   1.099   4.052  11.559  0.8798 -0.3301 -0.1702
  930TIP3    H124281   1.139   4.024  11.642  0.7941  0.4479  0.1403
  930TIP3    H224282   1.023   4.104  11.585 -0.1224 -1.4534 -0.7570
  931TIP3   OH224283   5.763   6.653  11.690 -0.2572  0.3632  0.5168
  931TIP3    H124284   5.855   6.629  11.686  0.2066  1.6308  2.3818
  931TIP3    H224285   5.746   6.699  11.608  0.2573 -1.3931 -0.6346
  932TIP3   OH224286   3.868   4.655   0.446  0.1287  0.2841 -0.2450
  932TIP3    H124287   3.798   4.686   0.388 -0.0670 -0.7439 -0.5771
  932TIP3    H224288   3.920   4.595   0.391  0.1418 -0.4398  0.5424
  933TIP3   OH224289   3.801   6.216   0.906 -0.7923 -0.2793 -0.1354
  933TIP3    H124290   3.873   6.262   0.949 -0.7562 -0.7928  0.3624
  933TIP3    H224291   3.727   6.224   0.967 -0.5769 -1.5100  0.3100
  934TIP3   OH224292   1.569   6.216   4.858  0.1280 -0.8052 -0.0982
  934TIP3    H124293   1.622   6.293   4.880  0.7569 -1.6921  1.7209
  934TIP3    H224294   1.634   6.146   4.844 -0.5042 -1.9616  2.3521
  935TIP3   OH224295   1.713   4.081  16.569  0.1762 -0.0004 -0.4441
  935TIP3    H124296   1.727   4.168  16.606  0.0380 -0.1989  0.0842
  935TIP3    H224297   1.623   4.059  16.592  0.6298 -0.8501  0.6556
  936TIP3   OH224298   3.014   6.754  16.377  0.3371 -0.0251 -0.0952
  936TIP3    H124299   3.102   6.744  16.414  0.4072  1.2847  0.1571
  936TIP3    H224300   3.028   6.804  16.296 -0.0212 -1.2015 -0.9135
  937TIP3   OH224301   6.716   5.915  12.099 -0.0707  0.7111  0.3339
  937TIP3    H124302   6.786   5.906  12.164 -0.3545  0.9077  0.6691
  937TIP3    H224303   6.762   5.919  12.015  0.3258  0.9018  0.5554
  938TIP3   OH224304   0.923   5.933  16.917 -0.1209 -0.2708  0.3724
  938TIP3    H124305   0.854   5.878  16.880 -0.1052 -0.3401  0.4462
  938TIP3    H224306   0.882   5.978  16.991 -0.1566 -0.1195  0.2618
  939TIP3   OH224307   1.250   6.538   6.612 -0.6003 -0.1851  0.6995
  939TIP3    H124308   1.301   6.609   6.651  0.4705 -0.3180 -0.4253
  939TIP3    H224309   1.170   6.580   6.580 -0.4887  0.3028  1.0628
  940TIP3   OH224310   0.085   4.820  13.633 -0.1526  0.3254  0.7614
  940TIP3    H124311   0.023   4.867  13.689  0.7812  1.9378  0.4796
  940TIP3    H224312   0.046   4.822  13.546  0.0607  0.9003  0.6795
  941TIP3   OH224313   3.643   0.907  16.103 -0.5897 -0.0088  0.4171
  941TIP3    H124314   3.738   0.904  16.088 -0.7366  1.6235 -1.2048
  941TIP3    H224315   3.633   0.957  16.184 -0.0596 -1.2552  1.2888
  942TIP3   OH224316   3.802   2.764  12.242 -0.0615 -0.3414 -0.0989
  942TIP3    H124317   3.798   2.668  12.237  2.8330 -0.5043 -0.9907
  942TIP3    H224318   3.808   2.792  12.150  1.6807  0.4725  0.2292
  943TIP3   OH224319   2.953   6.248   0.930 -0.2606 -0.1556  0.5110
  943TIP3    H124320   2.957   6.259   0.835 -2.0045  0.8786  0.5148
  943TIP3    H224321   3.007   6.320   0.964 -1.6351  1.0170  0.3070
  944TIP3   OH224322   5.541   0.590   4.950 -0.4762  0.4488  0.3566
  944TIP3    H124323   5.539   0.522   5.017 -0.0723  0.6748  0.6052
  944TIP3    H224324   5.602   0.559   4.885  0.2459  0.8811  0.8148
  945TIP3   OH224325   4.119   2.009   1.969  0.9187  0.5457 -0.7165
  945TIP3    H124326   4.157   2.012   2.057 -0.0145 -1.1733 -0.2096
  945TIP3    H224327   4.027   2.033   1.981  0.3940 -1.1979 -0.9223
  946TIP3   OH224328   5.500   2.646  16.207 -0.0723 -0.2136 -0.5582
  946TIP3    H124329   5.513   2.627  16.115 -1.4103  0.7217 -0.9711
  946TIP3    H224330   5.573   2.603  16.251  0.7909 -0.3653 -2.0745
  947TIP3   OH224331   1.581   5.514  13.749 -0.2754  0.5556  0.2349
  947TIP3    H124332   1.488   5.511  13.724 -0.7200 -2.1812  1.7954
  947TIP3    H224333   1.618   5.434  13.713  1.4450  1.4742 -0.1132
  948TIP3   OH224334   2.480   4.109   4.082  0.4848  0.0107  0.0749
  948TIP3    H124335   2.517   4.181   4.032  0.5510 -1.2432 -1.7665
  948TIP3    H224336   2.385   4.121   4.075  0.5001  0.1595  0.1268
  949TIP3   OH224337   2.408   2.152   1.666 -0.8081 -0.4893  0.1382
  949TIP3    H124338   2.411   2.124   1.575  1.1595 -0.6126  0.2068
  949TIP3    H224339   2.390   2.246   1.662 -0.7026 -0.4917 -0.3756
  950TIP3   OH224340   0.842   5.030  12.756 -0.4443 -0.9059 -0.1150
  950TIP3    H124341   0.920   4.980  12.779  0.5890  0.4900 -0.4495
  950TIP3    H224342   0.786   5.025  12.834  1.6618  1.1955  1.6791
  951TIP3   OH224343   1.093   4.174   5.672 -0.5358  0.0128  0.3570
  951TIP3    H124344   1.178   4.144   5.704  0.1917  1.3269 -0.2758
  951TIP3    H224345   1.033   4.101   5.690  1.1948 -1.9526 -1.3938
  952TIP3   OH224346   4.471   4.072   2.153 -0.1331  0.1895  0.3697
  952TIP3    H124347   4.485   4.166   2.166 -0.6531  0.4776 -0.9966
  952TIP3    H224348   4.534   4.047   2.086 -2.4775  0.4175 -2.0675
  953TIP3   OH224349   0.732   5.975  12.812 -0.1262  0.1121 -0.2593
  953TIP3    H124350   0.747   5.882  12.790  2.2208  0.2307  0.4965
  953TIP3    H224351   0.746   5.980  12.906 -0.2420  1.2412 -0.2887
  954TIP3   OH224352   1.059   4.401   1.496 -1.2252 -0.5153  0.6123
  954TIP3    H124353   1.146   4.418   1.529 -0.0863 -1.0188 -1.8670
  954TIP3    H224354   1.004   4.469   1.535  0.3344  0.0609  1.8926
  955TIP3   OH224355   6.463   0.191   0.014 -0.1508 -0.1396  0.5912
  955TIP3    H124356   6.439   0.101  -0.010  1.2731 -0.1444 -1.0793
  955TIP3    H224357   6.383   0.241   0.003 -0.5795 -0.9420 -0.0923
  956TIP3   OH224358   0.192   0.998   0.519 -0.2511 -0.3077  0.5590
  956TIP3    H124359   0.186   0.945   0.440 -1.6412  1.2389 -0.4547
  956TIP3    H224360   0.129   0.960   0.579 -0.5127 -0.4132  0.2202
  957TIP3   OH224361   2.089   5.080   3.594  0.6233 -0.1358 -0.2639
  957TIP3    H124362   2.108   5.043   3.681  0.4424  0.7025  0.1458
  957TIP3    H224363   2.108   5.173   3.604  1.0801 -0.1114 -1.2771
  958TIP3   OH224364   5.037   1.044   3.793 -0.2214 -0.4448  0.0018
  958TIP3    H124365   5.012   0.980   3.727  0.9639  0.4708 -1.3897
  958TIP3    H224366   5.044   1.126   3.746 -0.4168  0.4619  1.4973
  959TIP3   OH224367   4.038   6.433  16.471 -0.0482  0.1558 -0.1160
  959TIP3    H124368   3.964   6.443  16.411  0.6780 -0.2445 -1.1015
  959TIP3    H224369   4.091   6.512  16.456 -1.0927  1.3187  1.8263
  960TIP3   OH224370   0.056   1.212  14.193 -0.6272 -0.2022 -0.2112
  960TIP3    H124371  -0.040   1.209  14.190 -0.6422  0.7297 -1.6569
  960TIP3    H224372   0.078   1.189  14.283 -2.2812  1.3714  0.6519
  961TIP3   OH224373   6.801   1.659  15.263  0.4039 -0.2060  0.5108
  961TIP3    H124374   6.875   1.671  15.321  0.4529  0.2575  0.3583
  961TIP3    H224375   6.731   1.626  15.319  0.1679  1.1366  1.0188
  962TIP3   OH224376   6.283   4.118   2.120  0.3342 -0.0375  0.1699
  962TIP3    H124377   6.204   4.112   2.066  0.1673 -2.3474  0.5336
  962TIP3    H224378   6.252   4.106   2.209  1.0235 -0.5468  0.3558
  963TIP3   OH224379   3.281   0.577  16.361 -0.2325 -0.0508 -0.0818
  963TIP3    H124380   3.308   0.663  16.330 -0.5828  0.5849  1.2845
  963TIP3    H224381   3.344   0.516  16.323 -0.2254  0.7411 -1.4038
  964TIP3   OH224382   1.945   3.959  12.318 -0.5629 -0.0522 -0.3297
  964TIP3    H124383   1.879   3.984  12.253 -0.3560 -1.6401 -1.1864
  964TIP3    H224384   2.011   4.028  12.313 -1.6540  1.0423 -0.1538
  965TIP3   OH224385   1.368   3.876  15.810  0.3585 -0.1668 -0.4962
  965TIP3    H124386   1.276   3.860  15.832  0.0297 -0.1190 -1.7809
  965TIP3    H224387   1.401   3.929  15.883 -0.6426 -0.1496 -0.0422
  966TIP3   OH224388   0.259   0.595  10.699 -0.4598 -0.2701 -0.0662
  966TIP3    H124389   0.352   0.615  10.698 -0.4910  0.2875  2.4539
  966TIP3    H224390   0.217   0.677  10.670 -0.2234 -0.2335 -0.3140
  967TIP3   OH224391   5.244   3.918  14.838 -0.2787  0.1997 -0.0162
  967TIP3    H124392   5.309   3.985  14.818  0.2462 -0.4078 -0.3766
  967TIP3    H224393   5.162   3.967  14.848 -0.0174  0.8397 -0.8494
  968TIP3   OH224394   2.085   2.467   4.221  0.4712  0.4423 -0.0054
  968TIP3    H124395   2.119   2.431   4.303  0.2225  1.2131  0.4430
  968TIP3    H224396   1.997   2.431   4.213  0.3221  0.7256  0.3099
  969TIP3   OH224397   4.036   0.901  14.344 -0.4668 -0.6973  0.2937
  969TIP3    H124398   4.017   0.952  14.265 -2.4958 -3.0803 -0.8868
  969TIP3    H224399   3.983   0.940  14.412 -0.5982 -0.1081 -0.1413
  970TIP3   OH224400   5.524   0.570  15.740  0.2997 -0.4843  0.0682
  970TIP3    H124401   5.527   0.478  15.713 -0.4336 -0.8156  1.0731
  970TIP3    H224402   5.469   0.571  15.818 -1.3840  1.0723 -1.0381
  971TIP3   OH224403   1.680   4.511  16.314 -0.8101 -0.1266 -0.0268
  971TIP3    H124404   1.746   4.576  16.338 -1.3861  1.1438 -1.7259
  971TIP3    H224405   1.614   4.516  16.383  0.1667 -0.4572  0.9727
  972TIP3   OH224406   0.252   5.880   3.149 -0.0318 -0.0464  0.4599
  972TIP3    H124407   0.207   5.825   3.213 -1.4812 -0.4428 -0.8341
  972TIP3    H224408   0.211   5.967   3.159 -1.6746 -0.5652 -1.1736
  973TIP3   OH224409   5.408   6.513  17.005 -0.4962 -0.7979 -0.0437
  973TIP3    H124410   5.467   6.572  16.958 -1.0652  0.1065  0.3452
  973TIP3    H224411   5.427   6.528  17.097 -3.1653  1.5965  0.2693
  974TIP3   OH224412   5.495   1.648   1.962  0.3752  0.0379  0.1557
  974TIP3    H124413   5.488   1.612   1.874 -2.1260 -1.8085  0.9926
  974TIP3    H224414   5.539   1.579   2.012  1.0295  0.7297  0.5494
  975TIP3   OH224415   2.296   1.623   0.512  0.8272 -0.0343 -0.0938
  975TIP3    H124416   2.364   1.609   0.578 -0.2831 -0.8063  0.9327
  975TIP3    H224417   2.215   1.632   0.563  0.5293  4.7106 -0.9458
  976TIP3   OH224418   2.401   3.014   4.682 -0.0965  0.2053  0.7078
  976TIP3    H124419   2.420   3.007   4.589 -0.8298 -0.5129  0.6060
  976TIP3    H224420   2.390   3.108   4.698 -1.4921  0.2302 -0.2436
  977TIP3   OH224421   4.644   6.611   0.173  0.1644  0.0664 -0.1488
  977TIP3    H124422   4.586   6.687   0.165 -1.6068 -1.2610 -0.6315
  977TIP3    H224423   4.726   6.639   0.132 -0.0207  2.0782  0.7353
  978TIP3   OH224424   1.080   5.489   5.269 -0.0264 -0.0195  0.2714
  978TIP3    H124425   0.995   5.457   5.297 -1.0931  0.7079 -1.9458
  978TIP3    H224426   1.067   5.519   5.180  2.1219  1.8023  0.4673
  979TIP3   OH224427   2.494   1.406   1.084 -0.2282  0.3599 -0.6195
  979TIP3    H124428   2.503   1.378   0.993  0.6674 -0.9518 -0.1592
  979TIP3    H224429   2.461   1.328   1.129 -0.6192  0.9881  0.1874
  980TIP3   OH224430   1.637   3.583  16.921 -0.3323 -0.2725 -0.1896
  980TIP3    H124431   1.625   3.496  16.881 -1.8320 -0.1324 -0.1028
  980TIP3    H224432   1.629   3.644  16.849  0.5089 -0.1814 -0.2132
  981TIP3   OH224433   6.714   4.983   1.722 -0.2718  0.2250  0.8556
  981TIP3    H124434   6.661   5.062   1.731 -0.5089  0.3245 -0.9871
  981TIP3    H224435   6.666   4.916   1.769 -0.1507  1.1082  2.3104
  982TIP3   OH224436   4.552   5.347  17.070 -0.0664  0.2699 -0.2850
  982TIP3    H124437   4.554   5.252  17.072  2.9229  0.2089 -0.5733
  982TIP3    H224438   4.485   5.369  17.006  0.1616 -1.7054 -1.2760
  983TIP3   OH224439   4.580   0.996  12.024  0.1192 -0.0153 -0.3885
  983TIP3    H124440   4.636   1.048  11.966  0.2089  1.6094  1.0683
  983TIP3    H224441   4.569   1.051  12.102 -1.4086 -1.3901  0.4203
  984TIP3   OH224442   1.403   5.534   2.971  0.3748 -0.1407 -0.2179
  984TIP3    H124443   1.318   5.512   2.933 -0.7110  1.8143  0.9007
  984TIP3    H224444   1.395   5.514   3.064  0.4545  1.6987  0.2319
  985TIP3   OH224445   6.262   0.114   3.645  0.0604 -0.4003 -0.1708
  985TIP3    H124446   6.177   0.105   3.687 -0.2821 -0.8561 -0.9556
  985TIP3    H224447   6.245   0.104   3.552  1.0432 -1.0196 -0.3051
  986TIP3   OH224448   2.270   4.893   3.823  0.3266 -0.5411  0.2717
  986TIP3    H124449   2.315   4.883   3.739  0.3007 -0.8599  0.2923
  986TIP3    H224450   2.329   4.947   3.876  0.5078 -0.6382  0.1686
  987TIP3   OH224451   0.779   4.911  13.881  0.0997  0.1429 -0.1081
  987TIP3    H124452   0.684   4.920  13.888 -0.0060  2.2726 -2.4583
  987TIP3    H224453   0.792   4.868  13.796  1.2394 -0.3385  0.3024
  988TIP3   OH224454   3.759   0.861   2.438 -0.1442 -0.1838 -0.4862
  988TIP3    H124455   3.734   0.870   2.346 -1.8048  1.2561  0.0472
  988TIP3    H224456   3.744   0.768   2.458  1.1059 -0.7230 -1.8593
  989TIP3   OH224457   1.137   4.488  14.013 -0.1880  0.0124  0.0743
  989TIP3    H124458   1.140   4.408  13.959 -0.0848  0.6259 -0.8482
  989TIP3    H224459   1.167   4.459  14.099 -2.0419 -1.3770  0.3212
  990TIP3   OH224460   6.373   1.619  13.261  0.4719 -0.0596 -0.1323
  990TIP3    H124461   6.449   1.588  13.212 -0.4958 -2.4117 -0.3038
  990TIP3    H224462   6.375   1.570  13.343  0.4368  1.6477  0.9416
  991TIP3   OH224463   5.542   5.585   1.423 -0.3455 -0.0358  0.3176
  991TIP3    H124464   5.482   5.557   1.492  0.0195  0.7786  0.9970
  991TIP3    H224465   5.566   5.505   1.377 -0.0837 -0.6979  1.5662
  992TIP3   OH224466   6.650   4.691  14.994  0.0322 -0.0841 -0.4007
  992TIP3    H124467   6.665   4.658  15.083  1.9483  1.1803 -0.2063
  992TIP3    H224468   6.638   4.612  14.941  0.0758 -0.9006  0.7737
  993TIP3   OH224469   1.891   1.866   6.042 -0.4283  0.3067  0.3562
  993TIP3    H124470   1.813   1.920   6.039 -0.5952  0.1261  1.3582
  993TIP3    H224471   1.887   1.820   6.125 -0.2734 -1.2393 -0.4460
  994TIP3   OH224472   2.465   6.046  17.184  0.3423 -0.7895 -0.0533
  994TIP3    H124473   2.467   5.950  17.175 -1.6095 -0.7481 -1.5740
  994TIP3    H224474   2.391   6.063  17.241  0.1431 -0.1675 -0.4923
  995TIP3   OH224475   5.468   6.487   4.821  0.2969  0.1564  0.2043
  995TIP3    H124476   5.406   6.536   4.767 -0.5653  1.2487  2.0793
  995TIP3    H224477   5.509   6.425   4.761  1.3811  3.0734 -2.2770
  996TIP3   OH224478   1.928   1.163   4.229 -0.4687  0.2275 -0.4697
  996TIP3    H124479   1.899   1.109   4.303  1.3607  0.0896  0.1992
  996TIP3    H224480   1.932   1.252   4.265 -0.1707  0.2554 -0.5681
  997TIP3   OH224481   2.327   4.439   5.594 -0.5025 -0.0708  0.2929
  997TIP3    H124482   2.399   4.473   5.647 -1.1164  0.2208  0.9718
  997TIP3    H224483   2.275   4.516   5.571 -0.3658 -0.2252 -0.5587
  998TIP3   OH224484   1.049   3.420  15.239  0.0162  0.2256 -0.2492
  998TIP3    H124485   1.015   3.346  15.288  1.4111 -0.4175 -0.1950
  998TIP3    H224486   1.143   3.419  15.256  0.2175  1.3471 -1.1352
  999TIP3   OH224487   6.173   4.791  12.535 -0.2951  0.4779 -0.3078
  999TIP3    H124488   6.243   4.820  12.593  0.1022  2.7118 -1.7374
  999TIP3    H224489   6.218   4.738  12.468  0.0926  1.8202 -1.1638
 1000TIP3   OH224490   4.006   3.214   3.342  0.2489  0.5042  0.1255
 1000TIP3    H124491   4.071   3.220   3.412 -0.5080  0.8556  0.8096
 1000TIP3    H224492   4.007   3.121   3.318  2.7231  0.8853 -1.5695
 1001TIP3   OH224493   0.460   4.711  12.922 -0.1226 -0.3060 -0.0034
 1001TIP3    H124494   0.428   4.648  12.987 -0.8935 -0.5873 -0.6342
 1001TIP3    H224495   0.553   4.692  12.913 -0.3390 -1.3557 -0.1703
 1002TIP3   OH224496   5.555   3.812  10.903  0.3155 -0.5263 -0.4517
 1002TIP3    H124497   5.479   3.764  10.870  1.4335 -3.4567  0.8640
 1002TIP3    H224498   5.628   3.751  10.892  1.7556  0.6484  1.8327
 1003TIP3   OH224499   3.652   0.179   1.946 -0.2143 -0.5177 -0.3518
 1003TIP3    H124500   3.634   0.273   1.944 -0.1357 -0.4852  0.3171
 1003TIP3    H224501   3.711   0.164   1.872  0.1700  0.0497 -0.1671
 1004TIP3   OH224502   3.613   3.205   0.921 -0.3668  0.2426 -0.3027
 1004TIP3    H124503   3.581   3.193   0.831 -0.1476  1.7444 -0.6117
 1004TIP3    H224504   3.665   3.127   0.939  0.8123  0.5678 -2.0349
 1005TIP3   OH224505   6.515   3.898   4.217 -0.3331  0.4938 -0.1255
 1005TIP3    H124506   6.552   3.811   4.233 -2.3003 -0.1914  1.0701
 1005TIP3    H224507   6.586   3.959   4.238  0.3637 -0.7575  1.3007
 1006TIP3   OH224508   6.073   3.717  17.215  0.3379 -0.4347 -0.2617
 1006TIP3    H124509   6.130   3.780  17.259 -0.1916 -0.6081  0.7028
 1006TIP3    H224510   6.044   3.658  17.285 -1.2034 -0.2148 -0.6846
 1007TIP3   OH224511   6.420   0.707  11.258  0.1363 -0.3917 -0.3259
 1007TIP3    H124512   6.432   0.621  11.217 -1.7482 -0.3626 -1.0501
 1007TIP3    H224513   6.402   0.766  11.185  3.3081  1.0884 -0.0436
 1008TIP3   OH224514   2.549   6.164  15.888  0.3630 -0.5264  0.0184
 1008TIP3    H124515   2.606   6.186  15.962 -0.0795  0.5825  0.0468
 1008TIP3    H224516   2.588   6.085  15.851  1.1680 -0.5265  0.8250
 1009TIP3   OH224517   5.806   2.855   0.164 -0.4855  0.0774  0.3824
 1009TIP3    H124518   5.867   2.813   0.225 -0.5485 -0.0478  0.3603
 1009TIP3    H224519   5.769   2.782   0.114 -1.9978 -0.0316  1.5890
 1010TIP3   OH224520   4.909   0.906   5.710  0.1855  0.3065 -0.1079
 1010TIP3    H124521   4.848   0.938   5.776  0.3318  0.7117 -0.1654
 1010TIP3    H224522   4.873   0.936   5.627  0.6877  0.9395 -0.1108
 1011TIP3   OH224523   2.762   5.510  11.257  0.0123  0.5328  0.6781
 1011TIP3    H124524   2.755   5.434  11.314  0.9339 -0.9244 -1.0492
 1011TIP3    H224525   2.724   5.481  11.174  0.2843  2.0011  0.0171
 1012TIP3   OH224526   6.617   2.232   0.523 -0.1565 -0.4252  0.4984
 1012TIP3    H124527   6.696   2.213   0.574  0.3215  1.4126  0.5279
 1012TIP3    H224528   6.642   2.211   0.433 -0.5102 -2.2541  0.7854
 1013TIP3   OH224529   4.061   4.035  14.744 -0.0024  0.0502 -0.5046
 1013TIP3    H124530   4.080   4.115  14.695  1.1271  0.6494  0.8518
 1013TIP3    H224531   4.074   4.059  14.835 -1.2108 -1.2753  0.0576
 1014TIP3   OH224532   5.217   5.700  11.173  0.0141  0.3100  0.3158
 1014TIP3    H124533   5.194   5.617  11.215  2.1023 -0.0817  0.7827
 1014TIP3    H224534   5.311   5.695  11.159 -0.1008  1.8497 -1.3792
 1015TIP3   OH224535   1.190   0.352   3.304 -0.1193 -0.1009  0.3084
 1015TIP3    H124536   1.195   0.370   3.398  0.0178 -0.0039  0.2827
 1015TIP3    H224537   1.275   0.313   3.283 -0.6848 -1.5132  0.5173
 1016TIP3   OH224538   6.373   6.752  17.225  0.3280 -0.2046  0.6792
 1016TIP3    H124539   6.441   6.753  17.158 -1.1332  2.5075 -0.9340
 1016TIP3    H224540   6.295   6.722  17.179 -0.5570  1.0471  1.3264
 1017TIP3   OH224541   4.398   0.315  14.151 -0.3316 -0.2420  0.2755
 1017TIP3    H124542   4.337   0.285  14.084  0.7870 -2.3442  0.1179
 1017TIP3    H224543   4.360   0.397  14.183 -2.3898 -0.6626 -0.9019
 1018TIP3   OH224544   5.639   0.252   1.117 -0.7782 -0.7754 -0.0106
 1018TIP3    H124545   5.592   0.323   1.161  0.0030 -0.1230 -0.1899
 1018TIP3    H224546   5.717   0.294   1.080 -0.0509 -1.8184  0.2782
 1019TIP3   OH224547   1.254   1.067   3.079  0.1786 -0.3710 -0.4525
 1019TIP3    H124548   1.169   1.108   3.065 -0.3639 -1.0796  0.6684
 1019TIP3    H224549   1.277   1.029   2.994  0.2576  1.3960 -1.2599
 1020TIP3   OH224550   1.352   1.670   0.533  0.6383  0.2345 -0.6080
 1020TIP3    H124551   1.313   1.660   0.619 -0.2330  0.2448 -0.9882
 1020TIP3    H224552   1.281   1.702   0.478  0.4910 -2.0676 -1.8920
 1021TIP3   OH224553   5.267   6.350   1.045 -0.2411 -0.0804  0.0441
 1021TIP3    H124554   5.324   6.423   1.019  1.4121 -1.7583 -1.3903
 1021TIP3    H224555   5.328   6.276   1.058 -1.9621 -1.5849 -0.0435
 1022TIP3   OH224556   5.807   0.680   2.275 -0.0725 -0.1092 -0.2988
 1022TIP3    H124557   5.840   0.642   2.356  0.4671  1.3276  0.1820
 1022TIP3    H224558   5.818   0.611   2.210 -0.2358 -1.1811  0.7826
 1023TIP3   OH224559   3.338   6.073   0.222 -0.2561  0.5281 -0.2110
 1023TIP3    H124560   3.331   6.042   0.312 -0.9336 -1.1178 -0.7809
 1023TIP3    H224561   3.432   6.078   0.204 -0.1025 -1.0656 -0.0010
 1024TIP3   OH224562   4.288   4.821  13.619  0.0333 -0.3878  0.6333
 1024TIP3    H124563   4.200   4.858  13.627 -0.1314 -0.4336 -0.7353
 1024TIP3    H224564   4.283   4.737  13.666 -0.6024 -0.3228  0.6875
 1025TIP3   OH224565   2.780   0.937   3.290  0.4398  0.1195  0.1950
 1025TIP3    H124566   2.768   0.942   3.385 -0.0811 -0.8161  0.1883
 1025TIP3    H224567   2.697   0.902   3.257  0.3906  1.0060 -0.6733
 1026TIP3   OH224568   3.922   5.962   4.201 -0.0716  0.0814  0.2281
 1026TIP3    H124569   3.932   5.868   4.185  0.5556  0.0707  0.6559
 1026TIP3    H224570   3.845   5.968   4.257  1.6423 -0.4794  2.8020
 1027TIP3   OH224571   5.721   4.104   6.313 -0.2888  0.3639 -0.6980
 1027TIP3    H124572   5.682   4.158   6.381 -0.1643  1.5805 -1.5604
 1027TIP3    H224573   5.650   4.046   6.285 -0.9305  1.2427 -0.9241
 1028TIP3   OH224574   2.089   1.572   5.919 -0.4590 -0.2929 -0.3254
 1028TIP3    H124575   2.104   1.664   5.936  0.5373 -0.5697  0.4111
 1028TIP3    H224576   1.995   1.564   5.908 -0.6511  0.6695  0.4831
 1029TIP3   OH224577   3.544   5.519  12.258 -0.0956  0.5053 -0.3431
 1029TIP3    H124578   3.611   5.552  12.319  0.0180  0.1452 -0.2685
 1029TIP3    H224579   3.528   5.429  12.287  0.6607  0.0007 -1.4400
 1030TIP3   OH224580   0.253   2.900  11.688  0.0331 -0.2245  0.4647
 1030TIP3    H124581   0.266   2.963  11.617  1.5617  1.3433  2.0221
 1030TIP3    H224582   0.310   2.931  11.758  0.4197 -3.0540  1.5437
 1031TIP3   OH224583   5.813   5.757   1.103  0.4739  0.0801  0.3325
 1031TIP3    H124584   5.794   5.678   1.054  3.0114 -0.3454 -0.0679
 1031TIP3    H224585   5.818   5.728   1.194 -1.1819  0.3121  0.5308
 1032TIP3   OH224586   1.608   0.366   5.199 -0.2637  0.0227  0.6386
 1032TIP3    H124587   1.572   0.323   5.276 -0.4452 -0.8947  0.0527
 1032TIP3    H224588   1.596   0.303   5.128 -0.6076  1.0659 -0.2589
 1033TIP3   OH224589   3.343   0.132   4.605  0.2989  0.3228  0.1061
 1033TIP3    H124590   3.336   0.055   4.661 -0.8621  1.1947  1.2153
 1033TIP3    H224591   3.253   0.157   4.586  0.6539  1.2132 -0.5184
 1034TIP3   OH224592   0.200   1.386   3.970  0.5415 -0.0284 -0.4292
 1034TIP3    H124593   0.293   1.403   3.980  1.3024 -2.6615 -1.9134
 1034TIP3    H224594   0.178   1.420   3.883  0.0436  0.7229 -0.0236
 1035TIP3   OH224595   5.791   5.202  11.542  0.3457 -0.0872  0.1319
 1035TIP3    H124596   5.777   5.143  11.615 -0.0781 -0.1261  0.0179
 1035TIP3    H224597   5.704   5.221  11.508  0.5790 -0.5545 -0.7519
 1036TIP3   OH224598   1.648   5.080   5.954 -0.2945  0.4662  0.0988
 1036TIP3    H124599   1.643   5.124   5.869 -2.4999  0.7450  0.3252
 1036TIP3    H224600   1.741   5.081   5.976  0.2590  0.8489 -2.0599
 1037TIP3   OH224601   1.446   5.606   3.622  0.3538 -0.1277  0.2031
 1037TIP3    H124602   1.455   5.637   3.712  1.9959  0.8584 -0.2728
 1037TIP3    H224603   1.504   5.662   3.571 -0.6942 -0.5405 -1.5207
 1038TIP3   OH224604   1.419   1.369  15.719 -0.0114  0.3331 -0.0315
 1038TIP3    H124605   1.507   1.332  15.729  0.3992  0.6659 -1.9439
 1038TIP3    H224606   1.383   1.368  15.807  1.7067 -0.3134  0.7255
 1039TIP3   OH224607   3.354   2.023   1.904 -0.1258  0.0217  0.7353
 1039TIP3    H124608   3.265   2.004   1.874 -0.4373  2.3187 -0.0664
 1039TIP3    H224609   3.406   2.029   1.824  0.3803  0.3171  1.0757
 1040TIP3   OH224610   2.809   0.270  11.322 -0.8211  0.0081 -0.1649
 1040TIP3    H124611   2.818   0.206  11.251  1.3766  0.1292 -0.0568
 1040TIP3    H224612   2.887   0.258  11.375 -0.4050  2.6831 -0.0485
 1041TIP3   OH224613   6.152   3.296   0.072 -0.5191 -0.4186 -0.4248
 1041TIP3    H124614   6.155   3.339  -0.014  0.2590 -0.7213 -0.5599
 1041TIP3    H224615   6.078   3.236   0.066 -0.3590 -0.5724 -0.9588
 1042TIP3   OH224616   5.946   5.576   4.095 -0.3734  0.3001 -0.0017
 1042TIP3    H124617   5.950   5.640   4.025  0.3277 -0.3063 -0.5291
 1042TIP3    H224618   6.028   5.527   4.088 -0.4057  0.0601  1.0762
 1043TIP3   OH224619   0.238   4.413  16.290 -0.3294 -0.8110 -0.2417
 1043TIP3    H124620   0.260   4.480  16.225 -0.0453 -0.2549  0.4081
 1043TIP3    H224621   0.321   4.373  16.313 -0.6579 -2.5024 -1.7557
 1044TIP3   OH224622   5.783   4.659   3.250  0.8061 -0.5149 -0.1719
 1044TIP3    H124623   5.786   4.566   3.228  0.5791 -0.4513 -0.4823
 1044TIP3    H224624   5.782   4.662   3.346  0.8832 -0.8279 -0.1618
 1045TIP3   OH224625   3.071   5.411  13.000 -0.9683  0.0379 -0.2375
 1045TIP3    H124626   3.090   5.411  13.094 -2.7089 -2.7987  0.2582
 1045TIP3    H224627   3.010   5.337  12.989 -1.7038  0.9903 -3.4334
 1046TIP3   OH224628   0.605   2.735  12.123  0.0660  0.5444 -0.1172
 1046TIP3    H124629   0.534   2.773  12.072  0.3969 -1.3410 -2.1450
 1046TIP3    H224630   0.568   2.653  12.157  0.5119  0.7792  0.9797
 1047TIP3   OH224631   4.337   4.072   4.924  0.1298 -0.0287  0.4041
 1047TIP3    H124632   4.426   4.102   4.908 -0.7847  1.7266 -1.8234
 1047TIP3    H224633   4.300   4.136   4.984 -0.2698  0.5032 -0.3898
 1048TIP3   OH224634   5.932   4.820  11.696  0.5765  0.0078  0.3733
 1048TIP3    H124635   5.926   4.796  11.604 -0.9587  0.4203  0.3250
 1048TIP3    H224636   6.006   4.881  11.701  1.1397 -0.6029 -0.4412
 1049TIP3   OH224637   1.893   2.126  12.834  0.6079 -0.0098  0.1395
 1049TIP3    H124638   1.901   2.154  12.925  0.9050  1.4327 -0.3095
 1049TIP3    H224639   1.818   2.066  12.834  0.8318 -0.3240  1.3840
 1050TIP3   OH224640   2.473   4.245  11.622 -0.0659 -0.2749  0.0763
 1050TIP3    H124641   2.422   4.213  11.697  1.2361 -0.6475  0.8277
 1050TIP3    H224642   2.547   4.185  11.616  0.0291 -0.0484 -1.3226
 1051TIP3   OH224643   6.428   6.543   5.071 -0.3756  0.3480  0.6545
 1051TIP3    H124644   6.378   6.621   5.094 -1.2836 -0.9883  4.0211
 1051TIP3    H224645   6.367   6.471   5.088  0.5849 -1.1785 -1.8359
 1052TIP3   OH224646   3.223   4.418   4.098 -0.1600  0.5225  0.1266
 1052TIP3    H124647   3.317   4.428   4.079  0.3075 -0.2122  1.8673
 1052TIP3    H224648   3.204   4.327   4.078  0.2212 -0.1267  2.3706
 1053TIP3   OH224649   4.799   0.991  15.606  0.1755  0.6724  0.5202
 1053TIP3    H124650   4.820   1.040  15.526  1.7647 -0.3575  0.2663
 1053TIP3    H224651   4.875   0.935  15.621 -1.2990 -1.2959  1.1147
 1054TIP3   OH224652   6.182   4.188  15.325 -0.1304 -0.0374 -0.0223
 1054TIP3    H124653   6.268   4.158  15.355  0.0016  0.1495 -0.2040
 1054TIP3    H224654   6.178   4.279  15.354 -0.3414 -0.1014  0.1425
 1055TIP3   OH224655   6.402   0.957  16.166  0.0491  0.6046 -0.0127
 1055TIP3    H124656   6.386   1.007  16.246 -0.0628  1.3714 -0.5061
 1055TIP3    H224657   6.458   0.884  16.193 -0.6129  0.4236  0.9021
 1056TIP3   OH224658   0.263   1.627   4.473  0.3932  0.1354  0.3714
 1056TIP3    H124659   0.210   1.580   4.409 -0.0575  2.2889 -0.9660
 1056TIP3    H224660   0.331   1.565   4.498 -0.3044 -1.2948 -1.0873
 1057TIP3   OH224661   4.256   3.797  13.123  0.2842 -0.3371  0.0978
 1057TIP3    H124662   4.242   3.812  13.217  0.7938 -0.1979  0.1547
 1057TIP3    H224663   4.227   3.878  13.081  4.6124  1.7255  0.5295
 1058TIP3   OH224664   3.606   2.927  12.734  0.3599 -0.2609  0.6038
 1058TIP3    H124665   3.616   2.963  12.645 -0.2860 -0.3559  0.4823
 1058TIP3    H224666   3.597   3.004  12.790 -2.2087 -0.1667  0.1985
 1059TIP3   OH224667   0.607   4.882   4.222  0.3640 -0.6475 -0.7353
 1059TIP3    H124668   0.652   4.875   4.307  1.3970  0.3219 -1.1856
 1059TIP3    H224669   0.514   4.887   4.245  0.7325  2.0778  0.5298
 1060TIP3   OH224670   6.293   2.903   3.568  0.6790  0.4603 -0.1679
 1060TIP3    H124671   6.300   2.990   3.530 -1.5538  0.1439 -1.4589
 1060TIP3    H224672   6.284   2.844   3.493 -1.2113 -0.4752  0.7368
 1061TIP3   OH224673   3.664   2.696   4.008 -0.5701 -0.0843 -0.1374
 1061TIP3    H124674   3.717   2.769   3.977  1.5646 -0.5515  2.1062
 1061TIP3    H224675   3.598   2.737   4.065  0.7020  0.1715  1.2191
 1062TIP3   OH224676   0.030   3.237   0.703 -0.6353  0.2344 -0.0236
 1062TIP3    H124677  -0.018   3.195   0.774  0.7377 -1.6453 -0.1477
 1062TIP3    H224678   0.121   3.240   0.734 -0.1883  0.2865 -1.2990
 1063TIP3   OH224679   5.894   4.195  13.896  0.5804  0.3837  0.0220
 1063TIP3    H124680   5.799   4.200  13.906  0.3249 -2.4048 -0.2480
 1063TIP3    H224681   5.926   4.274  13.938 -1.8478  1.3560  0.2152
 1064TIP3   OH224682   0.668   2.154  13.263 -0.0836 -0.1210  0.0807
 1064TIP3    H124683   0.759   2.136  13.241 -0.3826 -0.0306 -1.3541
 1064TIP3    H224684   0.634   2.200  13.186 -1.6321 -1.1462  0.1170
 1065TIP3   OH224685   4.773   0.946  15.215 -0.0326  0.1950 -0.4001
 1065TIP3    H124686   4.742   1.019  15.161 -0.0762 -0.0825 -0.7538
 1065TIP3    H224687   4.713   0.874  15.195  0.0121  0.0598 -0.0550
 1066TIP3   OH224688   1.335   2.863   0.962 -0.5113  0.2523  0.2368
 1066TIP3    H124689   1.423   2.888   0.934  0.4856 -0.9404  2.0829
 1066TIP3    H224690   1.288   2.846   0.881  1.2042  0.1666 -0.7981
 1067TIP3   OH224691   6.161   4.009   1.210  0.0293 -0.3821  0.7147
 1067TIP3    H124692   6.216   4.047   1.278 -0.6267 -0.6841  1.4257
 1067TIP3    H224693   6.155   3.916   1.234 -0.0327 -0.5334  0.1226
 1068TIP3   OH224694   1.637   5.510  16.724  0.0646 -0.1008  0.4245
 1068TIP3    H124695   1.707   5.572  16.743  0.5675  0.1179 -1.7827
 1068TIP3    H224696   1.557   5.556  16.748  0.5111  0.8615  0.1312
 1069TIP3   OH224697   5.883   1.648   2.097 -0.1257  0.0794 -0.0018
 1069TIP3    H124698   5.866   1.728   2.047 -0.6222 -0.1167 -0.1573
 1069TIP3    H224699   5.815   1.648   2.165 -1.0663 -0.9497 -0.9023
 1070TIP3   OH224700   3.695   0.271   2.548  0.0348 -0.2326 -0.1662
 1070TIP3    H124701   3.749   0.205   2.591  1.4227  0.8985 -0.0891
 1070TIP3    H224702   3.695   0.246   2.455  1.4903  0.2363 -0.3186
 1071TIP3   OH224703   1.250   4.212   2.538 -0.3062 -0.3170 -0.0425
 1071TIP3    H124704   1.227   4.119   2.542 -0.1952 -0.3226  0.7033
 1071TIP3    H224705   1.202   4.251   2.611  0.3253  0.0609  0.1695
 1072TIP3   OH224706   4.201   5.579   2.769  0.7921 -0.1622  0.0997
 1072TIP3    H124707   4.130   5.642   2.771 -0.3703 -1.2859 -2.1436
 1072TIP3    H224708   4.172   5.509   2.828 -0.0278 -0.6378 -0.8396
 1073TIP3   OH224709   2.651   2.514   4.563  0.2654 -0.1994 -0.0641
 1073TIP3    H124710   2.686   2.530   4.475 -0.7703  2.1426 -0.1385
 1073TIP3    H224711   2.701   2.573   4.619  1.4571 -2.2308  1.1294
 1074TIP3   OH224712   2.006   6.151  11.289  0.5303 -0.5715 -0.2811
 1074TIP3    H124713   2.001   6.240  11.323 -0.0379 -1.5001  2.3334
 1074TIP3    H224714   2.100   6.133  11.283  0.6485 -0.2723  0.5700
 1075TIP3   OH224715   6.102   6.803  12.653 -0.2664 -0.0779 -0.1565
 1075TIP3    H124716   6.076   6.794  12.562 -0.3590  0.6784 -0.2130
 1075TIP3    H224717   6.138   6.717  12.677 -3.0575 -1.3081  0.0066
 1076TIP3   OH224718   2.606   4.078   1.779 -1.0108  0.1932 -0.1603
 1076TIP3    H124719   2.588   4.139   1.707  3.5431  1.2099 -0.7231
 1076TIP3    H224720   2.621   3.994   1.736 -0.2950  0.3431 -0.2190
 1077TIP3   OH224721   5.114   2.406   3.597  0.2098  1.2255 -0.4158
 1077TIP3    H124722   5.141   2.324   3.639 -1.5361  0.1364 -1.3174
 1077TIP3    H224723   5.123   2.390   3.503 -0.7739  1.8319 -0.6279
 1078TIP3   OH224724   6.774   1.865  14.515  0.2275  0.2768  0.2126
 1078TIP3    H124725   6.748   1.958  14.512  0.3785  0.2819 -1.6321
 1078TIP3    H224726   6.691   1.818  14.520  0.1701  0.4931  2.6858
 1079TIP3   OH224727   4.139   5.484   4.868 -0.8445 -0.7264  0.1851
 1079TIP3    H124728   4.160   5.570   4.833  0.5284 -1.0670  0.1166
 1079TIP3    H224729   4.088   5.441   4.799  1.2992 -1.1703 -1.2148
 1080TIP3   OH224730   3.395   0.123   3.449 -0.4977 -0.3262  0.0896
 1080TIP3    H124731   3.395   0.090   3.539  0.4673 -0.6887 -0.0352
 1080TIP3    H224732   3.421   0.048   3.396 -1.4708 -0.2273 -0.5477
 1081TIP3   OH224733   1.225   5.037  11.955 -0.3166 -0.2291  0.4173
 1081TIP3    H124734   1.278   5.067  12.028  1.1531 -2.3134  0.2837
 1081TIP3    H224735   1.173   4.966  11.991  0.1082 -0.9959 -0.4502
 1082TIP3   OH224736   1.564   0.797   2.588 -0.3222 -0.1740  0.5751
 1082TIP3    H124737   1.492   0.778   2.528 -1.1715 -1.0037  1.8201
 1082TIP3    H224738   1.547   0.744   2.665  1.3340  0.0430  1.1415
 1083TIP3   OH224739   2.597   5.286   3.266  0.0841 -0.0319 -0.2857
 1083TIP3    H124740   2.610   5.363   3.211  0.0239  1.1777  1.3149
 1083TIP3    H224741   2.671   5.229   3.246  0.6649  0.8733 -0.8030
 1084TIP3   OH224742   6.686   5.325  13.097  0.3023  0.9629  0.0272
 1084TIP3    H124743   6.730   5.358  13.176  1.7204 -0.0683 -0.2944
 1084TIP3    H224744   6.757   5.289  13.044 -0.8220  0.2886 -1.0463
 1085TIP3   OH224745   6.448   5.959  12.112 -0.3099  0.0463 -0.2282
 1085TIP3    H124746   6.536   5.992  12.094 -0.3094  0.3930  0.3806
 1085TIP3    H224747   6.412   5.937  12.026 -0.3755  1.8152 -0.6905
 1086TIP3   OH224748   5.992   6.634  16.068  0.3517 -0.7363  0.1500
 1086TIP3    H124749   5.999   6.729  16.059  0.1123 -0.7302  0.0025
 1086TIP3    H224750   5.999   6.601  15.978 -1.1807 -0.7441  0.0118
 1087TIP3   OH224751   2.382   5.375   0.049  0.0751  0.2026  0.2082
 1087TIP3    H124752   2.440   5.403   0.120  0.6259  0.8615 -0.4906
 1087TIP3    H224753   2.294   5.382   0.086  0.2779  1.6850  0.4688
 1088TIP3   OH224754   2.258   3.581  15.548 -0.0485 -0.5259 -0.5001
 1088TIP3    H124755   2.241   3.641  15.475 -1.0336  2.4676  1.9710
 1088TIP3    H224756   2.210   3.502  15.526 -0.9265  0.5495 -2.7677
 1089TIP3   OH224757   0.874   4.453  11.927 -0.7253 -0.1561  0.6743
 1089TIP3    H124758   0.887   4.542  11.894 -1.0096 -0.7704 -1.1976
 1089TIP3    H224759   0.781   4.448  11.949 -0.8333 -0.1516  0.2291
 1090TIP3   OH224760   0.546   1.722  14.331 -0.1141  0.4178 -0.1882
 1090TIP3    H124761   0.622   1.713  14.273  0.4907  2.0541  0.2943
 1090TIP3    H224762   0.583   1.758  14.412 -1.2297  0.0170  0.5148
 1091TIP3   OH224763   1.199   2.310   4.405 -0.2548  0.3868  0.2572
 1091TIP3    H124764   1.243   2.254   4.340  0.5231  1.1708  0.0887
 1091TIP3    H224765   1.220   2.270   4.489 -1.3395 -0.6862  0.0310
 1092TIP3   OH224766   6.216   1.492  14.853 -0.0381  0.8539  0.0449
 1092TIP3    H124767   6.265   1.410  14.865 -0.7828  0.2560 -0.9024
 1092TIP3    H224768   6.143   1.469  14.797  0.3733  2.4087 -1.2187
 1093TIP3   OH224769   1.676   5.376  11.270 -0.0616  0.3897  0.0427
 1093TIP3    H124770   1.611   5.447  11.267 -0.8229 -0.2517  0.8067
 1093TIP3    H224771   1.760   5.420  11.271 -0.5387  1.3789  2.2891
 1094TIP3   OH224772   1.622   3.186   0.800  0.0584  0.0390 -0.8528
 1094TIP3    H124773   1.564   3.243   0.849 -0.9513 -0.0374 -1.9336
 1094TIP3    H224774   1.611   3.212   0.708  0.5223 -1.0382 -1.2378
 1095TIP3   OH224775   4.478   6.165  12.205 -0.1471 -0.2000  0.1958
 1095TIP3    H124776   4.498   6.074  12.229 -3.2095 -0.5634  1.9051
 1095TIP3    H224777   4.448   6.160  12.114 -0.5758 -0.9753  0.3688
 1096TIP3   OH224778   3.943   3.808  13.664  0.5127 -0.2733 -0.2152
 1096TIP3    H124779   3.943   3.892  13.709  0.4495 -0.0763 -0.5825
 1096TIP3    H224780   3.971   3.745  13.731  0.5938  0.0429  0.0493
 1097TIP3   OH224781   5.418   2.385  12.814  0.1465  0.4972  0.4107
 1097TIP3    H124782   5.369   2.311  12.849  2.6121 -1.4395  0.0804
 1097TIP3    H224783   5.473   2.414  12.887 -0.5585  1.8078  0.4376
 1098TIP3   OH224784   2.785   1.387  13.249 -0.2312 -0.4068 -0.3665
 1098TIP3    H124785   2.869   1.387  13.203 -0.7316 -0.5338 -1.3202
 1098TIP3    H224786   2.721   1.402  13.180 -0.9124  0.9467  0.5112
 1099TIP3   OH224787   2.968   3.247  10.951  0.0263 -0.0631 -0.1644
 1099TIP3    H124788   2.927   3.246  10.865 -2.9366 -0.6826  1.1520
 1099TIP3    H224789   3.046   3.193  10.941 -1.9784 -2.9267 -1.7319
 1100TIP3   OH224790   1.144   0.297   4.527  0.6124 -0.3437 -0.1539
 1100TIP3    H124791   1.175   0.247   4.602  1.1444  1.4948  0.8859
 1100TIP3    H224792   1.224   0.331   4.486  0.2398 -0.1099 -0.6958
 1101TIP3   OH224793   0.940   0.523   1.151  0.1402 -0.2084  0.7220
 1101TIP3    H124794   0.904   0.527   1.240 -0.3431  2.2745  0.4801
 1101TIP3    H224795   0.862   0.525   1.095  0.5023  0.4928  0.2385
 1102TIP3   OH224796   5.165   1.412  10.746 -0.3182  0.3332  0.0765
 1102TIP3    H124797   5.153   1.476  10.675  0.9507  0.4456 -0.0698
 1102TIP3    H224798   5.129   1.455  10.823 -0.2502  0.8872 -0.1900
 1103TIP3   OH224799   6.618   2.904  12.895 -0.3207 -0.8004 -0.1529
 1103TIP3    H124800   6.641   2.928  12.805  1.4420  0.2590  0.5121
 1103TIP3    H224801   6.701   2.878  12.934 -0.8651 -0.2595  1.4411
 1104TIP3   OH224802   4.477   2.992   2.009 -0.2432  0.8091 -0.4450
 1104TIP3    H124803   4.560   3.024   2.045 -0.4624 -0.7973  1.6672
 1104TIP3    H224804   4.419   3.068   2.010  0.2750  1.2164  1.1146
 1105TIP3   OH224805   5.763   4.507   5.374 -0.0961 -0.2192 -0.0486
 1105TIP3    H124806   5.805   4.561   5.308  0.7685  0.3018  0.9114
 1105TIP3    H224807   5.681   4.553   5.395 -1.2910 -1.2989 -2.0061
 1106TIP3   OH224808   3.659   6.696  16.483 -0.0170 -0.1859  0.4673
 1106TIP3    H124809   3.656   6.704  16.388  1.0949  2.5969  0.5748
 1106TIP3    H224810   3.608   6.617  16.503  0.0944 -1.0817 -2.4264
 1107TIP3   OH224811   2.386   4.918  11.823 -0.5677  0.3536  0.4774
 1107TIP3    H124812   2.474   4.955  11.807 -0.7326  0.0077 -1.5057
 1107TIP3    H224813   2.332   4.956  11.754 -1.4261 -1.2844  0.2068
 1108TIP3   OH224814   5.501   0.552  12.030 -0.0691  0.2829 -0.5915
 1108TIP3    H124815   5.432   0.572  12.093 -0.9550  0.5481 -1.6284
 1108TIP3    H224816   5.565   0.501  12.081 -1.4915 -0.8403  0.1571
 1109TIP3   OH224817   2.329   1.263   0.518 -0.2061 -0.0849 -0.2819
 1109TIP3    H124818   2.415   1.292   0.487 -0.5903  0.3165 -0.9924
 1109TIP3    H224819   2.281   1.344   0.536 -0.9495 -0.2547 -1.3492
 1110TIP3   OH224820   4.264   5.152  13.793  0.0496  0.6571 -0.1478
 1110TIP3    H124821   4.209   5.212  13.741  0.5852  1.2036 -0.0997
 1110TIP3    H224822   4.239   5.168  13.883  0.7879  1.4386 -0.0708
 1111TIP3   OH224823   0.414   1.043  10.410  0.0716  0.0634  0.0914
 1111TIP3    H124824   0.438   0.967  10.463  1.1347 -1.5474 -2.5007
 1111TIP3    H224825   0.486   1.105  10.422 -0.5579  0.5256  1.8233
 1112TIP3   OH224826   2.425   0.745   5.628  0.2217  0.2574 -0.1255
 1112TIP3    H124827   2.372   0.665   5.629 -1.1582  1.1343 -1.0201
 1112TIP3    H224828   2.386   0.799   5.560  0.9811  1.8047  0.6222
 1113TIP3   OH224829   3.419   1.085   2.896 -0.1828  0.5063 -0.2173
 1113TIP3    H124830   3.352   1.152   2.900  0.3286  0.9993  3.2421
 1113TIP3    H224831   3.500   1.130   2.922  0.4969 -1.0402  0.4909
 1114TIP3   OH224832   4.810   2.115  11.784 -0.1738 -0.5158  0.4891
 1114TIP3    H124833   4.905   2.115  11.770 -0.1636  0.4663  0.5125
 1114TIP3    H224834   4.785   2.207  11.782 -1.0669 -0.7352  0.9403
 1115TIP3   OH224835   0.016   5.538   1.607  0.0536 -0.3806  0.4726
 1115TIP3    H124836   0.018   5.443   1.593 -2.1081 -0.5279  0.7903
 1115TIP3    H224837   0.064   5.574   1.532  0.9692 -1.7071  0.3879
 1116TIP3   OH224838   6.218   2.624  15.123  0.2428 -0.4588  0.3151
 1116TIP3    H124839   6.288   2.637  15.188 -0.4255  0.7570  0.8377
 1116TIP3    H224840   6.180   2.539  15.145 -0.7087  0.4092  2.2863
 1117TIP3   OH224841   3.625   0.333  14.848 -0.0366  0.4772 -0.0961
 1117TIP3    H124842   3.678   0.394  14.900 -0.5455  0.5394  0.3541
 1117TIP3    H224843   3.685   0.302  14.780  0.2200  1.4935 -0.3403
 1118TIP3   OH224844   2.370   2.560   4.598 -0.3439 -0.2983 -0.1468
 1118TIP3    H124845   2.465   2.552   4.600 -0.4355 -1.4919  1.9812
 1118TIP3    H224846   2.353   2.628   4.532  2.0540  1.2021  0.6579
 1119TIP3   OH224847   3.777   1.211  15.361 -0.0220  0.2768 -0.6029
 1119TIP3    H124848   3.835   1.136  15.371  1.3214  1.3337 -0.1748
 1119TIP3    H224849   3.832   1.278  15.320 -0.7427  1.5326  0.4469
 1120TIP3   OH224850   1.737   0.195  16.810 -0.0255 -0.1626  0.4478
 1120TIP3    H124851   1.789   0.272  16.834  0.1867  0.4378 -1.6756
 1120TIP3    H224852   1.648   0.227  16.803  0.1377  0.0611 -0.9420
 1121TIP3   OH224853   6.508   4.429   0.023  0.6365 -0.0406 -0.8822
 1121TIP3    H124854   6.453   4.400   0.095  2.7216 -2.5149 -0.1510
 1121TIP3    H224855   6.561   4.500   0.060 -0.4520  0.8393 -0.9579
 1122TIP3   OH224856   5.575   0.742  17.026  0.3542 -0.0924 -0.8381
 1122TIP3    H124857   5.585   0.834  17.002  1.5787 -0.0632 -0.3231
 1122TIP3    H224858   5.536   0.744  17.114  0.5608 -0.0479 -0.7451
 1123TIP3   OH224859   2.711   2.637   1.225  0.4691 -0.1591 -0.0441
 1123TIP3    H124860   2.649   2.692   1.273 -0.3480 -2.0393  1.2005
 1123TIP3    H224861   2.790   2.636   1.279  1.0415  0.9294 -0.8171
 1124TIP3   OH224862   0.633   3.943   5.216  0.2975 -0.0827 -0.0312
 1124TIP3    H124863   0.578   4.016   5.244  0.0697 -0.2271 -0.1039
 1124TIP3    H224864   0.609   3.928   5.125  1.3143  0.6438 -0.4536
 1125TIP3   OH224865   3.677   4.339  16.597  0.2530 -0.0053  0.1462
 1125TIP3    H124866   3.672   4.319  16.504 -0.7338  0.9956 -0.0289
 1125TIP3    H224867   3.738   4.274  16.632 -1.1765 -1.9392 -0.7634
 1126TIP3   OH224868   3.681   2.474   5.236  0.3267  0.2641 -0.6974
 1126TIP3    H124869   3.635   2.404   5.190 -0.1050  0.5276 -0.6699
 1126TIP3    H224870   3.772   2.444   5.241 -0.0408 -0.7736  0.2271
 1127TIP3   OH224871   3.665   4.021  15.814  0.5535  0.5236 -0.1863
 1127TIP3    H124872   3.731   4.082  15.780  1.7302 -0.5139  0.1270
 1127TIP3    H224873   3.606   4.075  15.866  1.6223  1.3883  0.1785
 1128TIP3   OH224874   1.550   1.033   2.399 -0.0520  0.8742  0.1524
 1128TIP3    H124875   1.490   0.971   2.442  1.9817 -1.5580 -0.2758
 1128TIP3    H224876   1.537   1.115   2.446 -3.2871  0.3240  0.4019
 1129TIP3   OH224877   1.493   1.871   3.155 -0.4115  0.0905 -0.3184
 1129TIP3    H124878   1.508   1.953   3.108 -2.6334  1.6468  1.4741
 1129TIP3    H224879   1.570   1.861   3.212  0.4631  0.2129 -1.4471
 1130TIP3   OH224880   5.391   0.273   2.698  0.0221  0.4712  0.4314
 1130TIP3    H124881   5.484   0.249   2.694 -0.3612 -0.9202 -1.7857
 1130TIP3    H224882   5.350   0.202   2.748 -0.0413  0.3686  0.2340
 1131TIP3   OH224883   0.974   2.375  15.943 -0.2276 -0.2134 -0.2921
 1131TIP3    H124884   0.906   2.440  15.926 -0.1967  0.0216  0.4703
 1131TIP3    H224885   1.053   2.414  15.906  0.0280  0.7186  1.1516
 1132TIP3   OH224886   0.453   1.511  15.966  0.2904  0.3088 -0.5119
 1132TIP3    H124887   0.386   1.462  16.013 -0.1332 -1.0572 -2.4006
 1132TIP3    H224888   0.536   1.476  15.999  0.0261  0.1528 -0.0083
 1133TIP3   OH224889   2.190   4.306  13.239 -0.5693 -0.4129  0.0474
 1133TIP3    H124890   2.111   4.298  13.185 -1.8010 -1.5465  1.8954
 1133TIP3    H224891   2.205   4.400  13.246 -1.0821 -0.2150 -1.2416
 1134TIP3   OH224892   6.510   5.114   1.281 -0.1233  0.7709  0.1488
 1134TIP3    H124893   6.452   5.116   1.357  0.7221 -1.1424  0.9097
 1134TIP3    H224894   6.598   5.126   1.318  0.2304  0.6735 -0.6359
 1135TIP3   OH224895   0.543   0.817   0.073  0.2497  0.1032  0.4899
 1135TIP3    H124896   0.467   0.767   0.102  1.1169 -0.5032  1.8270
 1135TIP3    H224897   0.610   0.751   0.056  0.3993  0.6107 -0.9954
 1136TIP3   OH224898   6.076   1.722  13.792  0.2679 -0.1849 -0.0622
 1136TIP3    H124899   6.038   1.701  13.706 -2.4376  0.2526  0.9402
 1136TIP3    H224900   6.108   1.638  13.824  0.3790 -0.5439 -1.0624
 1137TIP3   OH224901   1.187   6.335  12.224 -0.0092  0.1769  0.6858
 1137TIP3    H124902   1.143   6.397  12.282 -0.2401 -0.4495  1.2008
 1137TIP3    H224903   1.231   6.274  12.284 -1.1924 -1.1748  0.2618
 1138TIP3   OH224904   5.464   1.589  12.684  0.0705 -0.4320 -0.0039
 1138TIP3    H124905   5.556   1.579  12.660  0.2857  2.3218 -0.5557
 1138TIP3    H224906   5.439   1.676  12.653 -2.2435 -0.3822  1.6806
 1139TIP3   OH224907   4.326   3.270   1.783 -0.0358 -0.5869  0.6910
 1139TIP3    H124908   4.316   3.204   1.714 -0.5783  3.1336 -3.1434
 1139TIP3    H224909   4.237   3.299   1.802  0.2737 -0.0430  1.3643
 1140TIP3   OH224910   6.652   3.190  10.939 -0.2613  0.0138  0.2687
 1140TIP3    H124911   6.635   3.262  11.001 -2.1039 -0.8557  0.8360
 1140TIP3    H224912   6.676   3.116  10.994  0.9564 -0.0158 -0.2731
 1141TIP3   OH224913   2.572   5.781  11.626 -0.3464  0.5373  0.1406
 1141TIP3    H124914   2.498   5.755  11.682 -0.2046  0.2807  0.2119
 1141TIP3    H224915   2.625   5.702  11.619 -0.9488  0.2310 -1.2943
 1142TIP3   OH224916   0.894   0.971   5.628  0.2912 -0.0611 -0.4553
 1142TIP3    H124917   0.860   0.882   5.619 -3.0078  1.2103 -2.2511
 1142TIP3    H224918   0.958   0.979   5.557  0.3046 -0.8420 -0.5459
 1143TIP3   OH224919   5.671   4.297  12.917 -0.4567 -0.7311 -0.6673
 1143TIP3    H124920   5.585   4.293  12.875  0.4542  1.1496 -2.8557
 1143TIP3    H224921   5.717   4.368  12.873  2.1051 -1.3938  0.7325
 1144TIP3   OH224922   2.356   6.319   0.603  0.5053  0.2960  0.1538
 1144TIP3    H124923   2.353   6.348   0.512  0.8045 -0.5931 -0.1532
 1144TIP3    H224924   2.409   6.239   0.601 -0.5396 -0.4519  0.9043
 1145TIP3   OH224925   6.807   3.216  13.825 -0.4721  0.1273 -0.6622
 1145TIP3    H124926   6.804   3.241  13.917  0.9387  2.1051 -1.1002
 1145TIP3    H224927   6.835   3.295  13.779 -0.7594 -0.9193 -2.7563
 1146TIP3   OH224928   0.847   0.225  13.539  0.4737 -0.1586  0.1419
 1146TIP3    H124929   0.842   0.129  13.539 -0.1123 -0.1467 -1.0004
 1146TIP3    H224930   0.856   0.248  13.632  1.1580 -1.3317  0.3991
 1147TIP3   OH224931   0.319   1.146   0.828  0.5659  0.1702 -0.3055
 1147TIP3    H124932   0.335   1.215   0.764  0.5945 -0.1320 -0.6269
 1147TIP3    H224933   0.345   1.065   0.784  0.7105 -0.0268  0.1339
 1148TIP3   OH224934   6.593   5.233   2.311  0.5471  0.0819 -0.0064
 1148TIP3    H124935   6.655   5.166   2.282  0.5060 -1.1937  2.5627
 1148TIP3    H224936   6.594   5.227   2.407 -1.1221  2.2831  0.2349
 1149TIP3   OH224937   1.015   5.336  14.590 -0.1138  0.4568 -0.2988
 1149TIP3    H124938   0.973   5.253  14.572 -0.7286  0.7035 -0.0208
 1149TIP3    H224939   1.024   5.377  14.504  1.0664 -0.2966 -0.5545
 1150TIP3   OH224940   3.441   4.152   4.450  0.2450 -0.1466 -0.1118
 1150TIP3    H124941   3.362   4.195   4.416 -0.1114  0.2606  1.1464
 1150TIP3    H224942   3.419   4.132   4.541  0.8687 -1.8923 -0.3214
 1151TIP3   OH224943   4.795   6.497  11.822 -0.6091 -0.2279 -0.1678
 1151TIP3    H124944   4.752   6.576  11.857  1.9738  1.3206 -0.2212
 1151TIP3    H224945   4.849   6.530  11.750  1.0013 -1.9610  0.1984
 1152TIP3   OH224946   5.245   5.499  14.166 -0.1056  0.2084 -0.2777
 1152TIP3    H124947   5.273   5.555  14.093  0.9715 -0.0234 -0.0573
 1152TIP3    H224948   5.180   5.552  14.212 -0.5151  0.5138 -1.1667
 1153TIP3   OH224949   0.426   5.649  11.207 -0.1612 -0.2421  0.2204
 1153TIP3    H124950   0.391   5.719  11.262  1.1400 -1.5117  2.8191
 1153TIP3    H224951   0.521   5.656  11.216  0.0491 -1.2877 -0.8905
 1154TIP3   OH224952   5.671   6.672   1.564  0.2208  0.5340  0.1712
 1154TIP3    H124953   5.670   6.614   1.488  0.0986  0.1460  0.4658
 1154TIP3    H224954   5.585   6.659   1.605 -0.6014  2.3839 -0.8508
 1155TIP3   OH224955   0.575   4.494  11.539 -0.1130 -0.0372 -0.2263
 1155TIP3    H124956   0.539   4.566  11.592  0.6297 -1.4254  2.3059
 1155TIP3    H224957   0.503   4.469  11.481 -0.5063  2.4509 -0.9427
 1156TIP3   OH224958   4.064   6.237   4.344 -0.1592 -0.2986  0.1309
 1156TIP3    H124959   4.088   6.144   4.352 -2.2290 -0.8047  1.3750
 1156TIP3    H224960   4.093   6.276   4.427 -1.4641 -0.4349  0.6875
 1157TIP3   OH224961   4.822   0.627   5.398  0.5729  0.1827  0.2084
 1157TIP3    H124962   4.878   0.591   5.329 -0.9436 -1.4380 -0.2484
 1157TIP3    H224963   4.859   0.592   5.479 -0.8428 -2.5871 -0.2192
 1158TIP3   OH224964   5.542   1.720  13.037 -0.5089  0.8356  0.0395
 1158TIP3    H124965   5.510   1.766  12.959 -1.7145  1.2036  0.7216
 1158TIP3    H224966   5.472   1.731  13.102  0.1367 -0.1081  0.9328
 1159TIP3   OH224967   5.878   5.072  17.079 -0.0703 -0.3485 -0.5674
 1159TIP3    H124968   5.927   5.090  16.999 -0.5858 -0.5564 -0.9342
 1159TIP3    H224969   5.935   5.013  17.130  0.7880  0.7540 -0.2206
 1160TIP3   OH224970   3.311   6.530  13.293  0.6989 -0.2992  0.2185
 1160TIP3    H124971   3.281   6.617  13.321  1.2040  0.2434 -0.8965
 1160TIP3    H224972   3.332   6.485  13.375 -0.3614  0.3242  0.8621
 1161TIP3   OH224973   5.292   6.473   2.668 -0.3451 -0.3403  0.0075
 1161TIP3    H124974   5.304   6.399   2.727 -0.5793  0.6482  1.3338
 1161TIP3    H224975   5.343   6.449   2.590  0.8252 -1.2403  1.0003
 1162TIP3   OH224976   5.339   0.655   2.564  0.4649 -0.3978  0.3588
 1162TIP3    H124977   5.313   0.745   2.542  0.4091 -0.3713  0.5312
 1162TIP3    H224978   5.265   0.620   2.613  1.6535  0.4650  2.9667
 1163TIP3   OH224979   5.677   1.298   0.488 -0.5265 -0.3470  0.1525
 1163TIP3    H124980   5.660   1.344   0.570 -1.5118 -2.2665  1.0986
 1163TIP3    H224981   5.731   1.358   0.437  0.6143  0.6831  2.4300
 1164TIP3   OH224982   3.070   4.846  14.949 -0.1506  0.1671  0.1084
 1164TIP3    H124983   3.112   4.760  14.938  1.7436  0.9708  0.6232
 1164TIP3    H224984   3.143   4.907  14.960 -1.4576  1.4061  3.0393
 1165TIP3   OH224985   6.301   0.791   5.356  0.4267 -0.3235  0.6573
 1165TIP3    H124986   6.366   0.839   5.306  0.5360 -1.6962 -0.5802
 1165TIP3    H224987   6.223   0.792   5.301 -0.5655  1.0633  2.0008
 1166TIP3   OH224988   4.347   2.160   0.371 -0.4098 -0.7689  0.5052
 1166TIP3    H124989   4.439   2.167   0.397  0.0766  1.2098 -1.4736
 1166TIP3    H224990   4.341   2.076   0.326  0.3001 -1.1128  1.0298
 1167TIP3   OH224991   6.263   2.278  11.435  0.0150  0.5776  0.1505
 1167TIP3    H124992   6.347   2.253  11.395 -0.7056 -1.0948 -0.4174
 1167TIP3    H224993   6.198   2.257  11.369 -0.9943  0.1435  1.2487
 1168TIP3   OH224994   5.191   0.709  17.044 -0.4787  0.1414  0.0264
 1168TIP3    H124995   5.189   0.747  16.957  2.1361 -1.4702 -0.8540
 1168TIP3    H224996   5.129   0.636  17.040  0.4065 -0.5990 -0.9005
 1169TIP3   OH224997   0.520   2.213   0.373 -0.1136 -0.0236 -0.3876
 1169TIP3    H124998   0.591   2.273   0.353 -0.0002 -0.6370 -2.0172
 1169TIP3    H224999   0.447   2.243   0.318 -1.5235  1.2603  2.0508
 1170TIP3   OH225000   1.467   2.436  14.866 -0.9766 -0.1013 -0.9130
 1170TIP3    H125001   1.452   2.345  14.840  0.2843 -0.1043 -1.7375
 1170TIP3    H225002   1.559   2.439  14.890 -1.3911  0.6150  0.7024
 1171TIP3   OH225003   2.623   5.143   2.526  0.1182  0.2790  0.3621
 1171TIP3    H125004   2.576   5.062   2.507  0.5425  0.3761 -1.2706
 1171TIP3    H225005   2.616   5.153   2.620 -2.2892 -0.2107  0.3054
 1172TIP3   OH225006   0.172   0.705  12.435 -0.1891  0.1807  0.4561
 1172TIP3    H125007   0.196   0.643  12.504  1.2372  0.0377 -0.1411
 1172TIP3    H225008   0.229   0.781  12.449  0.4919 -0.0616 -0.8540
 1173TIP3   OH225009   3.237   0.147  14.874 -0.7367 -0.0291  0.5396
 1173TIP3    H125010   3.287   0.224  14.901 -2.9453  1.1173  1.6033
 1173TIP3    H225011   3.232   0.154  14.779  0.0189  0.5356  0.5318
 1174TIP3   OH225012   3.705   5.020  10.927 -0.0941 -0.0475  0.0701
 1174TIP3    H125013   3.744   4.967  10.858  0.3147 -0.0568  0.3028
 1174TIP3    H225014   3.778   5.072  10.961  0.3825 -2.0454  2.3765
 1175TIP3   OH225015   6.561   3.280   1.489  0.8735 -0.6085  0.1406
 1175TIP3    H125016   6.469   3.302   1.503  2.0198  4.0103  2.4787
 1175TIP3    H225017   6.573   3.289   1.394 -0.6454  1.5398  0.0543
 1176TIP3   OH225018   4.435   1.441  16.274  0.1678 -0.2457  0.0131
 1176TIP3    H125019   4.405   1.515  16.326 -1.1981 -0.5230 -0.3512
 1176TIP3    H225020   4.459   1.375  16.338 -2.6120 -1.0294  0.3700
 1177TIP3   OH225021   6.818   3.199  15.268 -0.2958  0.4028 -0.0654
 1177TIP3    H125022   6.727   3.171  15.267 -0.2776  0.3455 -0.0836
 1177TIP3    H225023   6.814   3.292  15.291 -0.2837  0.1057  1.2095
 1178TIP3   OH225024   2.689   0.442  13.068 -0.2863 -0.1914  0.0923
 1178TIP3    H125025   2.742   0.425  13.146  0.8486  0.2639 -0.5422
 1178TIP3    H225026   2.723   0.381  13.002 -0.0674  0.5785 -0.5249
 1179TIP3   OH225027   2.121   6.647  15.619 -0.5067 -0.0690  0.0841
 1179TIP3    H125028   2.085   6.727  15.581  1.2056 -0.2603 -2.2004
 1179TIP3    H225029   2.149   6.595  15.543  0.9270 -1.6009  1.5737
 1180TIP3   OH225030   0.695   6.311  16.119 -0.4405  0.2541 -0.1099
 1180TIP3    H125031   0.661   6.246  16.180  1.5797 -1.6228 -0.8659
 1180TIP3    H225032   0.698   6.266  16.034 -0.2581  1.7840 -0.9557
 1181TIP3   OH225033   5.464   3.624   0.452  0.3491  0.3557 -0.3480
 1181TIP3    H125034   5.474   3.635   0.546 -1.6242 -0.0340 -0.0349
 1181TIP3    H225035   5.516   3.694   0.413  1.4454  0.3330  1.0003
 1182TIP3   OH225036   6.451   2.585  14.736  0.2959  0.3340 -0.2506
 1182TIP3    H125037   6.385   2.655  14.743  0.6551  0.6453  0.0613
 1182TIP3    H225038   6.405   2.507  14.766 -1.2530 -0.3791 -3.9107
 1183TIP3   OH225039   1.815   0.456   1.379 -0.1927 -0.5687 -0.1666
 1183TIP3    H125040   1.871   0.525   1.344  0.9213 -0.9420  0.8102
 1183TIP3    H225041   1.733   0.463   1.328 -1.3463  3.4058  1.8496
 1184TIP3   OH225042   1.895   0.781   2.387 -0.3419  0.1333 -0.4607
 1184TIP3    H125043   1.881   0.832   2.467 -2.8891 -0.9497 -0.1209
 1184TIP3    H225044   1.942   0.703   2.417 -0.6529  0.0728 -0.1138
 1185TIP3   OH225045   3.921   3.417  15.340  0.2385  0.5296  0.2804
 1185TIP3    H125046   3.928   3.334  15.294 -4.2859 -0.5199  1.0606
 1185TIP3    H225047   4.000   3.421  15.394  0.2926 -3.7163  0.8456
 1186TIP3   OH225048   3.718   6.587  15.585  0.3326  0.3337 -0.4840
 1186TIP3    H125049   3.791   6.569  15.527  0.4392  2.2097 -0.9998
 1186TIP3    H225050   3.644   6.540  15.547  0.8730 -0.1426 -0.9544
 1187TIP3   OH225051   3.635   4.331   3.566  0.0073 -0.2250 -0.2776
 1187TIP3    H125052   3.647   4.408   3.621 -0.4876 -0.7909  0.6541
 1187TIP3    H225053   3.582   4.362   3.492  0.0324  0.3861 -0.0434
 1188TIP3   OH225054   6.258   5.296  12.414 -0.1352  0.4678  0.7763
 1188TIP3    H125055   6.173   5.254  12.423  0.2762 -0.1955  1.7754
 1188TIP3    H225056   6.244   5.387  12.439 -0.5036  0.3102  1.1434
 1189TIP3   OH225057   0.638   4.266  12.565  0.2075  0.3663  0.3454
 1189TIP3    H125058   0.613   4.234  12.479  0.7456  0.9128 -0.0291
 1189TIP3    H225059   0.586   4.346  12.577 -1.1982 -0.6586  1.3124
 1190TIP3   OH225060   4.622   1.461  14.310 -0.3388 -0.8451 -0.1525
 1190TIP3    H125061   4.663   1.443  14.226  0.6700 -0.5190  0.2540
 1190TIP3    H225062   4.693   1.452  14.374 -0.0779  2.6824  0.2722
 1191TIP3   OH225063   1.653   4.225   3.449 -0.2071 -0.4208  0.1475
 1191TIP3    H125064   1.694   4.251   3.366 -0.9179  0.9804  0.2053
 1191TIP3    H225065   1.570   4.184   3.422 -0.2133 -0.4056  0.1431
 1192TIP3   OH225066   5.781   0.532   5.634  0.3199 -0.0655  0.0367
 1192TIP3    H125067   5.732   0.515   5.714  0.8455 -0.4388  0.2816
 1192TIP3    H225068   5.766   0.625   5.617 -0.7441 -0.2469 -0.0810
 1193TIP3   OH225069   4.987   0.621  10.506 -0.5213 -0.2790 -0.5729
 1193TIP3    H125070   4.950   0.549  10.455  1.1615 -0.3008 -1.8363
 1193TIP3    H225071   4.993   0.694  10.445  1.2764 -0.2110 -0.3562
 1194TIP3   OH225072   2.299   5.000  17.216  0.2450  0.2267  0.4156
 1194TIP3    H125073   2.245   4.950  17.155  1.1302  0.8297 -0.9167
 1194TIP3    H225074   2.349   5.060  17.160  1.7995  0.1481  1.6476
 1195TIP3   OH225075   4.625   3.381   5.018  0.3736 -0.2221 -0.3346
 1195TIP3    H125076   4.569   3.455   4.993 -0.4892 -1.0397 -0.8678
 1195TIP3    H225077   4.609   3.370   5.112  0.7989  0.5018 -0.1686
 1196TIP3   OH225078   4.374   3.672   2.685  0.1477  0.1337  0.7892
 1196TIP3    H125079   4.457   3.695   2.644 -0.2838 -0.0351 -0.2333
 1196TIP3    H225080   4.368   3.728   2.763  0.5658  1.1813  0.0935
 1197TIP3   OH225081   5.822   1.354  13.128  0.0512  0.3104 -0.4322
 1197TIP3    H125082   5.735   1.315  13.118 -0.1910  0.6105  0.4163
 1197TIP3    H225083   5.883   1.282  13.113 -0.3760 -0.3136  0.7682
 1198TIP3   OH225084   1.430   4.070   6.237  0.0134 -0.4260  0.1861
 1198TIP3    H125085   1.477   4.147   6.271 -0.2727  0.5925 -1.6005
 1198TIP3    H225086   1.417   4.089   6.144 -2.5883 -1.3542  0.2791
 1199TIP3   OH225087   4.310   0.200  16.301 -0.4094 -0.3780  0.7668
 1199TIP3    H125088   4.311   0.185  16.206 -0.6818 -1.9136  0.9826
 1199TIP3    H225089   4.250   0.273  16.313  0.0091  0.1698 -0.2731
 1200TIP3   OH225090   3.145   2.288  13.398  0.1754 -0.5363 -0.1305
 1200TIP3    H125091   3.143   2.371  13.350 -0.0297  1.7430  3.4029
 1200TIP3    H225092   3.053   2.260  13.399 -0.5265  1.4526  1.8900
 1201TIP3   OH225093   3.828   0.978  15.684  0.0684  0.5846 -0.1278
 1201TIP3    H125094   3.844   0.958  15.592 -0.5556 -0.5220 -0.0197
 1201TIP3    H225095   3.891   0.924  15.732 -0.6424 -0.0360  0.1287
 1202TIP3   OH225096   0.394   3.573   5.868  0.3071 -0.4869 -0.4959
 1202TIP3    H125097   0.323   3.521   5.906  0.3870 -0.0169  0.3354
 1202TIP3    H225098   0.473   3.545   5.916  0.3801  0.2463 -0.1571
 1203TIP3   OH225099   2.700   3.755   0.337  0.0608  0.2283  0.0977
 1203TIP3    H125100   2.756   3.678   0.341 -0.1403  0.1064  0.7253
 1203TIP3    H225101   2.613   3.722   0.362  0.1593  0.8255  1.3182
 1204TIP3   OH225102   0.693   4.341   2.617 -0.5308  0.1015 -0.3219
 1204TIP3    H125103   0.772   4.373   2.574 -0.7572  0.2377 -0.6461
 1204TIP3    H225104   0.722   4.269   2.673  0.0711  1.1879  0.8055
 1205TIP3   OH225105   0.528   2.393   3.634 -0.1238  0.1122  0.3173
 1205TIP3    H125106   0.434   2.397   3.619  0.1242  1.5509 -1.0402
 1205TIP3    H225107   0.539   2.320   3.696 -1.9791 -0.9115 -0.4732
 1206TIP3   OH225108   6.522   2.047   3.659  0.1784  0.6357 -0.1258
 1206TIP3    H125109   6.467   2.087   3.726  0.5755 -0.2074  0.7287
 1206TIP3    H225110   6.568   2.121   3.619 -1.4566  1.3397 -0.7828
 1207TIP3   OH225111   3.256   6.747  15.821 -0.0922  0.0265  0.0073
 1207TIP3    H125112   3.208   6.746  15.738  1.2961  0.7203 -0.8315
 1207TIP3    H225113   3.207   6.687  15.877 -0.2393 -1.6331 -1.7862
 1208TIP3   OH225114   3.028   0.072  16.144 -0.3293  0.3227  0.0801
 1208TIP3    H125115   2.977   0.034  16.073  1.3011 -1.4005 -0.2602
 1208TIP3    H225116   3.068   0.151  16.105 -0.5687  0.1735 -0.4802
 1209TIP3   OH225117   4.040   3.005  15.633  0.0858 -0.2361 -0.2253
 1209TIP3    H125118   3.961   2.990  15.686  1.4881 -0.9556  1.7756
 1209TIP3    H225119   4.054   3.100  15.638  1.3376 -0.4734  2.5687
 1210TIP3   OH225120   0.727   1.229  12.498  0.1395 -0.4543 -0.1738
 1210TIP3    H125121   0.749   1.272  12.415 -1.3557 -1.7122 -1.2847
 1210TIP3    H225122   0.781   1.151  12.500  0.6983 -0.0654  0.4152
 1211TIP3   OH225123   5.097   1.897  14.796 -0.0284 -0.1279  0.1113
 1211TIP3    H125124   5.188   1.882  14.822  0.6047  0.4631 -1.6357
 1211TIP3    H225125   5.070   1.973  14.848  0.7778  0.2388  0.0175
 1212TIP3   OH225126   1.269   1.463  11.130 -0.0841 -0.6840 -0.1227
 1212TIP3    H125127   1.308   1.460  11.043 -2.3637  1.8755 -1.3575
 1212TIP3    H225128   1.187   1.510  11.119 -0.5374 -0.3318  3.4197
 1213TIP3   OH225129   5.248   0.630  14.456  0.2103 -0.2133 -0.2664
 1213TIP3    H125130   5.270   0.642  14.363  2.2494  0.5207  0.2575
 1213TIP3    H225131   5.162   0.671  14.465  0.2872  0.3396 -1.6986
 1214TIP3   OH225132   6.100   4.353  14.304 -0.0361 -0.6543 -0.0875
 1214TIP3    H125133   6.148   4.361  14.222 -1.1102  0.0650 -0.6715
 1214TIP3    H225134   6.023   4.408  14.292 -1.3120 -2.2033  0.5960
 1215TIP3   OH225135   5.375   1.316  11.703 -1.0592  0.1765  0.0595
 1215TIP3    H125136   5.462   1.315  11.742 -1.0904  0.6137  0.1398
 1215TIP3    H225137   5.371   1.398  11.655 -1.3971  0.1150 -0.0198
 1216TIP3   OH225138   4.422   1.029   3.218  0.1474 -0.0633  0.0428
 1216TIP3    H125139   4.428   1.033   3.313 -2.3904  1.6349  0.2329
 1216TIP3    H225140   4.492   1.085   3.187  0.3232  0.2453  0.9702
 1217TIP3   OH225141   6.684   5.776   5.317 -0.1916 -0.2614  0.0704
 1217TIP3    H125142   6.666   5.798   5.408 -3.2961 -0.6102 -0.3301
 1217TIP3    H225143   6.733   5.851   5.283 -1.6074  1.3083  1.3031
 1218TIP3   OH225144   6.437   0.201   5.334  0.1765  0.0088 -0.0023
 1218TIP3    H125145   6.357   0.224   5.382 -0.8190 -1.6806 -0.7629
 1218TIP3    H225146   6.426   0.241   5.248 -0.0649 -0.6136 -0.2609
 1219TIP3   OH225147   3.538   5.578  16.872  0.4376  0.1354 -0.3278
 1219TIP3    H125148   3.555   5.521  16.797  2.8955  2.2195 -1.5127
 1219TIP3    H225149   3.571   5.663  16.846 -1.9284  1.8915  1.8288
 1220TIP3   OH225150   5.894   0.876   5.877  0.0818  0.3871 -0.0397
 1220TIP3    H125151   5.890   0.899   5.970  0.2956 -0.5544  0.2133
 1220TIP3    H225152   5.980   0.836   5.865  0.1387  0.6867 -0.6912
 1221TIP3   OH225153   3.069   5.248  16.345  0.1347  0.1322  0.0023
 1221TIP3    H125154   3.053   5.315  16.411 -0.5487 -0.2850  0.2750
 1221TIP3    H225155   3.100   5.172  16.394 -1.1136 -0.4353 -0.0366
 1222TIP3   OH225156   6.089   2.622   4.334 -0.2989  0.1846 -0.0892
 1222TIP3    H125157   6.137   2.638   4.415  0.7882  1.2743 -0.8973
 1222TIP3    H225158   6.061   2.531   4.339  0.1909  0.0966  1.2740
 1223TIP3   OH225159   2.465   5.512  12.030 -0.9190 -0.1079  0.3235
 1223TIP3    H125160   2.501   5.434  11.988 -1.2859  0.3732 -0.9226
 1223TIP3    H225161   2.515   5.520  12.112 -1.6373 -2.2649  1.0389
 1224TIP3   OH225162   5.227   3.303   3.645 -0.0049 -0.1162  0.6679
 1224TIP3    H125163   5.308   3.253   3.657 -0.2259 -1.9626 -3.7265
 1224TIP3    H225164   5.257   3.389   3.613  0.2460 -0.2607  0.5094
 1225TIP3   OH225165   0.861   1.809  14.772  0.4495 -0.1301  0.1065
 1225TIP3    H125166   0.853   1.748  14.845  3.1260 -0.0157  0.5867
 1225TIP3    H225167   0.861   1.895  14.814  3.2943 -0.1007  0.2222
 1226TIP3   OH225168   4.561   3.575   3.922 -0.4797 -0.1843 -0.3500
 1226TIP3    H125169   4.654   3.594   3.929 -0.6591  0.1527  1.7627
 1226TIP3    H225170   4.536   3.607   3.835  1.0515  1.1062 -0.3567
 1227TIP3   OH225171   0.030   6.772  15.345  0.3316 -0.1014  0.4479
 1227TIP3    H125172   0.005   6.850  15.393 -0.8423  1.0044 -1.8365
 1227TIP3    H225173   0.030   6.798  15.253  0.8887 -2.5319 -0.3331
 1228TIP3   OH225174   4.701   4.400   2.778  0.1305  0.3056 -0.5097
 1228TIP3    H125175   4.711   4.488   2.815 -0.4088 -0.0526  0.5211
 1228TIP3    H225176   4.718   4.412   2.685 -1.1896  1.7506 -0.6193
 1229TIP3   OH225177   3.485   5.082   0.089 -0.5444  0.0763  0.1179
 1229TIP3    H125178   3.546   5.149   0.120 -1.7351  1.7000 -0.9250
 1229TIP3    H225179   3.540   5.020   0.041  0.4256  1.0279 -0.0401
 1230TIP3   OH225180   1.581   6.093   3.583  0.2626  0.5705  0.0522
 1230TIP3    H125181   1.489   6.118   3.580 -0.2622 -1.2534 -0.3802
 1230TIP3    H225182   1.604   6.094   3.676 -0.4341  0.2385  0.2283
 1231TIP3   OH225183   0.500   0.722  11.479  0.8255 -0.1294  0.4382
 1231TIP3    H125184   0.506   0.706  11.573 -0.0681  1.3734  0.7992
 1231TIP3    H225185   0.406   0.732  11.462  1.0287  0.4467 -0.4384
 1232TIP3   OH225186   5.862   0.816  12.532 -0.3242 -0.0180 -0.2358
 1232TIP3    H125187   5.922   0.889  12.547 -1.0394  0.7178 -0.8702
 1232TIP3    H225188   5.775   0.851  12.552 -0.6298 -0.8513 -0.0428
 1233TIP3   OH225189   6.439   4.564   1.064  0.1389  0.0109 -0.1405
 1233TIP3    H125190   6.376   4.497   1.039  0.1099 -0.4500  1.1041
 1233TIP3    H225191   6.424   4.635   1.002 -1.6782 -0.0435  0.1841
 1234TIP3   OH225192   4.469   1.673   0.220 -0.0642 -0.6643 -0.3188
 1234TIP3    H125193   4.529   1.600   0.209 -0.7852 -1.7331  2.2115
 1234TIP3    H225194   4.505   1.723   0.293  0.0553  1.2074 -1.5837
 1235TIP3   OH225195   0.445   2.203  17.103 -0.2194 -0.6863 -0.4506
 1235TIP3    H125196   0.505   2.163  17.040  0.1169  0.3311 -0.8060
 1235TIP3    H225197   0.358   2.181  17.071 -0.0895  1.0434 -2.1537
 1236TIP3   OH225198   5.153   1.836  13.942  0.3952  0.6407 -0.3726
 1236TIP3    H125199   5.239   1.871  13.965  0.5204  0.7715 -1.0186
 1236TIP3    H225200   5.093   1.878  14.004  1.0648 -1.3036  1.7337
 1237TIP3   OH225201   6.699   2.281   1.040 -0.0668 -0.0913  0.2151
 1237TIP3    H125202   6.784   2.304   1.075 -0.0294  0.0853  0.0141
 1237TIP3    H225203   6.713   2.199   0.992  0.1798  0.3703 -0.5338
 1238TIP3   OH225204   5.367   5.106  10.646  0.0221  0.2044 -0.2275
 1238TIP3    H125205   5.280   5.069  10.634  0.1077 -0.1301  0.1336
 1238TIP3    H225206   5.352   5.194  10.679 -0.1844 -0.2304  0.9001
 1239TIP3   OH225207   4.852   4.744   1.609 -1.0028  0.0774 -1.0914
 1239TIP3    H125208   4.781   4.808   1.609 -0.1766  1.0187 -1.3380
 1239TIP3    H225209   4.911   4.773   1.539 -0.0490 -0.2957 -0.4631
 1240TIP3   OH225210   4.420   0.671   3.314  0.2908  0.6367  0.1042
 1240TIP3    H125211   4.457   0.616   3.246 -2.0523 -0.9188 -0.0259
 1240TIP3    H225212   4.337   0.703   3.278 -1.0407 -0.2624  2.1506
 1241TIP3   OH225213   4.156   2.236  15.135  0.2164  0.5012  0.6101
 1241TIP3    H125214   4.219   2.165  15.122 -0.1262  0.2828  0.1241
 1241TIP3    H225215   4.195   2.311  15.089  0.2951  0.4627  0.6147
 1242TIP3   OH225216   2.539   5.131  16.052  0.3496  0.4247 -0.0296
 1242TIP3    H125217   2.444   5.114  16.050  0.1029  0.9012  3.1355
 1242TIP3    H225218   2.546   5.225  16.064  1.2873  0.4530 -0.6811
 1243TIP3   OH225219   4.830   0.570  13.428 -0.1111  0.5143 -0.2822
 1243TIP3    H125220   4.809   0.503  13.493 -0.2913 -1.5740 -2.3661
 1243TIP3    H225221   4.898   0.623  13.469 -0.8987 -0.1006  1.9504
 1244TIP3   OH225222   3.633   4.204  16.970 -0.5892  0.1271 -0.3521
 1244TIP3    H125223   3.593   4.164  16.892 -1.3376  1.3702 -0.6294
 1244TIP3    H225224   3.688   4.274  16.935  1.2406 -1.0407  0.0814
 1245TIP3   OH225225   2.089   0.532   2.735 -0.0841 -0.6354  0.5192
 1245TIP3    H125226   2.156   0.520   2.801  0.2384 -0.5967  0.2004
 1245TIP3    H225227   2.006   0.519   2.781  0.1884 -2.6212  0.4956
 1246TIP3   OH225228   4.081   2.527   4.631 -0.0872  0.5006 -0.4340
 1246TIP3    H125229   4.032   2.445   4.627  0.7838 -0.1719  1.4671
 1246TIP3    H225230   4.146   2.519   4.561  0.9488 -1.1451  0.6255
 1247TIP3   OH225231   4.747   2.116  10.999 -0.3939  0.4998  0.5626
 1247TIP3    H125232   4.685   2.043  10.991  0.3900  0.0255 -2.3798
 1247TIP3    H225233   4.717   2.180  10.935  1.5727  0.6549 -0.2569
 1248TIP3   OH225234   6.378   0.093   1.660 -0.4620 -0.2273 -0.7873
 1248TIP3    H125235   6.466   0.074   1.693 -0.8945  0.6416  0.9661
 1248TIP3    H225236   6.324   0.022   1.693 -0.8100  0.4050  0.0546
 1249TIP3   OH225237   3.650   1.865  14.856  0.3778  0.1816 -0.7148
 1249TIP3    H125238   3.580   1.816  14.811 -0.6627  0.7777  0.2079
 1249TIP3    H225239   3.723   1.803  14.862 -0.5932 -0.9680 -0.3665
 1250TIP3   OH225240   3.047   3.522   5.902 -0.0182  0.2077  0.2421
 1250TIP3    H125241   3.128   3.471   5.893  0.8524  1.6035 -0.2113
 1250TIP3    H225242   2.990   3.467   5.955  1.1146 -0.9506  0.3171
 1251TIP3   OH225243   1.872   2.881  16.050 -0.6696 -0.4007 -0.4357
 1251TIP3    H125244   1.793   2.827  16.043  0.7504 -2.5936 -0.5441
 1251TIP3    H225245   1.869   2.915  16.139 -2.9035  1.5852 -1.1746
 1252TIP3   OH225246   6.160   4.297   6.038 -0.0107  0.2451  0.0027
 1252TIP3    H125247   6.122   4.240   6.105  0.3870  0.3339  0.3048
 1252TIP3    H225248   6.253   4.275   6.036  0.0230  0.4059 -0.3576
 1253TIP3   OH225249   5.052   0.613   1.656 -0.2889  0.3271  0.0103
 1253TIP3    H125250   5.106   0.600   1.578 -0.0400  2.7479 -0.3094
 1253TIP3    H225251   4.962   0.618   1.623 -0.2507  0.6774 -0.0458
 1254TIP3   OH225252   3.355   0.862   2.281  0.4895  0.3582 -0.0867
 1254TIP3    H125253   3.284   0.875   2.219 -0.0454 -2.5200 -0.2041
 1254TIP3    H225254   3.413   0.937   2.267 -0.9064  1.1309 -2.2263
 1255TIP3   OH225255   0.452   5.068   0.232  0.0565  0.3270  0.5602
 1255TIP3    H125256   0.368   5.065   0.187  0.3938  0.4696 -0.1032
 1255TIP3    H225257   0.508   5.009   0.180  0.2102 -0.2117  1.3214
 1256TIP3   OH225258   3.126   6.345  14.227  0.4262 -0.4365  0.4404
 1256TIP3    H125259   3.181   6.399  14.284  0.4451 -0.0383  0.0522
 1256TIP3    H225260   3.071   6.295  14.288 -2.1068  2.5912  0.9115
 1257TIP3   OH225261   2.377   6.752   5.466 -0.3563 -0.1440 -0.3733
 1257TIP3    H125262   2.296   6.703   5.447 -0.3477  0.0214 -0.8482
 1257TIP3    H225263   2.405   6.785   5.381  1.8123 -2.6421 -0.7632
 1258TIP3   OH225264   2.091   1.177   1.357 -0.2941  0.1478  0.2011
 1258TIP3    H125265   2.171   1.186   1.306  0.1511  0.5677  0.9677
 1258TIP3    H225266   2.118   1.187   1.448 -1.0240 -0.9527  0.5684
 1259TIP3   OH225267   2.908   0.594   6.455  0.5505 -0.1992  0.0571
 1259TIP3    H125268   2.988   0.563   6.413  1.7887  1.1493  1.3333
 1259TIP3    H225269   2.910   0.689   6.444 -1.9896 -0.2355 -1.7360
 1260TIP3   OH225270   5.281   6.167  13.243  0.0959  0.5279  0.4947
 1260TIP3    H125271   5.212   6.232  13.227 -0.9747 -0.2071  1.8702
 1260TIP3    H225272   5.342   6.178  13.170 -0.3379  2.6832  0.3782
 1261TIP3   OH225273   3.458   4.362   1.320  0.1326 -0.4035  0.3155
 1261TIP3    H125274   3.499   4.366   1.406  0.8698  0.1209 -0.0413
 1261TIP3    H225275   3.521   4.406   1.262 -0.7318  0.0090 -0.3388
 1262TIP3   OH225276   5.009   2.142  15.276  0.5585 -0.2688 -0.3857
 1262TIP3    H125277   4.973   2.143  15.365 -0.1947  0.6092 -0.6816
 1262TIP3    H225278   5.098   2.110  15.287 -0.0890 -1.9134  0.4633
 1263TIP3   OH225279   4.346   0.688  12.178 -0.6851  0.1254  0.4690
 1263TIP3    H125280   4.347   0.732  12.093  0.4485  0.0987  0.4427
 1263TIP3    H225281   4.303   0.750  12.236 -0.4001  0.6685  0.1179
 1264TIP3   OH225282   3.701   4.854   5.001 -0.0583 -0.4383  0.1860
 1264TIP3    H125283   3.653   4.885   4.925  1.8921  0.3931 -0.7869
 1264TIP3    H225284   3.776   4.806   4.965  1.0920  0.2608  1.5168
 1265TIP3   OH225285   2.580   0.036  13.296 -0.3929 -0.1742 -0.1696
 1265TIP3    H125286   2.675   0.025  13.289 -0.4518 -2.1731  1.2259
 1265TIP3    H225287   2.557   0.093  13.223  2.1837  2.3953  0.8278
 1266TIP3   OH225288   3.083   0.473  14.940  0.0226  0.6253 -0.7032
 1266TIP3    H125289   3.048   0.398  14.892 -0.0916 -0.2691  0.7305
 1266TIP3    H225290   3.174   0.480  14.911 -0.2479  0.5802 -1.5964
 1267TIP3   OH225291   5.394   6.352   2.083 -0.1519  0.6754  0.5597
 1267TIP3    H125292   5.442   6.292   2.024  0.6782  1.6892  0.1813
 1267TIP3    H225293   5.386   6.303   2.165 -0.5361 -0.4199 -0.1117
 1268TIP3   OH225294   0.878   5.236   1.597  0.1691 -0.2546  0.1530
 1268TIP3    H125295   0.937   5.307   1.624 -0.2229 -0.3420  1.2841
 1268TIP3    H225296   0.800   5.282   1.565  0.2606 -0.1729  0.0405
 1269TIP3   OH225297   6.512   1.757  12.932  0.0444  0.3914  0.0226
 1269TIP3    H125298   6.457   1.680  12.943 -0.7277  0.7550 -1.0929
 1269TIP3    H225299   6.507   1.803  13.016  1.8794 -1.5824  1.3231
 1270TIP3   OH225300   4.968   1.870   1.526 -0.0566 -0.2880  0.7166
 1270TIP3    H125301   4.891   1.899   1.575  0.4437 -0.7841  1.8333
 1270TIP3    H225302   5.040   1.920   1.563  0.3516 -0.7336  0.5307
 1271TIP3   OH225303   6.085   1.865   6.625 -0.2968  0.3080 -0.2417
 1271TIP3    H125304   6.076   1.817   6.543 -3.7151  1.7741 -0.9019
 1271TIP3    H225305   6.051   1.805   6.692  1.3157 -0.4121 -0.0160
 1272TIP3   OH225306   6.745   1.038  16.162 -0.5795 -0.1747  0.1640
 1272TIP3    H125307   6.820   1.027  16.220  1.0197  3.1391 -1.0009
 1272TIP3    H225308   6.696   1.111  16.200 -1.3516 -0.1506 -0.8480
 1273TIP3   OH225309   1.639   1.563  14.581 -0.0579 -0.6588  0.0697
 1273TIP3    H125310   1.553   1.568  14.540 -0.8094  2.5499  1.7050
 1273TIP3    H225311   1.631   1.492  14.645 -1.0063 -1.3070 -0.7447
 1274TIP3   OH225312   5.209   1.001   4.522  0.5481 -0.5508 -0.1133
 1274TIP3    H125313   5.251   0.920   4.492  1.1939 -0.2564 -0.0261
 1274TIP3    H225314   5.280   1.066   4.524  0.0924 -0.0447  0.0618
 1275TIP3   OH225315   4.683   0.688  11.783 -0.0513 -0.2047 -0.1437
 1275TIP3    H125316   4.719   0.636  11.856  0.3661  2.4280  1.6484
 1275TIP3    H225317   4.743   0.762  11.774 -3.0259  2.5002  0.6240
 1276TIP3   OH225318   0.510   1.177   0.282 -0.0477 -0.2727  0.2416
 1276TIP3    H125319   0.429   1.223   0.261 -0.0468  0.1463  1.0953
 1276TIP3    H225320   0.527   1.200   0.373  1.6273  0.5491 -0.2539
 1277TIP3   OH225321   2.547   4.335   3.685 -0.6166 -0.3249 -0.5671
 1277TIP3    H125322   2.462   4.308   3.651 -0.6263 -0.4236 -0.4647
 1277TIP3    H225323   2.602   4.345   3.607 -0.7383 -0.2000 -0.6385
 1278TIP3   OH225324   1.435   6.228  13.792 -0.3847 -0.1896 -0.2587
 1278TIP3    H125325   1.497   6.162  13.762  1.6868  1.7605 -0.5584
 1278TIP3    H225326   1.372   6.237  13.721 -1.5210 -2.6932  0.3290
 1279TIP3   OH225327   5.417   2.057  12.540  0.5548  0.1025  0.2583
 1279TIP3    H125328   5.408   2.064  12.445 -2.2371 -0.4508  0.3870
 1279TIP3    H225329   5.407   1.964  12.559  0.7196  0.2468  1.1156
 1280TIP3   OH225330   1.204   5.255  12.227 -0.1661  0.2627  0.4618
 1280TIP3    H125331   1.127   5.214  12.265  1.1336  0.2604  3.3850
 1280TIP3    H225332   1.252   5.183  12.186 -0.4737 -0.1946  0.9007
 1281TIP3   OH225333   5.726   6.411  10.354 -0.4674 -0.0805 -0.2254
 1281TIP3    H125334   5.779   6.333  10.340 -0.0491  0.3241 -0.9547
 1281TIP3    H225335   5.641   6.378  10.382  0.4335 -0.7113  1.9619
 1282TIP3   OH225336   4.860   1.801  14.678  0.2675 -0.0560 -0.1280
 1282TIP3    H125337   4.823   1.882  14.642  0.7995  0.3993  0.3353
 1282TIP3    H225338   4.941   1.828  14.721  1.7878 -1.2008 -2.1089
 1283TIP3   OH225339   4.182   0.395  15.317 -0.0409 -0.1531 -0.3749
 1283TIP3    H125340   4.189   0.438  15.232  1.9903 -1.6669 -1.0503
 1283TIP3    H225341   4.256   0.334  15.320 -0.1574 -0.2989  2.4141
 1284TIP3   OH225342   2.078   0.340   1.396 -0.2310  0.7279 -0.0657
 1284TIP3    H125343   2.039   0.269   1.345  1.8353 -0.7778  0.3149
 1284TIP3    H225344   2.004   0.393   1.425 -1.7584 -0.6990 -1.2065
 1285TIP3   OH225345   4.282   2.920  15.955  0.0604 -0.0451  0.2961
 1285TIP3    H125346   4.187   2.922  15.944 -0.0296 -1.9664  0.4674
 1285TIP3    H225347   4.305   3.009  15.984 -1.8567  0.0294  1.7385
 1286TIP3   OH225348   2.922   5.014   4.049  0.1965  0.1399 -0.4448
 1286TIP3    H125349   2.833   4.980   4.048  0.1867  0.1368  0.2028
 1286TIP3    H225350   2.934   5.048   4.138  1.6310 -1.9624  0.2279
 1287TIP3   OH225351   6.334   2.414  14.045  0.3415  0.0303  0.0603
 1287TIP3    H125352   6.259   2.409  14.103  0.2440 -0.8309 -0.1209
 1287TIP3    H225353   6.298   2.399  13.957  0.5433  0.9097 -0.1793
 1288TIP3   OH225354   1.600   1.784  13.188 -0.4509 -0.2348  0.1668
 1288TIP3    H125355   1.682   1.828  13.165 -1.0699  0.8176 -0.0958
 1288TIP3    H225356   1.611   1.694  13.157  1.0992 -0.4664  1.2853
 1289TIP3   OH225357   3.612   0.159  12.972 -0.3519 -0.4901  0.5764
 1289TIP3    H125358   3.667   0.215  13.027  1.7047 -1.5341 -0.3283
 1289TIP3    H225359   3.524   0.194  12.984  0.4810  1.2828  2.0581
 1290TIP3   OH225360   2.976   2.215  12.035  0.1872 -0.7190  0.1005
 1290TIP3    H125361   3.071   2.208  12.028  0.6309  1.5481  2.4064
 1290TIP3    H225362   2.954   2.164  12.113 -0.0631  0.9458  1.1613
 1291TIP3   OH225363   3.523   3.887  12.083 -0.4257  0.1199 -0.2844
 1291TIP3    H125364   3.503   3.886  12.177 -1.0733  0.0455 -0.4200
 1291TIP3    H225365   3.514   3.796  12.056 -0.2528  0.1440 -0.4206
 1292TIP3   OH225366   6.534   5.131  13.475  0.3953 -0.3080  0.2950
 1292TIP3    H125367   6.513   5.156  13.385  0.4295 -2.0527 -0.2278
 1292TIP3    H225368   6.458   5.160  13.526  1.3962  2.8596  0.1691
 1293TIP3   OH225369   4.807   5.186  16.495  0.2058 -0.6621 -0.2108
 1293TIP3    H125370   4.735   5.226  16.447 -0.6228 -2.0461 -0.1831
 1293TIP3    H225371   4.866   5.152  16.428 -0.1981 -1.2927 -0.2512
 1294TIP3   OH225372   5.414   5.097   6.657 -0.1970 -0.2412  0.7632
 1294TIP3    H125373   5.502   5.061   6.643  0.1546  0.4953  0.9885
 1294TIP3    H225374   5.355   5.029   6.626  0.4519 -0.8235  0.7682
 1295TIP3   OH225375   4.458   4.443  13.931 -0.5134  0.0403 -0.1814
 1295TIP3    H125376   4.459   4.349  13.946  1.5992  0.2254  1.1971
 1295TIP3    H225377   4.459   4.453  13.836 -3.2982 -1.2489 -0.4590
 1296TIP3   OH225378   3.353   0.792  12.245  0.4939 -0.3556  0.6642
 1296TIP3    H125379   3.424   0.856  12.250  1.1391 -1.1042  1.3074
 1296TIP3    H225380   3.316   0.803  12.157  1.1892  0.2736  0.4500
 1297TIP3   OH225381   6.178   0.345  14.157 -0.2323  0.1070 -0.0386
 1297TIP3    H125382   6.270   0.331  14.132 -0.3792  1.0590 -1.2421
 1297TIP3    H225383   6.183   0.397  14.237  0.2620 -1.5288  1.0392
 1298TIP3   OH225384   5.173   1.070  15.259 -0.9294  0.3833 -0.1071
 1298TIP3    H125385   5.167   1.132  15.187  0.0665 -1.2937 -1.6933
 1298TIP3    H225386   5.266   1.048  15.265 -0.9977  0.3969  1.6511
 1299TIP3   OH225387   4.144   6.322  12.463 -0.1507  0.4176  0.6461
 1299TIP3    H125388   4.142   6.412  12.495  0.9120  0.4072  0.7659
 1299TIP3    H225389   4.144   6.330  12.367 -1.4113  0.4956  0.6342
 1300TIP3   OH225390   0.394   6.053  14.445 -0.2430  0.2032  0.0348
 1300TIP3    H125391   0.409   5.976  14.500  0.3591 -0.3238 -0.8533
 1300TIP3    H225392   0.482   6.086  14.425 -0.4992  1.8787  1.4125
 1301TIP3   OH225393   2.333   5.379  14.765 -0.5577  0.9854  0.1611
 1301TIP3    H125394   2.425   5.360  14.780 -0.9962 -0.6341  0.9847
 1301TIP3    H225395   2.326   5.390  14.670  0.4723  1.1409  0.0930
 1302TIP3   OH225396   6.624   0.627   2.805 -0.4769  0.8124  0.4723
 1302TIP3    H125397   6.611   0.717   2.775  0.8640  0.6786 -0.6507
 1302TIP3    H225398   6.692   0.634   2.872 -1.1843  0.7497  1.2060
 1303TIP3   OH225399   4.638   6.453   0.595  0.2405  0.4614 -0.3722
 1303TIP3    H125400   4.723   6.427   0.629  1.1083  1.2478 -1.8328
 1303TIP3    H225401   4.577   6.386   0.626  1.5628 -0.6483 -0.1229
 1304TIP3   OH225402   0.373   1.269  12.039  0.2779 -0.4137 -0.3005
 1304TIP3    H125403   0.350   1.176  12.044 -1.3503 -0.0156  0.4293
 1304TIP3    H225404   0.311   1.305  11.976  1.2200  0.1097 -0.9537
 1305TIP3   OH225405   6.639   6.298  16.443  0.5910  0.5686 -0.1564
 1305TIP3    H125406   6.640   6.215  16.491  0.1200  0.2533 -0.6819
 1305TIP3    H225407   6.675   6.361  16.505  2.9612 -0.3944 -0.4542
 1306TIP3   OH225408   3.057   6.182   1.598  0.0533 -0.6809  0.0623
 1306TIP3    H125409   3.142   6.148   1.626 -0.2743 -1.5470  0.0480
 1306TIP3    H225410   2.994   6.115   1.625 -0.7879  0.5042  1.1962
 1307TIP3   OH225411   1.625   3.381   4.759  0.3709 -0.0061  0.2203
 1307TIP3    H125412   1.559   3.450   4.757  1.4664  1.0564  0.0841
 1307TIP3    H225413   1.574   3.299   4.759 -0.9240  0.7038 -2.5772
 1308TIP3   OH225414   5.804   4.241  16.917 -0.0071 -0.2036  0.5053
 1308TIP3    H125415   5.767   4.164  16.874  0.9782  1.0492 -2.8636
 1308TIP3    H225416   5.898   4.224  16.921 -0.0200 -0.1205  1.9795
 1309TIP3   OH225417   1.053   5.882  15.127  0.6537  0.3757  0.3760
 1309TIP3    H125418   1.120   5.902  15.192  1.7703  0.1244 -0.6763
 1309TIP3    H225419   1.038   5.966  15.083 -0.2240  0.5847  1.0298
 1310TIP3   OH225420   2.763   0.368  13.321  0.4506 -0.0154  0.4290
 1310TIP3    H125421   2.727   0.283  13.348 -1.1441  1.2621  2.6972
 1310TIP3    H225422   2.856   0.363  13.344  0.6924 -1.5675 -0.7051
 1311TIP3   OH225423   5.214   3.584   4.165 -0.2648 -0.7421 -0.3681
 1311TIP3    H125424   5.200   3.678   4.162  0.4996 -0.5782  0.6501
 1311TIP3    H225425   5.212   3.556   4.073  0.8502  0.4737 -0.7818
 1312TIP3   OH225426   6.027   2.894   2.332  0.2672  0.2122 -0.8416
 1312TIP3    H125427   6.120   2.875   2.347 -0.2056 -1.4852  0.3098
 1312TIP3    H225428   6.011   2.867   2.242  0.8297  0.2305 -0.9510
 1313TIP3   OH225429   3.430   2.491   2.103 -0.0190  0.7224  0.2755
 1313TIP3    H125430   3.508   2.438   2.085 -0.5620 -0.8511  2.1647
 1313TIP3    H225431   3.387   2.499   2.018  1.1094 -0.1939 -0.4265
 1314TIP3   OH225432   0.918   5.892  10.328 -0.0937  0.6636  0.2216
 1314TIP3    H125433   0.902   5.856  10.415  0.8503  1.3448  0.7028
 1314TIP3    H225434   0.960   5.977  10.345 -0.4744  1.0939 -0.8916
 1315TIP3   OH225435   6.084   4.650  10.625 -0.4941 -0.1228  0.4076
 1315TIP3    H125436   6.079   4.737  10.584 -1.3931 -0.0475  0.6557
 1315TIP3    H225437   6.158   4.608  10.582 -0.2863  0.6238  0.0050
 1316TIP3   OH225438   2.715   6.161   1.182 -0.4260  0.3290 -0.7112
 1316TIP3    H125439   2.684   6.224   1.247 -1.0188 -0.9538  0.2850
 1316TIP3    H225440   2.688   6.198   1.098 -0.8339  1.3604 -0.1457
 1317TIP3   OH225441   5.534   4.037  15.659 -0.7151 -0.3683 -0.1855
 1317TIP3    H125442   5.599   4.101  15.631 -2.6606  1.0800 -1.6838
 1317TIP3    H225443   5.508   3.993  15.578 -1.8406 -0.6585  0.3162
 1318TIP3   OH225444   5.811   3.973  13.705  0.4676  0.3279 -0.1667
 1318TIP3    H125445   5.782   4.065  13.708  0.3957  0.3407 -0.9134
 1318TIP3    H225446   5.841   3.954  13.794 -0.5524  0.7336  0.2810
 1319TIP3   OH225447   5.100   1.353  16.386 -0.0970 -0.6998  0.1246
 1319TIP3    H125448   5.116   1.344  16.292 -0.5847  0.8940 -0.1438
 1319TIP3    H225449   5.017   1.309  16.401  0.2422 -1.4163 -0.0925
 1320TIP3   OH225450   0.361   0.547  14.770  0.1352 -0.1811  0.2071
 1320TIP3    H125451   0.361   0.612  14.700 -0.0835  0.1185  0.4817
 1320TIP3    H225452   0.381   0.596  14.849 -1.4381 -0.1717  0.6415
 1321TIP3   OH225453   5.187   6.490   1.369  0.6305 -0.5091  0.1764
 1321TIP3    H125454   5.199   6.533   1.454 -0.3110  1.1260 -0.4796
 1321TIP3    H225455   5.265   6.515   1.319 -0.0945  0.7975 -0.3319
 1322TIP3   OH225456   2.426   3.006  13.201  0.2903  0.2034  0.1338
 1322TIP3    H125457   2.359   3.068  13.171  0.2326  0.6256  1.0964
 1322TIP3    H225458   2.378   2.929  13.229  0.1819  0.5501  0.9318
 1323TIP3   OH225459   6.674   0.938  10.683 -0.1495  0.4263  0.0438
 1323TIP3    H125460   6.640   1.023  10.709 -2.7151 -0.4141 -0.2413
 1323TIP3    H225461   6.613   0.875  10.722 -0.8334 -1.0875 -3.1076
 1324TIP3   OH225462   0.332   2.670  13.786  0.6306  0.1818 -0.0824
 1324TIP3    H125463   0.321   2.578  13.807  0.1303 -0.0701 -1.3659
 1324TIP3    H225464   0.329   2.715  13.871 -1.5687 -0.7472  0.3925
 1325TIP3   OH225465   5.226   3.346   1.863 -0.1568  0.2330  0.0970
 1325TIP3    H125466   5.209   3.289   1.939 -0.9333  1.0377  0.5554
 1325TIP3    H225467   5.243   3.286   1.791  1.2829 -0.5567  1.0464
 1326TIP3   OH225468   4.586   6.061   5.560  0.3243 -0.9243  0.4587
 1326TIP3    H125469   4.592   5.974   5.519 -1.1688 -1.1174  0.5659
 1326TIP3    H225470   4.675   6.082   5.587  0.6561 -2.6009  0.7766
 1327TIP3   OH225471   0.970   4.065   4.852 -0.1141 -0.2391 -0.2333
 1327TIP3    H125472   1.058   4.102   4.850  0.2721 -1.1537 -0.5284
 1327TIP3    H225473   0.913   4.140   4.839  0.6107  0.3878  0.1092
 1328TIP3   OH225474   3.159   5.480  15.181  0.1505 -0.2383  0.5529
 1328TIP3    H125475   3.117   5.394  15.185 -0.4528  0.1054  1.6410
 1328TIP3    H225476   3.101   5.538  15.228  0.5261  0.8019 -0.2315
 1329TIP3   OH225477   2.225   1.917   0.658  0.4149  0.1850 -0.1400
 1329TIP3    H125478   2.198   1.854   0.725  0.4917  2.6269  2.3916
 1329TIP3    H225479   2.154   1.918   0.595  0.2066 -2.0357 -0.0063
 1330TIP3   OH225480   4.710   6.701   4.834 -0.3497  0.4402  0.0999
 1330TIP3    H125481   4.715   6.779   4.780 -0.6021 -0.4297 -1.2077
 1330TIP3    H225482   4.617   6.688   4.851 -0.4188 -0.2255 -0.6965
 1331TIP3   OH225483   5.311   5.670  15.074 -0.3744 -0.3851 -0.3924
 1331TIP3    H125484   5.259   5.631  15.145 -0.8801  0.7670 -0.1063
 1331TIP3    H225485   5.370   5.731  15.118 -0.6595  0.3035 -0.9552
 1332TIP3   OH225486   0.211   3.471  12.871  0.1409  0.4304  0.2960
 1332TIP3    H125487   0.150   3.541  12.846  0.7831 -0.2019 -3.8247
 1332TIP3    H225488   0.172   3.392  12.833  2.4068 -0.3530 -0.5242
 1333TIP3   OH225489   3.014   3.278   3.228 -0.0551  0.2018 -0.4573
 1333TIP3    H125490   3.056   3.220   3.164  0.3741  0.9153 -0.8357
 1333TIP3    H225491   3.087   3.315   3.278 -0.3763 -0.2328  0.3584
 1334TIP3   OH225492   3.804   2.926  15.808  0.5460  0.4923 -0.0992
 1334TIP3    H125493   3.851   2.854  15.849 -0.0380  0.2940  0.2303
 1334TIP3    H225494   3.772   2.979  15.881  0.7271  0.9383 -0.3316
 1335TIP3   OH225495   3.403   4.608  12.623 -0.2334 -0.2515  0.4324
 1335TIP3    H125496   3.386   4.591  12.716 -1.3355  0.7694  0.4549
 1335TIP3    H225497   3.424   4.701  12.619 -2.4263  0.2926 -0.5483
 1336TIP3   OH225498   4.665   1.553  10.802 -0.3203  0.0465  0.1990
 1336TIP3    H125499   4.606   1.490  10.844 -0.1785 -0.8080 -0.8316
 1336TIP3    H225500   4.651   1.634  10.850 -0.0109 -0.9270  2.0097
 1337TIP3   OH225501   0.966   1.165  16.246  0.0735 -0.3266  0.0078
 1337TIP3    H125502   0.990   1.104  16.176 -0.8417  0.1323 -0.7324
 1337TIP3    H225503   1.006   1.248  16.220  0.4285 -0.3532  0.4654
 1338TIP3   OH225504   1.642   1.289  16.964  0.6970 -0.5420 -0.4812
 1338TIP3    H125505   1.572   1.354  16.974 -0.9789 -2.4385  0.8944
 1338TIP3    H225506   1.714   1.323  17.017 -0.4239 -0.1212  0.8346
 1339TIP3   OH225507   0.161   4.402  15.058  0.0719  0.3849 -0.1299
 1339TIP3    H125508   0.251   4.403  15.025  0.4553  0.0119  0.8715
 1339TIP3    H225509   0.148   4.490  15.094 -0.2760  0.7218 -1.0273
 1340TIP3   OH225510   2.089   6.216  14.044 -0.6796  0.6117  0.1973
 1340TIP3    H125511   2.013   6.267  14.016 -0.1048  1.8907  0.8795
 1340TIP3    H225512   2.124   6.264  14.120  2.4237  1.6755 -1.6881
 1341TIP3   OH225513   4.654   1.409   0.726  0.2593 -0.3922  0.3063
 1341TIP3    H125514   4.660   1.394   0.820  0.0834 -0.3333  0.3275
 1341TIP3    H225515   4.561   1.424   0.710  0.3683  0.1987  0.2145
 1342TIP3   OH225516   0.672   6.093   0.802  0.1682 -0.5336 -0.1517
 1342TIP3    H125517   0.614   6.126   0.870  0.5808 -1.2611  0.5651
 1342TIP3    H225518   0.759   6.124   0.827  0.3464 -0.9461 -0.2454
 1343TIP3   OH225519   5.402   1.315   2.834 -0.4544 -0.0269 -0.1955
 1343TIP3    H125520   5.381   1.392   2.887 -0.1657  0.6691 -1.0578
 1343TIP3    H225521   5.341   1.319   2.761 -0.4684 -0.6469 -0.2225
 1344TIP3   OH225522   3.348   2.536   6.296  0.2717 -0.5634  0.3908
 1344TIP3    H125523   3.257   2.531   6.267 -0.1429  0.6345  1.3678
 1344TIP3    H225524   3.349   2.611   6.357  1.6162 -1.4004  1.4519
 1345TIP3   OH225525   0.733   4.422   4.432  0.3741 -0.4723 -0.4626
 1345TIP3    H125526   0.764   4.507   4.463 -2.8851  1.0622 -0.9656
 1345TIP3    H225527   0.737   4.365   4.508 -1.6288  1.4721  1.2238
 1346TIP3   OH225528   4.556   3.216   3.061 -0.2388  0.3831  0.3511
 1346TIP3    H125529   4.499   3.213   3.137 -1.1092 -0.3525 -0.3018
 1346TIP3    H225530   4.517   3.283   3.004  0.3870  0.9088  0.5253
 1347TIP3   OH225531   1.681   0.089   0.623  0.0242 -0.3544 -0.3838
 1347TIP3    H125532   1.645   0.016   0.573  2.1793 -0.2237 -2.3010
 1347TIP3    H225533   1.634   0.166   0.591 -1.2885 -0.6973  0.6478
 1348TIP3   OH225534   5.424   5.294   6.361 -0.0261 -0.3397 -0.3008
 1348TIP3    H125535   5.500   5.321   6.309  0.5061 -0.4375  0.4151
 1348TIP3    H225536   5.453   5.214   6.406 -0.5974 -0.4470 -0.1170
 1349TIP3   OH225537   6.625   4.707  11.660  0.4492  0.3860 -0.0033
 1349TIP3    H125538   6.687   4.735  11.592  0.2461  0.6559 -0.0803
 1349TIP3    H225539   6.637   4.612  11.666  0.1247  0.2953 -0.7539
 1350TIP3   OH225540   3.615   5.067   3.667 -0.7191 -0.5221 -0.6529
 1350TIP3    H125541   3.552   4.998   3.649 -1.7957 -0.4926  2.3923
 1350TIP3    H225542   3.563   5.148   3.665  0.2098  0.0946 -2.5714
 1351TIP3   OH225543   3.319   5.686  12.232  0.1588  0.2416 -0.0142
 1351TIP3    H125544   3.361   5.768  12.260  1.2075 -0.6031  0.9918
 1351TIP3    H225545   3.390   5.623  12.227  0.0362  0.1476 -4.3593
 1352TIP3   OH225546   0.734   2.162  15.085  0.0238 -0.6245  0.4306
 1352TIP3    H125547   0.773   2.171  15.172 -1.2896  0.9159  0.9116
 1352TIP3    H225548   0.640   2.160  15.102 -0.2777  0.3517 -0.9937
 1353TIP3   OH225549   0.885   6.540  12.602  0.6902  0.1406 -0.1298
 1353TIP3    H125550   0.819   6.478  12.634 -1.3668  1.1281 -2.1292
 1353TIP3    H225551   0.943   6.555  12.677 -1.3049 -0.8573  1.7255
 1354TIP3   OH225552   2.327   2.362   6.308  0.0014 -0.4365 -0.6993
 1354TIP3    H125553   2.233   2.367   6.329 -0.2164 -1.0157 -1.4808
 1354TIP3    H225554   2.347   2.449   6.273  0.1339  0.1981  0.8764
 1355TIP3   OH225555   0.100   0.814   0.322 -0.2022  0.3056 -0.8053
 1355TIP3    H125556   0.150   0.735   0.344 -0.9505  0.6629  2.7111
 1355TIP3    H225557   0.012   0.783   0.304 -0.5592  0.2981  0.8308
 1356TIP3   OH225558   5.694   5.695  15.181 -0.4471  0.1899 -0.0591
 1356TIP3    H125559   5.717   5.787  15.195 -0.3275  0.7394 -3.1572
 1356TIP3    H225560   5.599   5.692  15.195 -0.5426  0.9255 -0.4905
 1357TIP3   OH225561   6.025   0.429   5.579  0.1391 -0.1957 -0.5196
 1357TIP3    H125562   5.948   0.481   5.604 -0.2875 -1.3835  0.7391
 1357TIP3    H225563   5.990   0.342   5.559  1.0458 -0.5003 -0.8354
 1358TIP3   OH225564   0.615   6.523   1.037  0.1778  0.2882  0.1069
 1358TIP3    H125565   0.690   6.469   1.064  0.2502 -0.4816 -1.5235
 1358TIP3    H225566   0.581   6.559   1.119  3.0465  1.6418  0.8619
 1359TIP3   OH225567   3.471   2.534   2.903  0.2929  0.5331 -0.3171
 1359TIP3    H125568   3.423   2.484   2.970  0.2511 -0.7491 -1.2760
 1359TIP3    H225569   3.413   2.607   2.882 -0.8835 -0.4959 -0.8043
 1360TIP3   OH225570   6.750   5.440   2.798  0.2452  0.0786  0.2168
 1360TIP3    H125571   6.739   5.535   2.804  0.3281  0.1130 -0.1480
 1360TIP3    H225572   6.843   5.425   2.813  0.1820  0.0285  0.5635
 1361TIP3   OH225573   3.143   3.591  11.581  0.0435  0.2533 -0.5250
 1361TIP3    H125574   3.140   3.651  11.506 -0.2630  0.3990 -0.3973
 1361TIP3    H225575   3.201   3.635  11.644  1.0196 -0.2855 -1.0295
 1362TIP3   OH225576   1.671   4.007   1.192 -0.4527  0.3031 -0.4440
 1362TIP3    H125577   1.639   3.931   1.241 -0.4097 -0.5289 -1.6591
 1362TIP3    H225578   1.755   4.028   1.233 -0.8576  0.2479  0.4512
 1363TIP3   OH225579   2.076   1.543  11.044 -0.2942  0.0623 -0.1261
 1363TIP3    H125580   2.123   1.586  10.972 -1.6362  0.4376 -0.8274
 1363TIP3    H225581   2.141   1.532  11.113  1.2503 -0.9886 -1.6711
 1364TIP3   OH225582   3.406   2.036  16.556  0.3876 -0.0370  0.7541
 1364TIP3    H125583   3.421   2.119  16.511  1.2605 -0.7094 -0.2519
 1364TIP3    H225584   3.338   1.992  16.504  0.0806 -0.0442  1.1589
 1365TIP3   OH225585   6.236   2.152  15.034  0.0529 -0.3155  0.0616
 1365TIP3    H125586   6.156   2.136  14.984 -1.3143  1.2701  1.6078
 1365TIP3    H225587   6.221   2.109  15.119  0.4083  0.8126  0.7164
 1366TIP3   OH225588   0.134   1.474  14.235 -0.4365 -0.2367  0.3347
 1366TIP3    H125589   0.193   1.460  14.309  0.8471  0.3948 -0.5310
 1366TIP3    H225590   0.114   1.386  14.203  2.1610 -0.4484 -0.9441
 1367TIP3   OH225591   5.374   6.103   1.082  0.3494  0.4825  0.3465
 1367TIP3    H125592   5.343   6.072   1.167 -0.9661 -0.0428 -0.2945
 1367TIP3    H225593   5.380   6.023   1.029  1.0638  0.8182 -0.0903
 1368TIP3   OH225594   1.962   1.341  13.907  0.2662  0.0571  0.2745
 1368TIP3    H125595   1.995   1.407  13.847  0.2298  1.9781  2.2393
 1368TIP3    H225596   2.008   1.260  13.882  0.6708  0.9094 -1.8828
 1369TIP3   OH225597   6.376   1.698  11.513 -0.1137 -0.3933  0.1802
 1369TIP3    H125598   6.361   1.627  11.450  0.9300 -2.4027  2.0341
 1369TIP3    H225599   6.468   1.722  11.499  0.2015 -1.0388  1.0709
 1370TIP3   OH225600   5.504   6.743  12.205  0.3483 -0.3583 -0.2396
 1370TIP3    H125601   5.511   6.656  12.165  2.2769  0.4365 -1.7761
 1370TIP3    H225602   5.429   6.736  12.264 -0.4039 -2.6501 -1.3517
 1371TIP3   OH225603   0.116   1.668   4.862 -0.3608  0.3048 -0.0579
 1371TIP3    H125604   0.065   1.681   4.782 -0.2174 -0.3266 -0.2617
 1371TIP3    H225605   0.098   1.746   4.915 -1.3563  0.1954 -0.2134
 1372TIP3   OH225606   0.810   3.817   0.534 -0.2462  0.1164  0.1344
 1372TIP3    H125607   0.808   3.886   0.468  1.5707 -0.6654 -0.8064
 1372TIP3    H225608   0.761   3.853   0.607 -0.3677  1.9277 -0.7768
 1373TIP3   OH225609   1.475   4.626   5.058 -0.2563  0.0147  0.6280
 1373TIP3    H125610   1.474   4.540   5.100 -0.1806  0.8477  2.4612
 1373TIP3    H225611   1.472   4.688   5.131  0.4735  1.5809 -0.6061
 1374TIP3   OH225612   1.743   3.099  16.764  0.1349  0.0876 -0.1041
 1374TIP3    H125613   1.733   3.004  16.767 -0.7979  0.2012  0.9858
 1374TIP3    H225614   1.698   3.126  16.684  0.7491 -0.4194 -0.6275
 1375TIP3   OH225615   5.195   3.188  15.947  0.1191  0.4209  0.3347
 1375TIP3    H125616   5.186   3.273  15.903 -1.6203 -0.1950 -0.5966
 1375TIP3    H225617   5.284   3.189  15.982 -0.5570  3.5276  2.3354
 1376TIP3   OH225618   1.903   2.086  11.349 -0.0939  0.4074 -0.6482
 1376TIP3    H125619   1.854   2.134  11.416  0.4496 -0.2056  0.2104
 1376TIP3    H225620   1.840   2.023  11.314 -0.2723  0.4633 -0.4358
 1377TIP3   OH225621   5.054   4.949  14.801 -0.1087 -0.3843 -0.7327
 1377TIP3    H125622   4.985   5.010  14.776  0.7302  1.4463  1.1217
 1377TIP3    H225623   5.007   4.874  14.838 -1.1303 -0.0304 -1.2754
 1378TIP3   OH225624   1.185   0.820  16.139 -0.1804  0.7348  0.0793
 1378TIP3    H125625   1.135   0.813  16.219  1.1552 -0.7536  0.8483
 1378TIP3    H225626   1.146   0.894  16.092 -0.1553  2.5340  2.6911
 1379TIP3   OH225627   2.507   1.900   2.375  0.6331 -0.1368 -0.2063
 1379TIP3    H125628   2.537   1.981   2.416  0.5260 -0.7722  1.2162
 1379TIP3    H225629   2.420   1.920   2.343  0.2829  0.1020  0.8520
 1380TIP3   OH225630   1.070   2.317   5.845 -0.3823 -0.7684  0.4406
 1380TIP3    H125631   1.149   2.294   5.894 -0.7548  0.3012  1.6023
 1380TIP3    H225632   1.101   2.371   5.773  0.1057 -1.8383 -0.1813
 1381TIP3   OH225633   5.450   3.762   3.753  0.0144 -0.3058  0.0937
 1381TIP3    H125634   5.513   3.792   3.819  0.5302 -2.4026  0.6261
 1381TIP3    H225635   5.386   3.710   3.803 -0.7896 -0.1935 -0.7874
 1382TIP3   OH225636   1.642   0.368  11.644 -0.4250 -0.0138  0.1086
 1382TIP3    H125637   1.672   0.459  11.642 -0.9287  0.1432 -0.8170
 1382TIP3    H225638   1.673   0.334  11.728  1.8994  0.2797 -0.5652
 1383TIP3   OH225639   1.595   6.595  16.506  0.2779  0.2551  0.2676
 1383TIP3    H125640   1.592   6.669  16.566 -0.7739  0.4376  0.0214
 1383TIP3    H225641   1.582   6.518  16.562 -1.0568  0.4496  0.2607
 1384TIP3   OH225642   6.550   5.704   6.033 -0.1621  0.2799  0.1175
 1384TIP3    H125643   6.482   5.728   6.095 -1.6208  2.5110 -2.1520
 1384TIP3    H225644   6.629   5.693   6.087 -2.1603 -2.3262  2.8416
 1385TIP3   OH225645   2.810   3.204   4.100  0.2948 -0.2882 -0.6078
 1385TIP3    H125646   2.722   3.165   4.107 -0.2811  0.7668 -1.5383
 1385TIP3    H225647   2.794   3.298   4.104  1.3977 -0.0892 -0.7752
 1386TIP3   OH225648   0.326   0.539  14.289  0.1698  0.5075  0.2966
 1386TIP3    H125649   0.382   0.614  14.310  0.4042  0.6986 -0.9717
 1386TIP3    H225650   0.279   0.565  14.210 -1.3292  0.1370  1.0175
 1387TIP3   OH225651   5.871   1.048   5.486 -0.5909  0.1341 -0.3123
 1387TIP3    H125652   5.853   1.132   5.445  0.7200  0.8503  0.5231
 1387TIP3    H225653   5.828   1.053   5.571 -0.5371 -0.0515 -0.2747
 1388TIP3   OH225654   2.589   1.326   0.430  0.5718  0.4578 -0.4484
 1388TIP3    H125655   2.577   1.396   0.366  0.2221  1.6757  0.9083
 1388TIP3    H225656   2.656   1.269   0.391  0.9028  1.5715 -1.5551
 1389TIP3   OH225657   4.103   2.823   2.359  0.2812 -0.3641 -0.3682
 1389TIP3    H125658   4.021   2.853   2.319  0.2969 -0.3229 -0.3695
 1389TIP3    H225659   4.087   2.731   2.379  0.2663 -0.3794 -0.4505
 1390TIP3   OH225660   2.764   1.280  14.350 -0.1764 -0.0127  0.1899
 1390TIP3    H125661   2.669   1.271  14.363 -0.2641 -0.2012 -0.5610
 1390TIP3    H225662   2.772   1.326  14.266  0.4231 -2.3360 -1.1005
 1391TIP3   OH225663   4.469   2.688   0.319  0.7460  0.0438 -0.0458
 1391TIP3    H125664   4.484   2.690   0.225  0.0419  1.6693 -0.1501
 1391TIP3    H225665   4.482   2.779   0.347 -1.0575 -0.0030  1.0866
 1392TIP3   OH225666   4.213   6.350  10.597 -0.6358  0.7706  0.2040
 1392TIP3    H125667   4.118   6.347  10.602 -0.5942  0.9550  1.1451
 1392TIP3    H225668   4.232   6.429  10.546 -0.9904  0.4984 -0.3555
 1393TIP3   OH225669   6.660   2.320   2.696  0.5996 -0.1804  0.1158
 1393TIP3    H125670   6.709   2.354   2.621  0.1580 -1.2975 -0.7098
 1393TIP3    H225671   6.663   2.225   2.686  1.2244 -0.4032  1.9906
 1394TIP3   OH225672   5.473   0.386  12.581 -0.4058  0.3149 -0.0604
 1394TIP3    H125673   5.498   0.334  12.504 -0.9470 -2.2388  1.3555
 1394TIP3    H225674   5.419   0.456  12.545 -0.6062 -0.7447 -2.0400
 1395TIP3   OH225675   5.007   0.690  16.052 -0.7029  0.4205 -0.4122
 1395TIP3    H125676   5.055   0.735  15.983  0.3804  1.0103  0.6829
 1395TIP3    H225677   4.915   0.698  16.027 -0.3164  0.0992 -2.0667
 1396TIP3   OH225678   6.447   2.376   1.864 -0.2348 -0.7953  0.0072
 1396TIP3    H125679   6.416   2.402   1.951  2.2775  0.6392  0.5987
 1396TIP3    H225680   6.513   2.309   1.882  0.7782 -0.0173 -0.7147
 1397TIP3   OH225681   6.520   5.543   3.806 -0.5968  0.2407  0.0318
 1397TIP3    H125682   6.605   5.534   3.849 -0.2681  0.0650 -0.6429
 1397TIP3    H225683   6.496   5.454   3.781 -0.9991  0.2848  0.2425
 1398TIP3   OH225684   6.458   3.814   4.606 -0.1763 -0.4026 -0.2598
 1398TIP3    H125685   6.479   3.753   4.535  0.0749 -1.0746  0.3768
 1398TIP3    H225686   6.516   3.889   4.591  2.1348 -1.8271  0.9344
 1399TIP3   OH225687   0.294   1.110   2.793  0.3495 -0.0051 -0.5529
 1399TIP3    H125688   0.222   1.131   2.853  1.5379 -2.1473  1.7860
 1399TIP3    H225689   0.370   1.099   2.850  2.1211  0.2284 -2.7502
 1400TIP3   OH225690   6.222   0.920  12.981  0.2588  0.3189 -0.0260
 1400TIP3    H125691   6.213   0.831  13.014  0.2031 -0.0352 -0.9774
 1400TIP3    H225692   6.283   0.962  13.042  0.0537 -0.2717  0.6034
 1401TIP3   OH225693   0.888   2.472   3.270 -0.0746  0.2140  0.1046
 1401TIP3    H125694   0.871   2.442   3.359  0.6391 -0.5486 -0.0015
 1401TIP3    H225695   0.801   2.495   3.235 -0.5334 -0.8283  0.5231
 1402TIP3   OH225696   3.205   5.025   4.700  0.5599  0.5508  0.0376
 1402TIP3    H125697   3.266   5.091   4.667 -0.6516  3.3164  2.8042
 1402TIP3    H225698   3.138   5.076   4.746 -1.5812 -2.5705  0.6582
 1403TIP3   OH225699   4.557   4.285  10.889 -0.0745 -0.6596 -0.1884
 1403TIP3    H125700   4.651   4.287  10.906  0.3753 -3.5361 -1.6676
 1403TIP3    H225701   4.544   4.352  10.821  0.9038 -0.2595 -0.0028
 1404TIP3   OH225702   0.660   1.180  16.074 -0.1978 -0.1996 -0.7286
 1404TIP3    H125703   0.593   1.173  16.005 -0.1507 -0.1784 -0.7769
 1404TIP3    H225704   0.660   1.094  16.115 -0.7860  0.0295 -0.2350
 1405TIP3   OH225705   5.082   2.740   3.550  0.3249  0.3451 -0.1740
 1405TIP3    H125706   5.073   2.650   3.520  0.3381  0.4214 -0.4112
 1405TIP3    H225707   5.087   2.734   3.645  1.3978 -0.0061 -0.2301
 1406TIP3   OH225708   6.769   4.632   1.082  0.2697  0.1412 -0.7183
 1406TIP3    H125709   6.679   4.640   1.048 -0.7951 -0.7029  1.6592
 1406TIP3    H225710   6.766   4.677   1.166  1.6933 -1.1493  0.0657
 1407TIP3   OH225711   1.368   0.565  11.551 -0.3588  0.5957  0.4007
 1407TIP3    H125712   1.409   0.580  11.636 -1.3472  1.8539  0.6903
 1407TIP3    H225713   1.375   0.649  11.505  2.7002 -0.7708 -1.9754
 1408TIP3   OH225714   4.230   2.028  14.135 -0.7961 -0.1788 -0.2427
 1408TIP3    H125715   4.216   1.965  14.206  0.8297  0.1671  0.4324
 1408TIP3    H225716   4.270   2.104  14.178  0.6057 -0.1195 -1.5751
 1409TIP3   OH225717   1.334   3.543  13.434 -0.3402  0.2562  0.6221
 1409TIP3    H125718   1.286   3.599  13.495 -1.4999 -2.0356  1.9548
 1409TIP3    H225719   1.267   3.487  13.395  0.9787 -1.6391  0.9532
 1410TIP3   OH225720   1.159   5.960   4.778  0.0469  0.1734 -0.1188
 1410TIP3    H125721   1.123   6.044   4.806  0.6777 -0.0045  1.3036
 1410TIP3    H225722   1.244   5.983   4.738 -0.4094  0.3300 -1.0252
 1411TIP3   OH225723   0.390   5.056   3.147  0.2211 -0.4717 -0.4243
 1411TIP3    H125724   0.428   5.058   3.235 -1.5030  1.4515  0.3423
 1411TIP3    H225725   0.345   4.971   3.143 -0.1046 -0.3744  0.7540
 1412TIP3   OH225726   1.340   3.857   2.742  0.8262  0.3617 -0.6982
 1412TIP3    H125727   1.429   3.870   2.774  0.2158 -0.1770  1.3685
 1412TIP3    H225728   1.339   3.767   2.710  1.0408  0.3907 -0.7889
 1413TIP3   OH225729   6.425   4.711  14.640  0.1864  0.3736 -0.8842
 1413TIP3    H125730   6.518   4.701  14.618 -0.4875 -1.3517 -3.4534
 1413TIP3    H225731   6.390   4.622  14.640 -1.1309  0.7550  2.2459
 1414TIP3   OH225732   3.913   3.719   4.868 -0.1137  0.2326  0.2747
 1414TIP3    H125733   3.991   3.758   4.908  0.7818 -0.9101 -0.3077
 1414TIP3    H225734   3.901   3.767   4.787 -0.0060  0.3935  0.3542
 1415TIP3   OH225735   2.845   6.266   4.781 -0.4701  0.2897  0.0409
 1415TIP3    H125736   2.904   6.339   4.799  0.5198 -0.2429 -0.9456
 1415TIP3    H225737   2.805   6.246   4.866  1.4680  0.0433  0.9300
 1416TIP3   OH225738   2.483   1.690  11.033  0.0427  0.0075  0.1488
 1416TIP3    H125739   2.545   1.639  11.085  0.9305  0.2607 -0.6385
 1416TIP3    H225740   2.476   1.642  10.951 -0.4079  0.2684  0.0343
 1417TIP3   OH225741   6.357   1.068   1.736  0.2278  0.7457  0.2329
 1417TIP3    H125742   6.433   1.047   1.682 -1.1119 -1.8907 -0.8241
 1417TIP3    H225743   6.303   1.123   1.679  0.0084  0.1167 -0.1859
 1418TIP3   OH225744   5.409   6.598   0.945 -0.0306  0.4955  0.0233
 1418TIP3    H125745   5.483   6.624   0.999 -0.2521  1.5482 -0.1613
 1418TIP3    H225746   5.444   6.530   0.887  0.6750  0.6885  0.2204
 1419TIP3   OH225747   5.437   1.917   6.455 -0.0822  0.2238  0.3262
 1419TIP3    H125748   5.463   1.913   6.363 -1.0117  0.3179  0.0593
 1419TIP3    H225749   5.490   1.849   6.497  0.8073  0.5956 -0.1523
 1420TIP3   OH225750   6.029   2.657  13.228 -0.2009 -0.1082  0.2586
 1420TIP3    H125751   6.002   2.705  13.307 -0.3001  0.7662 -0.2967
 1420TIP3    H225752   6.120   2.683  13.214  0.2311 -1.2749  0.8164
 1421TIP3   OH225753   5.755   3.150  15.738  0.0548 -0.0590  0.4928
 1421TIP3    H125754   5.796   3.083  15.683  0.4715 -0.9361  1.8049
 1421TIP3    H225755   5.802   3.230  15.716 -1.5487  0.2361 -2.3065
 1422TIP3   OH225756   6.115   5.336  11.554 -0.4361 -0.9219  0.6031
 1422TIP3    H125757   6.051   5.321  11.623 -1.4712 -0.2482 -0.1833
 1422TIP3    H225758   6.171   5.407  11.587 -0.9059 -0.6243  0.7592
 1423TIP3   OH225759   6.603   4.892   0.862 -0.6897  0.6710 -0.2368
 1423TIP3    H125760   6.637   4.954   0.798 -1.1281  2.7716  1.4481
 1423TIP3    H225761   6.661   4.902   0.938 -2.3344  1.0131  1.0254
 1424TIP3   OH225762   3.998   4.696  10.775 -0.0445  0.2634 -0.3440
 1424TIP3    H125763   4.024   4.608  10.803 -1.3099 -0.1748 -0.4864
 1424TIP3    H225764   4.080   4.743  10.764  0.6263 -0.6568  0.5359
 1425TIP3   OH225765   0.950   0.846  15.630 -0.3728 -0.0073  0.2999
 1425TIP3    H125766   1.006   0.807  15.563 -1.9109 -1.5183 -0.1808
 1425TIP3    H225767   0.978   0.804  15.712  1.6344  1.9794  0.7212
 1426TIP3   OH225768   6.079   3.982   1.523  0.2585  0.2145 -0.7648
 1426TIP3    H125769   6.175   3.992   1.518  0.1187  2.1484 -0.2851
 1426TIP3    H225770   6.066   3.897   1.564  1.8036  0.3626  0.1123
 1427TIP3   OH225771   3.000   3.823   2.714  0.0740 -0.7333 -0.1998
 1427TIP3    H125772   3.043   3.737   2.713  0.4614 -0.5514  0.5478
 1427TIP3    H225773   2.931   3.816   2.648  0.0130 -1.6674 -0.0455
 1428TIP3   OH225774   3.542   0.215   3.066 -0.7792  0.1370 -0.3418
 1428TIP3    H125775   3.451   0.237   3.050 -1.1374  0.0555  1.3774
 1428TIP3    H225776   3.564   0.262   3.147 -0.4186 -2.6204  1.3154
 1429TIP3   OH225777   3.064   5.873   5.732  0.2423 -0.0433 -0.6110
 1429TIP3    H125778   3.079   5.938   5.800 -1.3598 -2.3509  2.1803
 1429TIP3    H225779   3.138   5.813   5.739 -0.7119 -1.1702  0.3047
 1430TIP3   OH225780   4.340   1.464   1.295 -0.2086  0.3918  0.0116
 1430TIP3    H125781   4.435   1.474   1.300 -0.1376 -0.0866 -0.3030
 1430TIP3    H225782   4.324   1.372   1.313 -0.4843  0.1443 -1.3512
 1431TIP3   OH225783   1.174   5.467  16.798  0.5663 -0.8336 -0.0662
 1431TIP3    H125784   1.207   5.377  16.794 -0.9888 -1.4659  0.4803
 1431TIP3    H225785   1.253   5.522  16.797  1.5475 -2.1902 -0.3754
 1432TIP3   OH225786   2.591   2.164   4.939  0.1280  0.1869  0.0060
 1432TIP3    H125787   2.637   2.192   4.861 -1.0179 -1.2458 -1.2460
 1432TIP3    H225788   2.659   2.125   4.994  0.5905 -1.1344 -1.4368
 1433TIP3   OH225789   0.577   1.639   3.458  0.1839 -0.5014  0.4926
 1433TIP3    H125790   0.613   1.705   3.517 -0.1039 -0.2284  0.3704
 1433TIP3    H225791   0.538   1.573   3.516 -0.9200  0.2272  0.6178
 1434TIP3   OH225792   0.370   0.755   0.839 -1.1101  0.7765 -0.1441
 1434TIP3    H125793   0.286   0.733   0.878 -1.7781  1.9139 -0.9112
 1434TIP3    H225794   0.427   0.775   0.914 -0.9452 -1.7012  0.5052
 1435TIP3   OH225795   3.369   4.630   4.337  0.1118 -0.0017  1.1809
 1435TIP3    H125796   3.433   4.569   4.373 -0.5439 -0.1980  2.0268
 1435TIP3    H225797   3.286   4.584   4.343 -0.2159  0.5115  0.7100
 1436TIP3   OH225798   1.136   2.919   6.405 -0.4845  0.1053  0.0877
 1436TIP3    H125799   1.178   2.841   6.440 -1.4480 -0.5886 -0.2857
 1436TIP3    H225800   1.204   2.961   6.351  0.2468 -0.0912  0.8407
 1437TIP3   OH225801   0.780   6.333   0.555 -0.6583 -0.3848  0.3354
 1437TIP3    H125802   0.695   6.292   0.567 -1.1544 -0.0273 -1.5600
 1437TIP3    H225803   0.760   6.421   0.522  0.4335  0.3553  1.5200
 1438TIP3   OH225804   2.862   0.812   1.976 -0.1625  0.2006 -0.0536
 1438TIP3    H125805   2.853   0.742   1.910  0.3699  0.2410 -0.1749
 1438TIP3    H225806   2.870   0.892   1.924 -0.0147  0.2651  0.0706
 1439TIP3   OH225807   3.978   6.237   5.563 -0.3494  0.4473 -0.1213
 1439TIP3    H125808   3.900   6.183   5.575 -0.0210 -0.6055 -2.1896
 1439TIP3    H225809   3.948   6.326   5.580 -0.9659 -0.2461  3.1080
 1440TIP3   OH225810   1.364   6.176  12.459  0.0718 -0.5236  0.3094
 1440TIP3    H125811   1.378   6.250  12.518 -0.5941 -0.5354  0.4969
 1440TIP3    H225812   1.331   6.106  12.515  0.4871 -0.8950  0.0964
 1441TIP3   OH225813   3.689   5.638  16.047 -0.4466 -0.8788  0.0948
 1441TIP3    H125814   3.614   5.656  16.104 -0.3879 -2.3262  0.6815
 1441TIP3    H225815   3.652   5.586  15.975 -0.1451 -0.9107 -0.0385
 1442TIP3   OH225816   2.814   5.742   0.759 -0.0843  0.1172 -0.1080
 1442TIP3    H125817   2.831   5.827   0.800 -0.1314 -0.2217  0.6355
 1442TIP3    H225818   2.720   5.728   0.772  0.1178 -0.5349  0.7491
 1443TIP3   OH225819   3.164   5.517   5.597 -0.5603 -0.1342 -0.0404
 1443TIP3    H125820   3.166   5.422   5.608  1.1078  0.0913  2.1880
 1443TIP3    H225821   3.205   5.532   5.512  2.3386 -1.3399  1.0060
 1444TIP3   OH225822   1.426   4.642  13.260  0.8458  0.1026  0.4255
 1444TIP3    H125823   1.370   4.672  13.332  1.4153 -1.6872  1.6815
 1444TIP3    H225824   1.407   4.548  13.252  1.1594  0.1610 -1.4592
 1445TIP3   OH225825   2.970   6.465  12.353  0.3792 -0.0566 -0.3365
 1445TIP3    H125826   2.976   6.374  12.380 -0.3088 -0.2197 -0.7165
 1445TIP3    H225827   3.061   6.493  12.343  0.5993 -1.1541 -1.7171
 1446TIP3   OH225828   3.616   0.546  12.649  0.1334 -0.1768 -0.1179
 1446TIP3    H125829   3.667   0.619  12.684  1.1853 -0.8157 -0.2549
 1446TIP3    H225830   3.601   0.568  12.557 -1.4224  0.8497  0.3445
 1447TIP3   OH225831   4.523   3.670  14.233 -0.2437 -0.7782 -0.3878
 1447TIP3    H125832   4.469   3.622  14.296 -2.2166  2.9869  1.1040
 1447TIP3    H225833   4.527   3.759  14.267  3.3038  0.2361 -2.8357
 1448TIP3   OH225834   5.574   2.780   2.967  0.3124 -0.1112  0.3078
 1448TIP3    H125835   5.539   2.693   2.989 -2.9289  1.5024  2.3334
 1448TIP3    H225836   5.499   2.829   2.935  2.2193  1.8055 -1.5852
 1449TIP3   OH225837   3.552   4.734   1.934 -0.0452 -0.3148 -0.2488
 1449TIP3    H125838   3.586   4.734   2.024  0.2454 -0.2734 -0.3578
 1449TIP3    H225839   3.484   4.801   1.934  0.3662  0.1070 -0.2123
 1450TIP3   OH225840   2.627   0.002   4.800  0.0306  0.3959 -0.9816
 1450TIP3    H125841   2.660   0.056   4.871  0.5981 -0.0552 -0.8857
 1450TIP3    H225842   2.540   0.037   4.780 -0.6857 -0.2647  0.7832
 1451TIP3   OH225843   4.869   2.875   1.304 -0.5098  0.2181  0.4408
 1451TIP3    H125844   4.866   2.969   1.321  1.1583  0.7632 -1.8147
 1451TIP3    H225845   4.811   2.837   1.370 -2.7676  2.9794  0.2344
 1452TIP3   OH225846   6.533   3.246  14.378 -0.2200 -0.1198 -0.7199
 1452TIP3    H125847   6.587   3.196  14.439 -2.3372 -0.1828  1.2330
 1452TIP3    H225848   6.555   3.337  14.397 -0.4730 -0.1571 -0.2181
 1453TIP3   OH225849   2.738   0.357  16.738  0.3587 -0.9308  0.1514
 1453TIP3    H125850   2.783   0.441  16.746 -1.2113 -0.2199  2.3144
 1453TIP3    H225851   2.805   0.298  16.704  2.2861  0.5681  1.0934
 1454TIP3   OH225852   1.201   4.629   3.938 -0.0538  0.0667 -0.3329
 1454TIP3    H125853   1.119   4.624   3.988  0.4662 -0.3490  0.4898
 1454TIP3    H225854   1.268   4.599   3.998  0.4631 -1.4386 -1.5980
 1455TIP3   OH225855   3.772   3.129   5.900  0.3238  0.3716 -0.4506
 1455TIP3    H125856   3.802   3.152   5.988 -1.8828  0.5348  0.3244
 1455TIP3    H225857   3.810   3.043   5.883 -0.3950 -0.3333  1.2932
 1456TIP3   OH225858   2.920   0.391   2.608  0.3599 -0.0095  0.0023
 1456TIP3    H125859   2.902   0.454   2.539 -0.9691 -0.1381  0.1998
 1456TIP3    H225860   3.005   0.354   2.585  1.0131  1.5846 -0.3059
 1457TIP3   OH225861   4.204   4.193  14.510  0.3691 -0.3619 -0.1518
 1457TIP3    H125862   4.193   4.262  14.445 -2.3852 -0.5276  0.0170
 1457TIP3    H225863   4.170   4.231  14.591  2.3705 -0.6718  0.8993
 1458TIP3   OH225864   0.440   4.073   0.490  0.0891  0.2177 -0.7047
 1458TIP3    H125865   0.385   4.093   0.415 -0.2177  0.5522 -0.3992
 1458TIP3    H225866   0.497   4.150   0.499 -2.0647  1.7373  1.3487
 1459TIP3   OH225867   2.406   5.892   2.322 -0.1662  0.2030 -0.1779
 1459TIP3    H125868   2.345   5.825   2.292 -0.1008  0.1636 -0.2228
 1459TIP3    H225869   2.391   5.966   2.262 -1.8100  1.0634  1.2045
 1460TIP3   OH225870   4.775   0.463  16.436 -0.1381  0.4348  0.0387
 1460TIP3    H125871   4.731   0.437  16.355  1.5383  3.9426 -2.2688
 1460TIP3    H225872   4.868   0.458  16.414  0.4032  0.4534  2.1653
 1461TIP3   OH225873   4.378   3.062   6.122  0.6304  0.2403 -0.2577
 1461TIP3    H125874   4.362   3.153   6.095 -0.7755 -0.1336 -0.7814
 1461TIP3    H225875   4.451   3.034   6.068  0.0193  0.5646 -1.2775
 1462TIP3   OH225876   3.194   6.464  10.743  0.0216  0.3524 -0.1387
 1462TIP3    H125877   3.185   6.465  10.647  1.1834 -0.2293 -0.2782
 1462TIP3    H225878   3.137   6.393  10.772  1.4911 -1.1227 -0.6647
 1463TIP3   OH225879   5.856   2.656   4.598 -0.0047 -0.2965  0.2270
 1463TIP3    H125880   5.887   2.643   4.688 -0.2677 -0.2682  0.3217
 1463TIP3    H225881   5.831   2.569   4.568  1.2015 -0.5130 -0.2399
 1464TIP3   OH225882   1.325   0.215   5.061  0.0563  0.1296 -0.6458
 1464TIP3    H125883   1.415   0.201   5.031  0.5447 -0.2291  0.9398
 1464TIP3    H225884   1.332   0.223   5.156 -1.4690  1.1067 -0.5837
 1465TIP3   OH225885   2.066   3.785   0.854 -1.0910  0.6404 -0.4000
 1465TIP3    H125886   2.043   3.819   0.768 -1.2184  0.8294 -0.2933
 1465TIP3    H225887   2.142   3.729   0.839 -0.8683  0.9889 -0.5772
 1466TIP3   OH225888   0.540   5.900  13.432  0.9522 -0.5123  0.5162
 1466TIP3    H125889   0.503   5.988  13.432  0.8702 -0.5326  1.8650
 1466TIP3    H225890   0.470   5.844  13.465  1.3376 -0.9400  0.6239
 1467TIP3   OH225891   3.138   2.778   0.651  0.2534 -0.1661 -0.7654
 1467TIP3    H125892   3.093   2.862   0.652 -0.6258 -0.5682 -2.7475
 1467TIP3    H225893   3.071   2.714   0.674  0.3454 -0.5428 -1.5134
 1468TIP3   OH225894   5.905   4.462   6.201  0.2059  0.2072 -0.6260
 1468TIP3    H125895   5.845   4.535   6.184  0.3845  1.0511  2.0090
 1468TIP3    H225896   5.989   4.503   6.217 -0.1381 -0.2107  3.1900
 1469TIP3   OH225897   2.670   4.456  13.008 -0.1427  0.6774  0.4140
 1469TIP3    H125898   2.678   4.411  13.092  0.2530  3.5496  2.0462
 1469TIP3    H225899   2.758   4.452  12.970 -0.0429  0.2967  0.6811
 1470TIP3   OH225900   4.682   2.434  12.119 -0.1906 -0.1723  0.0298
 1470TIP3    H125901   4.747   2.372  12.154  0.5644  0.4508 -0.2580
 1470TIP3    H225902   4.608   2.378  12.095  0.7186 -1.0682 -0.8258
 1471TIP3   OH225903   2.282   4.266  16.194 -0.5452 -0.5260 -0.1995
 1471TIP3    H125904   2.193   4.253  16.161 -0.3574 -2.3362 -0.1025
 1471TIP3    H225905   2.337   4.216  16.135  0.2984 -0.2811  0.3576
 1472TIP3   OH225906   0.219   5.488  13.051  0.2775 -0.0637 -0.0672
 1472TIP3    H125907   0.128   5.500  13.024  0.0356  0.3219  0.8744
 1472TIP3    H225908   0.228   5.541  13.130  1.3094 -0.1372 -0.1216
 1473TIP3   OH225909   3.437   1.068   1.274  0.4084  0.4672  0.0588
 1473TIP3    H125910   3.523   1.083   1.234  0.3589 -0.5833 -0.4683
 1473TIP3    H225911   3.450   1.090   1.367  2.2185 -2.8183  0.7670
 1474TIP3   OH225912   2.839   6.074   4.523  0.1900  0.4777 -0.0899
 1474TIP3    H125913   2.876   6.102   4.607 -1.0676  0.0019  0.6565
 1474TIP3    H225914   2.847   6.151   4.467  2.7026  0.2530 -0.1443
 1475TIP3   OH225915   1.096   3.714  14.905  0.0575  0.0330  0.3431
 1475TIP3    H125916   1.056   3.715  14.992 -0.5664  1.5249  0.0637
 1475TIP3    H225917   1.184   3.750  14.918 -0.2536  0.8284  0.2652
 1476TIP3   OH225918   3.720   3.698  17.199  0.0988 -0.9271 -0.1612
 1476TIP3    H125919   3.732   3.630  17.132 -3.1619 -0.5461 -1.3246
 1476TIP3    H225920   3.704   3.778  17.149  1.6292  0.2626  1.1688
 1477TIP3   OH225921   0.290   3.166  12.642  0.3671  0.0564  0.0727
 1477TIP3    H125922   0.328   3.082  12.666  0.7979  0.2313  0.0130
 1477TIP3    H225923   0.224   3.145  12.577  0.1518 -0.2822  0.3958
 1478TIP3   OH225924   0.798   3.734   4.451 -0.5435 -0.0814 -0.2983
 1478TIP3    H125925   0.747   3.797   4.501  0.0460 -0.4045  0.7405
 1478TIP3    H225926   0.880   3.781   4.431 -0.2915 -0.3563  0.0799
 1479TIP3   OH225927   1.577   3.612   5.943  0.3473 -0.3149 -0.0986
 1479TIP3    H125928   1.672   3.624   5.951  0.6289 -1.1978 -1.7382
 1479TIP3    H225929   1.557   3.643   5.855 -0.6967 -1.2409 -0.1958
 1480TIP3   OH225930   0.112   0.673  11.314 -0.4122  0.7111  0.3612
 1480TIP3    H125931   0.190   0.618  11.321 -0.7566  0.1968  0.1777
 1480TIP3    H225932   0.098   0.682  11.220 -0.5185  0.8789  0.3936
 1481TIP3   OH225933   6.307   6.079  16.629  0.0378  0.1575 -0.2303
 1481TIP3    H125934   6.282   6.081  16.537  0.4883 -0.6453 -0.3782
 1481TIP3    H225935   6.235   6.031  16.672  0.6890 -1.0901 -0.4694
 1482TIP3   OH225936   3.021   6.057  17.103  0.4770  0.0194  0.5501
 1482TIP3    H125937   3.035   5.991  17.172 -0.2173 -2.3868 -1.4521
 1482TIP3    H225938   2.927   6.072  17.102  0.2880 -1.0610 -0.7405
 1483TIP3   OH225939   6.521   4.161  16.788 -0.0769  0.4032 -0.2712
 1483TIP3    H125940   6.591   4.216  16.752  1.7107 -2.5189 -1.6668
 1483TIP3    H225941   6.551   4.139  16.876  1.3576 -1.5750 -1.1824
 1484TIP3   OH225942   3.761   6.813  11.744  0.1902  0.0604 -0.4098
 1484TIP3    H125943   3.760   6.799  11.649 -1.2966  4.1386 -1.2114
 1484TIP3    H225944   3.845   6.778  11.772  0.1261 -2.4905 -2.9340
 1485TIP3   OH225945   6.350   2.940  11.775 -0.4873  0.2856  0.0584
 1485TIP3    H125946   6.344   2.847  11.797  1.4320  0.1557  0.2136
 1485TIP3    H225947   6.334   2.943  11.681 -1.1122 -0.1211  0.1458
 1486TIP3   OH225948   6.516   6.334   0.144  0.3462  0.4902 -0.1652
 1486TIP3    H125949   6.486   6.411   0.095  0.6611  1.1586  0.6673
 1486TIP3    H225950   6.554   6.370   0.224  2.5330 -0.4015 -0.7571
 1487TIP3   OH225951   4.271   4.132  12.289 -0.4753  0.0425  0.2408
 1487TIP3    H125952   4.197   4.132  12.351 -1.5446 -1.7495 -0.9404
 1487TIP3    H225953   4.236   4.089  12.211  0.7515  2.4400 -1.7581
 1488TIP3   OH225954   0.959   5.371   2.933 -0.1746 -0.2099 -0.0611
 1488TIP3    H125955   0.896   5.299   2.941  1.7233 -2.1014 -1.0819
 1488TIP3    H225956   1.015   5.362   3.010 -0.5122  0.8564  0.3342
 1489TIP3   OH225957   1.475   4.810  11.965 -0.3220 -0.1342  0.1106
 1489TIP3    H125958   1.400   4.772  11.919  0.6738 -0.5515 -1.2369
 1489TIP3    H225959   1.511   4.738  12.017 -1.3410  0.2922  1.4687
 1490TIP3   OH225960   4.180   0.091   3.837 -0.0943  0.7178 -0.0875
 1490TIP3    H125961   4.129   0.094   3.918  0.4164 -0.4535  0.3033
 1490TIP3    H225962   4.268   0.069   3.865  0.8026  3.1589 -0.7142
 1491TIP3   OH225963   4.631   4.204   5.514  0.4084  0.4591 -0.5995
 1491TIP3    H125964   4.705   4.239   5.563  0.7424 -0.6050 -0.3119
 1491TIP3    H225965   4.555   4.250   5.550  0.4749 -1.1089  1.8764
 1492TIP3   OH225966   1.176   5.541  12.687 -0.0830  0.2667  0.5951
 1492TIP3    H125967   1.267   5.559  12.714 -0.6876 -0.1714  3.1808
 1492TIP3    H225968   1.132   5.625  12.696 -0.0830  0.3404 -0.0616
 1493TIP3   OH225969   5.294   6.612   0.302  0.8479  0.5221  0.2984
 1493TIP3    H125970   5.321   6.688   0.353  1.2069 -0.0543  1.0030
 1493TIP3    H225971   5.209   6.588   0.338  1.7371 -0.7541  1.6765
 1494TIP3   OH225972   1.134   2.020   5.076 -0.0122 -0.6359  0.8301
 1494TIP3    H125973   1.216   2.008   5.124  0.9096 -0.7310 -0.7016
 1494TIP3    H225974   1.068   1.977   5.131  0.9600 -0.6176  2.0619
 1495TIP3   OH225975   1.155   1.022   4.877 -0.5570  0.4634  0.1952
 1495TIP3    H125976   1.119   0.989   4.795  0.0023 -1.6074  0.7013
 1495TIP3    H225977   1.148   1.117   4.871 -0.5417  0.3711 -2.2321
 1496TIP3   OH225978   0.404   0.319   4.866 -0.2458 -0.1483 -1.0959
 1496TIP3    H125979   0.482   0.363   4.900 -1.9672  1.3060  1.3788
 1496TIP3    H225980   0.436   0.260   4.798  2.9105  0.7040 -0.4883
 1497TIP3   OH225981   4.598   2.222   5.167 -0.5823  0.0277 -0.1428
 1497TIP3    H125982   4.622   2.221   5.074 -1.6877 -0.2361 -0.4400
 1497TIP3    H225983   4.620   2.134   5.198 -3.0888 -0.9909 -0.9641
 1498TIP3   OH225984   2.295   5.506   2.466  0.3978  0.1089 -0.6364
 1498TIP3    H125985   2.387   5.478   2.472 -0.0542 -1.1823  3.0790
 1498TIP3    H225986   2.246   5.424   2.456 -0.5242  0.0880  2.7616
 1499TIP3   OH225987   0.241   4.451  13.548  0.4039  0.4181 -0.2310
 1499TIP3    H125988   0.182   4.376  13.556  1.2977 -0.4512 -1.4623
 1499TIP3    H225989   0.260   4.476  13.639  0.8145 -1.4516  0.2406
 1500TIP3   OH225990   2.869   6.317   4.116 -0.3743  0.1757  0.2340
 1500TIP3    H125991   2.936   6.251   4.097  2.5306  2.3386  2.1103
 1500TIP3    H225992   2.805   6.271   4.169 -0.4046 -1.9584 -1.4717
 1501TIP3   OH225993   2.353   5.673  13.004  0.2548 -0.3460  0.3948
 1501TIP3    H125994   2.342   5.767  12.986  2.4871  0.1176  1.1755
 1501TIP3    H225995   2.432   5.648  12.956  0.1115 -1.6604  0.8046
 1502TIP3   OH225996   5.921   1.954   4.109 -0.6331 -0.1213 -0.0791
 1502TIP3    H125997   5.888   1.885   4.052  0.7307 -1.4427  0.6822
 1502TIP3    H225998   5.907   1.922   4.198  1.0386  0.0508  0.2732
 1503TIP3   OH225999   3.636   4.963  11.296 -0.0667  0.1977  0.0511
 1503TIP3    H126000   3.705   5.026  11.315  0.7198 -1.1736  2.0773
 1503TIP3    H226001   3.566   4.983  11.358  1.2047 -2.3147  2.5462
 1504TIP3   OH226002   5.891   2.834  15.377  0.0177 -0.2616  0.2221
 1504TIP3    H126003   5.945   2.771  15.424 -0.4106 -0.8135 -0.0111
 1504TIP3    H226004   5.806   2.791  15.369 -0.2922  0.3646  0.0922
 1505TIP3   OH226005   4.356   2.774   2.150  0.4481 -0.3771 -0.0089
 1505TIP3    H126006   4.287   2.796   2.213 -2.3377 -0.9030 -2.6201
 1505TIP3    H226007   4.382   2.859   2.113 -1.1459 -0.3575 -1.1918
 1506TIP3   OH226008   3.294   1.113   2.089 -0.1525 -0.0758  0.0165
 1506TIP3    H126009   3.236   1.170   2.040 -0.7192 -1.1024 -0.5415
 1506TIP3    H226010   3.267   1.024   2.066 -1.8777 -0.7243  3.7579
 1507TIP3   OH226011   6.109   2.797   5.628  0.3576 -0.3568 -0.7678
 1507TIP3    H126012   6.026   2.842   5.612  0.6733  0.7738  0.5744
 1507TIP3    H226013   6.176   2.865   5.620  1.1319 -1.1675 -1.4281
 1508TIP3   OH226014   2.162   6.346   1.007 -0.2045 -0.2036 -0.0360
 1508TIP3    H126015   2.124   6.377   0.925 -1.0621 -0.2338  0.3324
 1508TIP3    H226016   2.090   6.353   1.070  0.3211 -0.5720  0.6148
 1509TIP3   OH226017   5.520   3.979  12.722 -0.3500 -0.4745 -0.2356
 1509TIP3    H126018   5.541   3.910  12.785  2.8895  1.3131  0.8784
 1509TIP3    H226019   5.590   3.975  12.657 -0.9918  0.7857 -1.0569
 1510TIP3   OH226020   2.944   0.953  15.461  0.7948 -0.4074  0.2527
 1510TIP3    H126021   2.994   0.879  15.495  1.2139 -0.2022  0.0839
 1510TIP3    H226022   3.009   1.008  15.418  0.0556 -1.5759 -2.5615
 1511TIP3   OH226023   4.226   6.605  10.473 -0.4532  0.2357 -0.2855
 1511TIP3    H126024   4.172   6.627  10.549 -0.4929  1.5390 -0.6713
 1511TIP3    H226025   4.251   6.689  10.435  1.5055 -0.3338 -0.3793
 1512TIP3   OH226026   4.206   5.941  16.801  0.0772  0.4023 -0.3204
 1512TIP3    H126027   4.242   6.030  16.803 -2.8888  1.7899 -2.1848
 1512TIP3    H226028   4.140   5.940  16.870  0.3810 -0.5344 -0.0286
 1513TIP3   OH226029   4.519   4.343   2.159 -0.4453  0.1140 -0.2776
 1513TIP3    H126030   4.440   4.385   2.125  0.4874  0.9510 -1.5317
 1513TIP3    H226031   4.585   4.412   2.157  0.8908 -1.1137 -1.4696
 1514TIP3   OH226032   5.939   2.978   4.292  0.5491 -0.2307 -0.2785
 1514TIP3    H126033   5.972   2.976   4.202  0.2149  0.7292 -0.4299
 1514TIP3    H226034   5.859   2.926   4.290  0.1950  0.3242 -0.6856
 1515TIP3   OH226035   6.223   4.562   4.838 -0.1378 -0.1232 -0.4293
 1515TIP3    H126036   6.297   4.503   4.826  0.6320  0.1574  2.1741
 1515TIP3    H226037   6.156   4.508   4.881 -0.5015  0.2051 -0.5753
 1516TIP3   OH226038   6.181   6.065  16.354  0.1825 -0.2461 -0.5958
 1516TIP3    H126039   6.126   6.137  16.321  0.8238  1.4639  1.8080
 1516TIP3    H226040   6.260   6.070  16.301  0.1504  0.7450 -0.5724
 1517TIP3   OH226041   1.074   2.389  11.929 -0.3533  0.1590 -0.2874
 1517TIP3    H126042   1.037   2.475  11.951 -0.8127 -0.2042  0.4144
 1517TIP3    H226043   1.006   2.346  11.878 -0.5313 -0.1624  0.2162
 1518TIP3   OH226044   1.631   0.789  13.194  0.1576 -0.2968  0.1490
 1518TIP3    H126045   1.551   0.838  13.180 -0.2991 -1.0476  0.0632
 1518TIP3    H226046   1.678   0.795  13.111 -0.8595 -1.7108 -0.5737
 1519TIP3   OH226047   2.840   5.605  16.456 -0.1352  0.0565 -0.4429
 1519TIP3    H126048   2.870   5.515  16.465 -0.5194  0.0053  0.5514
 1519TIP3    H226049   2.766   5.611  16.517 -1.2898  0.5327 -1.8444
 1520TIP3   OH226050   5.723   4.064   0.982  0.3231  0.2336  0.0941
 1520TIP3    H126051   5.818   4.061   0.969  0.0275 -1.3445 -2.2797
 1520TIP3    H226052   5.707   4.003   1.054  1.0416 -0.3849 -0.2529
 1521TIP3   OH226053   0.148   3.154   5.243  0.7563  0.4601 -0.4090
 1521TIP3    H126054   0.121   3.161   5.151 -2.2498 -0.4299  0.2991
 1521TIP3    H226055   0.076   3.194   5.292  1.9664  0.2676  1.6239
 1522TIP3   OH226056   5.512   4.854  11.763  0.1864 -0.3000 -0.4115
 1522TIP3    H126057   5.437   4.825  11.711 -0.5348 -1.1422  1.0157
 1522TIP3    H226058   5.546   4.773  11.803  0.1785  0.3889  1.0702
 1523TIP3   OH226059   0.756   4.060   0.398  0.4788 -0.3923  0.0585
 1523TIP3    H126060   0.714   4.093   0.319  2.5395  1.9131 -0.1845
 1523TIP3    H226061   0.719   4.111   0.469  0.9164 -0.2156  0.1663
 1524TIP3   OH226062   5.223   2.454  14.313  0.3154 -0.0434  0.3717
 1524TIP3    H126063   5.241   2.389  14.246 -0.4480 -0.0464  0.1549
 1524TIP3    H226064   5.249   2.537  14.274  0.1268 -0.0771  0.1738
 1525TIP3   OH226065   0.127   2.215  13.631  0.5503 -0.1993 -0.1486
 1525TIP3    H126066   0.066   2.258  13.691  1.2556 -1.7037  1.7432
 1525TIP3    H226067   0.167   2.286  13.582 -0.9593  0.9834  0.2637
 1526TIP3   OH226068   6.722   4.773  12.332 -0.5102  0.5341 -0.5530
 1526TIP3    H126069   6.761   4.795  12.416 -1.5840  0.9104 -0.1277
 1526TIP3    H226070   6.628   4.774  12.349 -0.7658  1.2542 -1.9162
 1527TIP3   OH226071   6.059   0.149  13.630  0.3929  0.5241 -0.5532
 1527TIP3    H126072   6.071   0.229  13.682  2.3739  0.5657 -0.9829
 1527TIP3    H226073   6.075   0.176  13.540 -0.9571  0.0325 -0.9556
 1528TIP3   OH226074   1.490   4.645   3.633 -0.7594  0.1318  0.4257
 1528TIP3    H126075   1.493   4.684   3.545 -0.4201  0.8809  0.7672
 1528TIP3    H226076   1.410   4.592   3.632  0.0750 -1.1860 -0.8798
 1529TIP3   OH226077   2.776   0.173  15.927  0.0435 -0.4708 -0.1008
 1529TIP3    H126078   2.765   0.268  15.923 -0.7876 -0.5831 -0.7468
 1529TIP3    H226079   2.832   0.152  15.852  1.1686 -0.3867  0.6816
 1530TIP3   OH226080   5.117   5.878  15.482 -0.0955 -0.1083 -0.2587
 1530TIP3    H126081   5.153   5.797  15.447  0.4457  0.8741 -2.1443
 1530TIP3    H226082   5.023   5.863  15.484  0.0977 -1.3695  1.1009
 1531TIP3   OH226083   0.163   0.787   6.724 -0.3844  0.3437  0.2501
 1531TIP3    H126084   0.124   0.722   6.783 -2.1983  0.6295 -0.5727
 1531TIP3    H226085   0.088   0.827   6.680  0.9049 -0.1279 -2.5496
 1532TIP3   OH226086   1.551   3.627  12.438  1.2102  0.2999 -0.1456
 1532TIP3    H126087   1.629   3.573  12.422  1.5146  0.8195 -0.4316
 1532TIP3    H226088   1.485   3.565  12.470  1.6641 -0.1842 -0.1365
 1533TIP3   OH226089   6.342   6.753   2.663 -0.1326 -0.2459  0.5375
 1533TIP3    H126090   6.254   6.756   2.627 -0.5623  1.3945  1.5815
 1533TIP3    H226091   6.375   6.842   2.651  1.6550 -0.9906 -0.4268
 1534TIP3   OH226092   3.065   4.132  15.842 -0.3121 -0.1603 -0.7133
 1534TIP3    H126093   3.051   4.194  15.914  1.2196  2.6385 -2.6522
 1534TIP3    H226094   3.022   4.051  15.872 -1.3955  1.4079  2.4767
 1535TIP3   OH226095   4.787   0.613   3.850  0.3163 -0.2910  0.3981
 1535TIP3    H126096   4.702   0.626   3.809 -0.0156  0.6329  1.3405
 1535TIP3    H226097   4.848   0.604   3.777 -0.4829 -0.2738 -0.2831
 1536TIP3   OH226098   6.779   1.332  15.076 -0.3092  0.3936  0.2556
 1536TIP3    H126099   6.706   1.344  15.137 -0.4795 -0.9763  0.3642
 1536TIP3    H226100   6.780   1.412  15.024 -1.1113  0.9545  1.0644
 1537TIP3   OH226101   0.263   5.460  13.591  0.4948 -0.6441 -1.2094
 1537TIP3    H126102   0.235   5.398  13.524  0.0317 -1.6165 -0.1565
 1537TIP3    H226103   0.199   5.532  13.586 -0.1710 -1.2173 -1.1169
 1538TIP3   OH226104   1.958   0.165  11.625 -0.2927  0.2877  0.0584
 1538TIP3    H126105   1.954   0.127  11.713  0.7154 -0.3089 -0.1379
 1538TIP3    H226106   2.051   0.163  11.603 -0.6235 -0.3571 -1.3595
 1539TIP3   OH226107   0.887   6.214  11.619 -0.2343 -0.0709  0.3248
 1539TIP3    H126108   0.934   6.273  11.559  0.3548  0.1199  0.9642
 1539TIP3    H226109   0.800   6.206  11.581  0.2324 -0.2441 -0.7638
 1540TIP3   OH226110   0.768   5.761  11.686 -0.3154 -0.2936 -0.0772
 1540TIP3    H126111   0.761   5.678  11.637  1.7510 -0.1649 -0.7091
 1540TIP3    H226112   0.843   5.748  11.744  1.5315  1.8327 -1.7850
 1541TIP3   OH226113   6.372   4.776   0.913  0.2561  0.2397  0.0139
 1541TIP3    H126114   6.320   4.778   0.833 -1.0331  1.7550  0.8377
 1541TIP3    H226115   6.456   4.814   0.888 -0.1838  0.8277 -0.5828
 1542TIP3   OH226116   2.009   1.358  11.711 -0.5533 -0.3938 -0.5515
 1542TIP3    H126117   1.914   1.370  11.720 -0.3535  2.2247 -1.3458
 1542TIP3    H226118   2.018   1.291  11.643 -1.8084 -1.0669 -0.0900
 1543TIP3   OH226119   6.686   6.621   5.154  0.1626  0.3546 -0.6474
 1543TIP3    H126120   6.685   6.717   5.154 -0.7924  0.3798  0.5758
 1543TIP3    H226121   6.601   6.596   5.119  0.5921 -0.0761 -1.4172
 1544TIP3   OH226122   6.443   5.789   5.154 -0.5137  0.0277 -0.3044
 1544TIP3    H126123   6.370   5.733   5.127  0.0349 -0.6987 -0.3064
 1544TIP3    H226124   6.504   5.730   5.199  1.0337  0.1889 -2.0633
 1545TIP3   OH226125   3.484   4.414  17.122 -0.0330 -0.1481 -0.2593
 1545TIP3    H126126   3.568   4.370  17.106 -0.2039 -1.4300  2.0410
 1545TIP3    H226127   3.487   4.439  17.214 -1.8343  0.6001 -0.3693
 1546TIP3   OH226128   5.552   2.659  14.413 -0.3929  0.5459 -0.2458
 1546TIP3    H126129   5.636   2.674  14.369 -0.8706 -1.1318 -1.8583
 1546TIP3    H226130   5.561   2.572  14.453 -1.0817  0.7048  0.2785
 1547TIP3   OH226131   0.926   2.109  13.202  0.0680 -0.2157 -0.3840
 1547TIP3    H126132   0.998   2.161  13.236 -0.5302 -0.3058  1.1285
 1547TIP3    H226133   0.960   2.019  13.200 -0.2242 -0.4055  1.1856
 1548TIP3   OH226134   1.969   6.282   4.456 -0.7367 -0.4918 -0.2191
 1548TIP3    H126135   1.948   6.189   4.468  0.6672 -1.1069 -1.9957
 1548TIP3    H226136   1.939   6.302   4.367  2.4439 -0.4253 -1.4338
 1549TIP3   OH226137   6.371   2.224  16.496 -0.7059  0.4383 -0.1470
 1549TIP3    H126138   6.370   2.166  16.572 -0.7935  1.2351  0.4703
 1549TIP3    H226139   6.412   2.304  16.527  1.6008 -0.0774 -1.6039
 1550TIP3   OH226140   4.072   2.537   2.376 -0.1553 -0.5928 -0.1398
 1550TIP3    H126141   4.004   2.544   2.442  1.3614  0.1852  1.4219
 1550TIP3    H226142   4.126   2.463   2.404  0.5775 -0.1804 -0.4164
 1551TIP3   OH226143   6.545   4.288  14.422  0.0423  0.0086 -0.7980
 1551TIP3    H126144   6.504   4.374  14.416 -1.5514 -0.7381 -0.9236
 1551TIP3    H226145   6.517   4.253  14.506  0.6661 -0.4119 -0.7545
 1552TIP3   OH226146   2.783   6.225  11.889  0.2293  0.0392 -0.1448
 1552TIP3    H126147   2.748   6.289  11.827 -0.2965 -0.3928 -0.2947
 1552TIP3    H226148   2.715   6.159  11.897  0.3919 -0.0384  0.7126
 1553TIP3   OH226149   3.817   5.174   5.417 -0.4593  0.4471  0.1708
 1553TIP3    H126150   3.747   5.113   5.440 -0.7065  1.5879  2.7503
 1553TIP3    H226151   3.886   5.157   5.482 -0.1662  2.2611  0.3770
 1554TIP3   OH226152   0.780   1.500  13.504 -0.1022  0.4497  0.2987
 1554TIP3    H126153   0.781   1.478  13.597 -2.5872  0.4160  0.3851
 1554TIP3    H226154   0.690   1.529  13.487 -0.2267 -1.1512 -2.4301
 1555TIP3   OH226155   0.745   1.065   6.171 -0.7957 -0.1305  0.0665
 1555TIP3    H126156   0.775   0.974   6.170 -0.8063 -0.2085  2.2432
 1555TIP3    H226157   0.806   1.112   6.115 -0.6641 -1.4221 -0.9187
 1556TIP3   OH226158   0.524   3.363  11.850 -0.8164 -0.4208  0.6883
 1556TIP3    H126159   0.431   3.364  11.872 -1.0630 -0.4447 -0.3310
 1556TIP3    H226160   0.528   3.337  11.758  0.3155 -2.7317  1.2993
 1557TIP3   OH226161   1.161   4.584  16.776 -0.2392  0.4692  0.3241
 1557TIP3    H126162   1.175   4.608  16.868 -0.4200  0.2898  0.3992
 1557TIP3    H226163   1.249   4.582  16.738 -0.1741  0.6683  0.4605
 1558TIP3   OH226164   1.230   4.311   0.283 -0.5091  0.3130 -0.0020
 1558TIP3    H126165   1.307   4.336   0.335 -1.4442  1.6514  0.8079
 1558TIP3    H226166   1.259   4.236   0.232  1.2759  0.6590  0.4284
 1559TIP3   OH226167   5.473   4.894  15.730  0.2249  0.1136  0.3251
 1559TIP3    H126168   5.454   4.878  15.822  1.4760  1.0126  0.7707
 1559TIP3    H226169   5.392   4.932  15.695  0.2452  1.3206  1.4816
 1560TIP3   OH226170   6.514   3.703  11.895 -0.3311  0.1635  0.1109
 1560TIP3    H126171   6.551   3.780  11.851 -0.9507 -0.5489 -1.7567
 1560TIP3    H226172   6.419   3.720  11.896 -0.4396 -0.4052 -0.0290
 1561TIP3   OH226173   6.572   1.231   0.361  0.2148 -0.2849  0.0687
 1561TIP3    H126174   6.618   1.309   0.393 -0.3951  0.4529 -0.7963
 1561TIP3    H226175   6.577   1.169   0.434 -0.3733  1.0198  1.2653
 1562TIP3   OH226176   1.500   3.203  15.170 -0.1518  0.1542 -0.3789
 1562TIP3    H126177   1.567   3.136  15.184 -0.0270  0.4124  0.2684
 1562TIP3    H226178   1.418   3.159  15.191 -0.1288  0.0296 -0.5439
 1563TIP3   OH226179   6.406   6.501   2.213  0.4973  0.3920 -0.5531
 1563TIP3    H126180   6.311   6.493   2.226  0.2336  1.2909 -1.7850
 1563TIP3    H226181   6.436   6.552   2.289  0.4171 -1.9343  1.1504
 1564TIP3   OH226182   4.300   6.347  11.247  0.0556  0.1670  0.1282
 1564TIP3    H126183   4.299   6.340  11.152  0.2332  1.5792  0.0105
 1564TIP3    H226184   4.216   6.310  11.274 -0.9021  1.6167 -0.7378
 1565TIP3   OH226185   2.967   3.192  14.793  0.3383 -0.0593 -0.7248
 1565TIP3    H126186   2.969   3.178  14.699  1.5920 -2.5974 -0.3902
 1565TIP3    H226187   3.023   3.124  14.829 -1.0109  0.1129  1.9516
 1566TIP3   OH226188   0.141   2.310   1.075  0.1284 -0.4755 -0.6931
 1566TIP3    H126189   0.160   2.402   1.093  1.7138 -0.9375  0.2516
 1566TIP3    H226190   0.175   2.295   0.987 -1.3942  0.1339 -1.4306
 1567TIP3   OH226191   6.380   3.166   2.078  0.0785  0.2536  0.0927
 1567TIP3    H126192   6.350   3.109   2.008  1.6626 -1.6429  0.8709
 1567TIP3    H226193   6.343   3.128   2.158 -1.3525  2.1382  0.4064
 1568TIP3   OH226194   3.385   4.513  16.076 -0.0278 -0.3480  0.2626
 1568TIP3    H126195   3.462   4.509  16.132 -0.2544  1.4595  0.7622
 1568TIP3    H226196   3.413   4.475  15.993  1.3685  0.2118  0.4681
 1569TIP3   OH226197   3.427   4.836   4.556  0.6618  1.0568  0.3177
 1569TIP3    H126198   3.380   4.919   4.545 -2.1656  0.3419  4.4507
 1569TIP3    H226199   3.372   4.772   4.512  0.5484  0.8870  0.6999
 1570TIP3   OH226200   0.230   6.110  12.525  0.5004 -0.7879 -0.5306
 1570TIP3    H126201   0.236   6.104  12.620 -3.8526 -0.9798 -0.0497
 1570TIP3    H226202   0.310   6.070  12.493  2.0317 -0.9011  3.0254
 1571TIP3   OH226203   6.731   0.487  17.052  0.2928  0.5498 -0.9124
 1571TIP3    H126204   6.669   0.498  16.980 -1.1798 -0.7203  0.1022
 1571TIP3    H226205   6.744   0.392  17.058  0.4127  0.6292  0.4786
 1572TIP3   OH226206   0.485   3.915   1.820 -0.2260  0.3450 -0.1966
 1572TIP3    H126207   0.550   3.944   1.883  0.6288  0.4950 -1.1124
 1572TIP3    H226208   0.441   3.995   1.792  1.0899  0.6229 -1.5931
 1573TIP3   OH226209   0.381   0.587   4.321  0.0021  0.0665 -0.1289
 1573TIP3    H126210   0.457   0.556   4.273 -0.4412 -1.3763  0.0619
 1573TIP3    H226211   0.373   0.528   4.396 -0.1458  1.4195  0.9760
 1574TIP3   OH226212   4.096   2.906   1.136 -0.3988 -0.1269 -0.2396
 1574TIP3    H126213   4.033   2.947   1.076  1.8857  1.8132 -1.5060
 1574TIP3    H226214   4.122   2.825   1.092 -1.0097 -0.2659 -0.3561
 1575TIP3   OH226215   3.174   5.350   4.521  0.2871  0.1470 -0.5637
 1575TIP3    H126216   3.146   5.439   4.499  0.8792  0.2892 -0.7701
 1575TIP3    H226217   3.126   5.294   4.460  0.3814  0.3789 -0.8574
 1576TIP3   OH226218   2.231   6.262  12.681  0.0558 -0.2871  0.0276
 1576TIP3    H126219   2.154   6.256  12.623 -0.4954 -0.3688  0.7578
 1576TIP3    H226220   2.227   6.350  12.717  2.1286  0.9333 -2.3821
 1577TIP3   OH226221   4.627   5.106   3.726 -0.6322  0.1886  0.5027
 1577TIP3    H126222   4.567   5.088   3.798 -2.3228  2.0403 -0.3250
 1577TIP3    H226223   4.634   5.201   3.724 -0.3448  0.1708 -1.5307
 1578TIP3   OH226224   1.804   2.306   0.255  0.2926 -0.1150 -0.3273
 1578TIP3    H126225   1.716   2.345   0.256  0.4876  0.3184  0.1897
 1578TIP3    H226226   1.862   2.377   0.281  0.8165 -0.3739 -0.7648
 1579TIP3   OH226227   0.058   0.231   3.214 -0.2828 -0.0984  0.2520
 1579TIP3    H126228   0.038   0.324   3.219 -1.1873 -0.3305  1.2613
 1579TIP3    H226229  -0.018   0.188   3.253  0.6094 -1.2054  0.8208
 1580TIP3   OH226230   0.023   1.805   1.477  0.3966  0.1303  0.1986
 1580TIP3    H126231  -0.034   1.729   1.468 -1.6979  1.7333 -0.8298
 1580TIP3    H226232   0.107   1.768   1.505 -0.7474 -2.4537  0.5429
 1581TIP3   OH226233   4.179   0.465  12.027 -0.5706  0.0762 -0.0619
 1581TIP3    H126234   4.143   0.501  11.945  1.7353  2.8939 -0.0107
 1581TIP3    H226235   4.194   0.542  12.082 -0.4428 -1.5924  2.3907
 1582TIP3   OH226236   1.977   0.135   1.217 -0.0671  0.2296 -0.0252
 1582TIP3    H126237   1.898   0.135   1.270  0.0950 -0.1666  0.2184
 1582TIP3    H226238   1.946   0.136   1.127 -0.3441  1.2582  0.0643
 1583TIP3   OH226239   3.882   5.880  12.093  0.5385 -0.3252  0.5262
 1583TIP3    H126240   3.964   5.928  12.079  0.3715 -0.0782  0.3845
 1583TIP3    H226241   3.908   5.788  12.095  0.7000 -0.3093 -0.4734
 1584TIP3   OH226242   1.393   0.449  10.963 -0.0877 -0.5406  0.1549
 1584TIP3    H126243   1.310   0.411  10.993 -0.6720  1.8918  1.9117
 1584TIP3    H226244   1.444   0.462  11.043  0.3034  1.6589 -0.3779
 1585TIP3   OH226245   4.646   3.697   0.700  0.1172 -0.5676 -0.0381
 1585TIP3    H126246   4.590   3.773   0.714 -0.6713 -1.5035  2.5225
 1585TIP3    H226247   4.711   3.701   0.770  1.3031 -1.2301 -1.0489
 1586TIP3   OH226248   3.644   3.245   5.133  0.0822 -0.2278 -0.0438
 1586TIP3    H126249   3.730   3.283   5.153 -0.2649  0.6122 -0.0906
 1586TIP3    H226250   3.645   3.231   5.038 -0.5002  1.5686 -0.3570
 1587TIP3   OH226251   3.150   3.539  14.380  0.2869 -0.0008  0.6422
 1587TIP3    H126252   3.104   3.613  14.420 -0.6941 -0.4920  0.4603
 1587TIP3    H226253   3.221   3.579  14.330  0.0273  0.7930  0.8926
 1588TIP3   OH226254   0.259   4.889   0.549  0.1303 -0.0092  0.7139
 1588TIP3    H126255   0.239   4.966   0.601 -0.7771  0.4464 -0.2526
 1588TIP3    H226256   0.194   4.891   0.478  1.6766 -0.2713 -0.7683
 1589TIP3   OH226257   2.775   5.024  12.576  0.4253  0.2010  0.0020
 1589TIP3    H126258   2.822   5.084  12.634  0.9364 -1.0383  0.9186
 1589TIP3    H226259   2.688   5.015  12.616  0.8711 -0.8759  0.7782
 1590TIP3   OH226260   6.600   0.713  14.183  0.5808  0.3954 -0.4463
 1590TIP3    H126261   6.615   0.622  14.210  0.3742 -0.4439 -2.8895
 1590TIP3    H226262   6.505   0.718  14.168  0.6768  0.8130 -0.9539
 1591TIP3   OH226263   3.372   2.236  13.529  0.1135 -0.2116  0.4946
 1591TIP3    H126264   3.366   2.274  13.616 -2.4570  1.0584 -0.1387
 1591TIP3    H226265   3.294   2.267  13.483 -0.3311 -3.4012 -1.2539
 1592TIP3   OH226266   4.945   4.888  11.897 -0.6461 -0.6285 -0.6938
 1592TIP3    H126267   4.885   4.956  11.867 -0.0954 -1.1701 -3.2284
 1592TIP3    H226268   4.955   4.905  11.991 -1.1827  2.2468 -1.0682
 1593TIP3   OH226269   0.852   0.098   1.952 -0.2164 -0.2209 -0.5433
 1593TIP3    H126270   0.829   0.177   2.001  0.4744 -0.4131  0.1037
 1593TIP3    H226271   0.794   0.030   1.988  2.1279 -1.0229  2.0377
 1594TIP3   OH226272   2.818   3.044   2.931 -0.1527  0.0758 -0.0349
 1594TIP3    H126273   2.766   3.008   3.003 -0.4921 -0.9250 -0.7607
 1594TIP3    H226274   2.785   3.134   2.921  0.4014  0.4990  1.5112
 1595TIP3   OH226275   2.823   4.339  12.019  0.3006  0.1947  0.6119
 1595TIP3    H126276   2.744   4.286  12.011 -1.0773  1.0333  5.4551
 1595TIP3    H226277   2.866   4.306  12.098  1.2191  3.9004  1.8770
 1596TIP3   OH226278   0.196   1.084  13.440 -0.4550 -0.4429 -0.4405
 1596TIP3    H126279   0.258   1.069  13.369 -0.8910  1.2363 -1.2128
 1596TIP3    H226280   0.236   1.041  13.516  1.2620 -0.0611 -1.1003
 1597TIP3   OH226281   2.428   6.157  12.817 -0.3569  0.1498 -0.0141
 1597TIP3    H126282   2.352   6.186  12.766 -1.2901 -1.7709  0.1792
 1597TIP3    H226283   2.422   6.207  12.899 -0.8132  0.7582 -0.4062
 1598TIP3   OH226284   1.643   5.616  13.309  0.3234  0.1021 -0.2920
 1598TIP3    H126285   1.684   5.533  13.333  1.9266  0.7518 -0.6511
 1598TIP3    H226286   1.550   5.603  13.326  0.7444 -1.2000  1.2447
 1599TIP3   OH226287   5.655   3.750   2.158 -0.0510  0.0488 -0.2557
 1599TIP3    H126288   5.575   3.702   2.182 -0.2281 -0.7122 -2.1652
 1599TIP3    H226289   5.673   3.806   2.233 -1.1111 -1.3929  1.1445
 1600TIP3   OH226290   4.385   4.210   6.785  0.0109 -0.0082 -0.1108
 1600TIP3    H126291   4.316   4.266   6.749 -0.3243 -0.8258 -0.7636
 1600TIP3    H226292   4.437   4.269   6.840 -2.8567  0.0913  2.8116
 1601TIP3   OH226293   4.583   4.000  14.966 -0.3486  0.0602 -0.4176
 1601TIP3    H126294   4.654   3.976  14.907 -0.7359 -0.7523 -0.5783
 1601TIP3    H226295   4.529   3.921  14.972 -0.0126 -0.0829  1.4774
 1602TIP3   OH226296   1.416   1.161   5.005 -0.3814 -0.0708 -0.1172
 1602TIP3    H126297   1.418   1.228   4.937 -2.6230  0.2402  0.0158
 1602TIP3    H226298   1.361   1.092   4.969  1.5235 -1.6891 -0.0640
 1603TIP3   OH226299   4.873   4.665   4.474  0.3109  0.0523 -0.6237
 1603TIP3    H126300   4.799   4.697   4.422  0.8385  0.4062 -1.1606
 1603TIP3    H226301   4.940   4.641   4.410  0.1734 -1.5552 -0.2033
 1604TIP3   OH226302   0.170   2.576   1.160 -0.1024  0.2482  0.1028
 1604TIP3    H126303   0.106   2.589   1.231 -0.0506  1.7243 -0.0783
 1604TIP3    H226304   0.240   2.638   1.181 -1.6084  3.3104 -2.9573
 1605TIP3   OH226305   1.186   6.405   5.187  0.2384 -0.2794 -0.4887
 1605TIP3    H126306   1.214   6.411   5.095  0.4000 -3.5688 -0.7633
 1605TIP3    H226307   1.230   6.327   5.220 -0.4437  0.3902  2.1985
 1606TIP3   OH226308   4.932   2.610  15.227  0.4146  0.8860  0.7709
 1606TIP3    H126309   4.940   2.527  15.179  1.7222  1.2396  0.3239
 1606TIP3    H226310   4.852   2.649  15.193 -0.0149 -0.0158  0.7074
 1607TIP3   OH226311   6.676   3.129   0.497  0.5968 -0.5212 -0.1008
 1607TIP3    H126312   6.737   3.177   0.553  0.9992 -0.4948 -0.5565
 1607TIP3    H226313   6.693   3.163   0.409  0.6438 -1.2469 -0.3754
 1608TIP3   OH226314   5.434   0.381  11.069  0.5732  0.0707  0.4000
 1608TIP3    H126315   5.447   0.425  11.153 -0.3790 -0.3946  0.8011
 1608TIP3    H226316   5.454   0.448  11.004  2.0358  0.2288  0.9737
 1609TIP3   OH226317   0.866   6.284  11.174 -0.5409 -0.3554 -0.0411
 1609TIP3    H126318   0.906   6.303  11.258  1.0836  2.2245 -1.2800
 1609TIP3    H226319   0.940   6.267  11.115 -1.0065  3.9962 -2.2760
 1610TIP3   OH226320   6.626   3.809   6.498  0.1419  0.4085 -0.4311
 1610TIP3    H126321   6.694   3.779   6.438  0.5688 -1.0931  0.7589
 1610TIP3    H226322   6.549   3.757   6.476  0.3348 -0.2339  0.3875
 1611TIP3   OH226323   2.081   0.553   2.464 -0.6322  0.1573 -0.7553
 1611TIP3    H126324   2.084   0.544   2.560 -3.4750  0.8507 -0.5223
 1611TIP3    H226325   2.161   0.600   2.442  1.2673 -2.0109  0.9543
 1612TIP3   OH226326   3.683   0.948  15.271  0.1835  0.2770 -0.7779
 1612TIP3    H126327   3.695   0.998  15.352 -0.0182 -2.4912  1.1211
 1612TIP3    H226328   3.600   0.980  15.235  0.1214  1.3519  0.2539
 1613TIP3   OH226329   5.135   3.856   4.083  0.5050  0.7749  0.0257
 1613TIP3    H126330   5.156   3.796   4.011  0.1709 -0.8444  1.2084
 1613TIP3    H226331   5.048   3.889   4.061  0.5412  0.5520 -0.4733
 1614TIP3   OH226332   3.021   5.347   3.903  0.3121  0.1012 -0.0960
 1614TIP3    H126333   3.035   5.254   3.882 -0.9166 -0.0971 -0.1306
 1614TIP3    H226334   3.023   5.351   3.998  2.5518  0.4377 -0.1024
 1615TIP3   OH226335   3.479   5.902   1.988  0.4669  0.5227 -0.0838
 1615TIP3    H126336   3.527   5.984   1.995  2.7065 -0.7252  0.1596
 1615TIP3    H226337   3.530   5.840   2.041 -0.7845 -1.1696 -0.7664
 1616TIP3   OH226338   3.118   4.516   4.340 -0.2272 -0.1545  0.0105
 1616TIP3    H126339   3.138   4.464   4.262 -1.3453 -1.8708  0.7818
 1616TIP3    H226340   3.040   4.565   4.316  1.0529  1.5483 -0.8526
 1617TIP3   OH226341   0.210   3.807   0.402  0.2466 -0.0856 -0.0509
 1617TIP3    H126342   0.298   3.811   0.439  0.3685  0.6467 -0.4187
 1617TIP3    H226343   0.152   3.826   0.477  0.4231 -0.0813  0.0851
 1618TIP3   OH226344   5.534   4.510   4.184 -0.0076  0.1907  0.4569
 1618TIP3    H126345   5.571   4.598   4.181 -1.2581  0.8645  2.4744
 1618TIP3    H226346   5.455   4.515   4.130  0.8745 -0.2363 -0.9092
 1619TIP3   OH226347   1.366   2.896  16.892 -0.4010 -0.4284  0.4648
 1619TIP3    H126348   1.452   2.877  16.930 -1.1012 -0.1918  2.2652
 1619TIP3    H226349   1.304   2.851  16.949 -1.4692 -0.9558 -1.0541
 1620TIP3   OH226350   5.526   1.022   5.603  0.7052  0.3111  0.8568
 1620TIP3    H126351   5.548   0.984   5.518  1.5155  0.6394  0.9073
 1620TIP3    H226352   5.439   0.989   5.622  0.1090  0.9862 -0.5413
 1621TIP3   OH226353   0.708   2.612   2.469 -0.3940  0.3884  0.0390
 1621TIP3    H126354   0.784   2.649   2.513 -0.1277  1.0206 -0.9213
 1621TIP3    H226355   0.743   2.543   2.413 -0.4399  1.0783 -0.8565
 1622TIP3   OH226356   6.651   4.618   5.246  0.1442 -0.7360 -0.0179
 1622TIP3    H126357   6.649   4.650   5.336  0.0236 -0.8296  0.0132
 1622TIP3    H226358   6.733   4.652   5.211 -0.7004  0.9331 -0.4818
 1623TIP3   OH226359   3.744   1.880  13.854  0.3325 -0.2166  0.2641
 1623TIP3    H126360   3.721   1.790  13.829  1.8777 -0.1409 -1.6301
 1623TIP3    H226361   3.808   1.870  13.924  0.6804 -0.6206 -0.1047
 1624TIP3   OH226362   3.748   3.831  11.887  0.0349  0.0699  0.9776
 1624TIP3    H126363   3.786   3.789  11.811 -0.1134 -1.5206  1.7410
 1624TIP3    H226364   3.654   3.836  11.868  0.1386  0.6725  0.6114
 1625TIP3   OH226365   4.435   2.743  10.354 -0.1911  0.4562 -0.3942
 1625TIP3    H126366   4.511   2.799  10.337 -1.4745  1.8873 -1.7557
 1625TIP3    H226367   4.467   2.654  10.338  0.8908  1.1223 -2.3179
 1626TIP3   OH226368   0.433   2.400   1.729 -0.3342 -0.2290  0.1514
 1626TIP3    H126369   0.409   2.441   1.811  0.5839  0.3396  0.1458
 1626TIP3    H226370   0.498   2.459   1.690  0.3899 -1.2549 -0.2473
 1627TIP3   OH226371   1.098   4.493   4.408  0.0953  0.1933  0.2272
 1627TIP3    H126372   1.101   4.524   4.318  1.8159  0.1380  0.2354
 1627TIP3    H226373   1.038   4.554   4.452  1.6572  2.2079 -0.2573
 1628TIP3   OH226374   4.237   1.329  15.873 -0.3907 -1.3672 -0.4877
 1628TIP3    H126375   4.234   1.351  15.966  0.2069 -1.4702 -0.4372
 1628TIP3    H226376   4.240   1.233  15.871 -2.0321 -1.4366 -0.6729
 1629TIP3   OH226377   1.575   0.339  11.366  0.2034  0.3417 -0.2704
 1629TIP3    H126378   1.636   0.273  11.399  0.1532  0.2521 -0.3549
 1629TIP3    H226379   1.551   0.390  11.443 -0.7428 -0.5417  0.0513
 1630TIP3   OH226380   4.720   5.331   5.612 -0.0677  0.5130 -0.2220
 1630TIP3    H126381   4.782   5.283   5.666 -0.5172  0.3380  0.1498
 1630TIP3    H226382   4.774   5.384   5.553  0.4261  0.1208 -0.1213
 1631TIP3   OH226383   5.702   0.297  16.875  0.0423  0.2317  0.5353
 1631TIP3    H126384   5.622   0.324  16.921 -0.1470 -0.5314  0.6618
 1631TIP3    H226385   5.727   0.374  16.823 -1.5312  0.0627 -0.5583
 1632TIP3   OH226386   3.584   2.156  16.746 -0.1602  0.4684  0.2588
 1632TIP3    H126387   3.604   2.077  16.696 -1.6912  1.8017 -2.7901
 1632TIP3    H226388   3.669   2.196  16.764  0.4986 -0.2194 -1.1548
 1633TIP3   OH226389   2.422   5.000  12.691 -0.0775 -0.3872 -0.0544
 1633TIP3    H126390   2.336   4.958  12.695  0.2012 -1.3257 -2.2839
 1633TIP3    H226391   2.483   4.929  12.670  0.7184  0.7562 -1.8607
 1634TIP3   OH226392   0.981   4.101  12.467 -0.0371 -0.3644  0.1629
 1634TIP3    H126393   0.978   4.162  12.541 -2.2576 -0.7942  0.5049
 1634TIP3    H226394   0.889   4.084  12.446  0.5034 -0.2152 -2.7648
 1635TIP3   OH226395   3.792   6.062   5.916  0.3946 -0.5149  0.2256
 1635TIP3    H126396   3.780   6.038   6.008  0.9924 -1.7421  0.0086
 1635TIP3    H226397   3.721   6.123   5.898 -0.0271 -0.6345  1.3732
 1636TIP3   OH226398   5.076   6.200   1.170 -0.3122 -0.3678  0.1690
 1636TIP3    H126399   5.132   6.132   1.206  0.2847  0.0764  0.0893
 1636TIP3    H226400   5.136   6.264   1.132 -0.8870 -0.9215 -1.8326
 1637TIP3   OH226401   0.473   2.855   4.087 -0.6615 -0.2575  0.2354
 1637TIP3    H126402   0.436   2.773   4.117 -2.5892  0.3594 -0.3149
 1637TIP3    H226403   0.505   2.836   3.998  0.4483 -0.7979  0.7257
 1638TIP3   OH226404   6.430   3.682   0.598  0.8322  0.1433  0.0815
 1638TIP3    H126405   6.479   3.605   0.625  2.2096  0.5443 -1.1254
 1638TIP3    H226406   6.496   3.741   0.562 -0.0900  2.1811  1.5567
 1639TIP3   OH226407   1.615   6.602   2.481 -0.0641 -0.6359 -0.1058
 1639TIP3    H126408   1.609   6.692   2.512 -2.5840 -1.6731  2.8332
 1639TIP3    H226409   1.568   6.602   2.398 -2.3041  0.3428  1.0935
 1640TIP3   OH226410   1.140   4.014   3.567  0.4619 -0.1225  0.2433
 1640TIP3    H126411   1.139   3.931   3.518  2.2254 -0.3238  0.4824
 1640TIP3    H226412   1.143   4.081   3.499  2.5537 -0.3903  0.0092
 1641TIP3   OH226413   6.479   5.837   4.791  0.0639 -0.1854  0.4324
 1641TIP3    H126414   6.466   5.922   4.833  1.4272  0.2856 -0.0238
 1641TIP3    H226415   6.391   5.808   4.768 -0.4749  0.8372  1.0895
 1642TIP3   OH226416   1.647   5.190   2.284  0.2344  0.2460  0.1166
 1642TIP3    H126417   1.728   5.194   2.335 -0.5608 -4.7426  2.4003
 1642TIP3    H226418   1.672   5.145   2.203  0.0792  0.4106 -0.0221
 1643TIP3   OH226419   5.587   3.264  11.442 -0.0721 -0.6681  0.2944
 1643TIP3    H126420   5.674   3.231  11.417 -0.1741 -1.1884  0.6162
 1643TIP3    H226421   5.581   3.349  11.399  0.5078 -0.7276  0.0818
 1644TIP3   OH226422   3.813   5.176   2.736 -0.0936  0.0822 -0.1860
 1644TIP3    H126423   3.875   5.193   2.665 -0.1061 -1.6949 -0.6784
 1644TIP3    H226424   3.807   5.081   2.740 -1.7191  0.1866  0.8015
 1645TIP3   OH226425   5.303   4.670   2.581 -0.3010 -0.1391 -0.9789
 1645TIP3    H126426   5.344   4.681   2.496 -0.4578  1.2453 -0.8890
 1645TIP3    H226427   5.376   4.654   2.641 -0.2721 -2.3225 -1.5196
 1646TIP3   OH226428   1.180   1.947  15.617  0.0264 -0.1374  0.5178
 1646TIP3    H126429   1.267   1.932  15.579 -0.5248 -2.9362  0.1254
 1646TIP3    H226430   1.125   1.969  15.541  0.1565  0.4321  0.5898
 1647TIP3   OH226431   1.902   4.778   0.154 -0.0607 -0.4029  0.3310
 1647TIP3    H126432   1.919   4.823   0.237 -1.1173 -1.0952  0.9444
 1647TIP3    H226433   1.986   4.778   0.109  0.5298 -0.0140  1.3992
 1648TIP3   OH226434   1.388   6.464   4.366 -0.4343 -0.4218  0.2673
 1648TIP3    H126435   1.357   6.474   4.276  1.0799  3.0190 -0.0254
 1648TIP3    H226436   1.482   6.447   4.357 -0.3116 -0.3075  1.2023
 1649TIP3   OH226437   4.436   1.347  14.654  0.1693 -0.0290 -0.3968
 1649TIP3    H126438   4.426   1.404  14.730 -1.0973 -0.4127 -0.2517
 1649TIP3    H226439   4.425   1.405  14.579 -3.0874 -0.2836 -0.2607
 1650TIP3   OH226440   2.500   3.148   5.055  0.1171  0.8941  0.2825
 1650TIP3    H126441   2.558   3.223   5.043 -1.4117  2.7056  2.9714
 1650TIP3    H226442   2.551   3.073   5.025  3.0501  2.5801  0.6278
 1651TIP3   OH226443   4.278   5.487   2.071 -0.2143  0.2507  0.3783
 1651TIP3    H126444   4.343   5.519   2.008 -2.6920 -0.8527 -2.9555
 1651TIP3    H226445   4.210   5.554   2.072 -0.5386 -0.0656  1.4519
 1652TIP3   OH226446   5.476   2.330   2.535 -0.2425 -0.6527  0.3230
 1652TIP3    H126447   5.426   2.292   2.462  2.2090 -1.6710 -0.9567
 1652TIP3    H226448   5.556   2.363   2.494  0.4732  0.2610  2.3601
 1653TIP3   OH226449   2.384   6.500   4.960  0.5689 -0.0655 -0.1737
 1653TIP3    H126450   2.466   6.498   4.910  1.2242 -2.7593  0.8399
 1653TIP3    H226451   2.339   6.419   4.935 -1.0615  0.5916  0.4947
 1654TIP3   OH226452   1.452   3.386   5.455  0.2593  0.0242  0.0501
 1654TIP3    H126453   1.479   3.304   5.495  2.1771 -0.4702 -2.0257
 1654TIP3    H226454   1.360   3.396   5.480  0.1946 -2.3295  1.0253
 1655TIP3   OH226455   3.531   0.477   0.834  0.3516 -0.1653 -0.1724
 1655TIP3    H126456   3.458   0.416   0.838  1.1097 -1.0314  1.3140
 1655TIP3    H226457   3.609   0.423   0.844  1.1238  0.9056 -0.1978
 1656TIP3   OH226458   6.142   3.199  12.294  0.1595  0.0168  0.0738
 1656TIP3    H126459   6.113   3.156  12.214 -0.9667 -0.8997  0.9521
 1656TIP3    H226460   6.063   3.239  12.330  0.5132 -0.1666  1.0776
 1657TIP3   OH226461   3.137   2.482  14.104  0.1667 -0.0527 -0.1224
 1657TIP3    H126462   3.150   2.528  14.187  0.4910 -2.2985  1.1568
 1657TIP3    H226463   3.073   2.535  14.057 -0.3421  1.0766  1.7365
 1658TIP3   OH226464   4.157   3.430   3.220 -0.7765  0.6390 -0.3183
 1658TIP3    H126465   4.117   3.348   3.250 -0.9122  1.2538  1.3170
 1658TIP3    H226466   4.201   3.407   3.138  1.3844 -1.7346  1.3265
 1659TIP3   OH226467   4.978   1.402  16.031 -0.0975  0.2625 -0.7106
 1659TIP3    H126468   4.915   1.372  15.966 -1.8941  1.2217  0.4882
 1659TIP3    H226469   4.966   1.343  16.106  0.0653  0.7664 -0.2823
 1660TIP3   OH226470   0.840   5.033  15.230 -0.3787  0.2040 -1.0168
 1660TIP3    H126471   0.887   5.114  15.208  1.2603 -0.4476 -0.1008
 1660TIP3    H226472   0.815   5.044  15.322  1.4444 -1.0188 -0.3319
 1661TIP3   OH226473   6.604   1.560  15.450  0.3109  0.4389 -0.6452
 1661TIP3    H126474   6.543   1.497  15.412  1.6889 -1.3012 -0.0983
 1661TIP3    H226475   6.548   1.633  15.479 -1.1839  0.1021 -2.4881
 1662TIP3   OH226476   4.362   3.970   0.199 -0.1263  0.4142 -0.2930
 1662TIP3    H126477   4.273   4.002   0.208 -0.6692 -1.0762 -0.0795
 1662TIP3    H226478   4.361   3.917   0.120  0.5451  0.2866 -0.2276
 1663TIP3   OH226479   3.662   2.501   1.453  0.5284 -0.0759 -0.6643
 1663TIP3    H126480   3.746   2.459   1.474  0.7577  0.5468 -0.3202
 1663TIP3    H226481   3.625   2.446   1.384 -0.3882 -2.3464  1.4929
 1664TIP3   OH226482   3.546   5.546   5.796  0.0048 -0.1905 -0.3269
 1664TIP3    H126483   3.594   5.628   5.808  0.7685 -0.7245  0.3477
 1664TIP3    H226484   3.568   5.518   5.708  2.3512 -1.2924  0.5331
 1665TIP3   OH226485   0.846   4.415  11.642  0.1056 -0.8005 -0.7635
 1665TIP3    H126486   0.756   4.443  11.656 -0.0155 -2.2980  2.1387
 1665TIP3    H226487   0.897   4.463  11.708  1.0912 -1.5941 -0.9243
 1666TIP3   OH226488   1.144   6.675  13.111 -1.0652 -0.1376 -0.0815
 1666TIP3    H126489   1.152   6.765  13.142 -1.7331  0.2509 -0.9707
 1666TIP3    H226490   1.233   6.647  13.093 -0.8267  0.2369  0.4956
 1667TIP3   OH226491   2.905   0.263   1.037 -0.3478  0.2851 -0.0506
 1667TIP3    H126492   2.837   0.331   1.037  0.5106  1.3504 -3.1328
 1667TIP3    H226493   2.893   0.218   0.953  0.4340 -2.0181  1.0107
 1668TIP3   OH226494   5.725   2.931   1.026 -0.3009 -0.0308  0.0151
 1668TIP3    H126495   5.709   2.847   0.983  0.0470  1.0824 -2.4261
 1668TIP3    H226496   5.820   2.940   1.027 -0.3174  0.1672  0.7079
 1669TIP3   OH226497   2.338   0.209  15.826  0.0805 -0.2765  0.0871
 1669TIP3    H126498   2.396   0.137  15.801  0.5767  0.1661 -0.0558
 1669TIP3    H226499   2.311   0.188  15.916  1.0811 -0.0902  0.4384
 1670TIP3   OH226500   4.846   2.253  12.222 -0.1613  0.0290 -0.1338
 1670TIP3    H126501   4.926   2.293  12.258  1.1220 -2.0528 -0.5548
 1670TIP3    H226502   4.876   2.176  12.174 -2.3639 -0.3377 -1.0531
 1671TIP3   OH226503   2.498   6.298   5.650  0.1460  0.0717 -0.1952
 1671TIP3    H126504   2.428   6.292   5.715  0.3442  1.5300  0.2017
 1671TIP3    H226505   2.512   6.393   5.639  0.2562 -0.1346 -2.2099
 1672TIP3   OH226506   3.002   4.825  10.767  0.0391  0.3003 -0.5439
 1672TIP3    H126507   3.081   4.867  10.801 -0.0726 -0.6990  1.0336
 1672TIP3    H226508   2.999   4.740  10.811 -1.7168  0.1666 -0.8554
 1673TIP3   OH226509   1.511   1.374   0.095  0.5905 -0.0901 -0.1938
 1673TIP3    H126510   1.491   1.430   0.171  0.3236  1.5404 -1.4072
 1673TIP3    H226511   1.439   1.311   0.092  0.2597  0.2372  0.5235
 1674TIP3   OH226512   5.935   0.388   0.283  0.2118 -0.7036  0.3075
 1674TIP3    H126513   5.897   0.475   0.293  2.3007  0.1662  1.4525
 1674TIP3    H226514   5.861   0.328   0.289 -0.9397  0.7995  3.3919
 1675TIP3   OH226515   3.019   3.119   2.164 -0.6975  0.6723  0.6126
 1675TIP3    H126516   2.970   3.142   2.243 -1.7987 -0.1857  0.2085
 1675TIP3    H226517   3.110   3.136   2.186 -1.1784  2.7520  1.2418
 1676TIP3   OH226518   1.531   2.997  14.274  0.2152 -0.1007  0.2401
 1676TIP3    H126519   1.586   3.048  14.215  0.0274  0.4789  0.5605
 1676TIP3    H226520   1.479   2.941  14.216 -3.0252  3.3107 -0.5958
 1677TIP3   OH226521   4.685   4.679   0.258  0.2415 -0.1169 -0.4065
 1677TIP3    H126522   4.764   4.644   0.217 -0.8476 -2.6118 -0.5317
 1677TIP3    H226523   4.715   4.756   0.307  2.4600 -0.1499 -1.6231
 1678TIP3   OH226524   5.509   3.747   1.199 -0.3348 -0.2845  0.0546
 1678TIP3    H126525   5.499   3.752   1.294  0.7620  1.2762  0.1384
 1678TIP3    H226526   5.595   3.786   1.182 -1.4512  1.6558 -1.7358
 1679TIP3   OH226527   5.616   3.912   5.718  0.1612  0.1539  0.5115
 1679TIP3    H126528   5.607   3.851   5.644 -3.1179  1.3969 -0.2925
 1679TIP3    H226529   5.705   3.945   5.711  0.6260 -1.3268 -1.6078
 1680TIP3   OH226530   5.769   1.435   4.113  0.2772 -0.3903 -0.3536
 1680TIP3    H126531   5.691   1.452   4.165 -0.6258  0.5680 -1.9367
 1680TIP3    H226532   5.746   1.361   4.057  1.1407 -1.2336  0.3616
 1681TIP3   OH226533   2.072   3.097  11.592 -0.1065  0.0765  0.4238
 1681TIP3    H126534   2.044   3.156  11.523 -0.2383 -0.1235  0.3056
 1681TIP3    H226535   2.077   3.152  11.670 -3.9383 -0.4038  1.2455
 1682TIP3   OH226536   3.129   1.229   0.118  0.1674 -0.9040  0.2041
 1682TIP3    H126537   3.044   1.208   0.079 -0.3421  0.8103  0.3277
 1682TIP3    H226538   3.111   1.303   0.176  1.5382 -1.2705  1.1477
 1683TIP3   OH226539   2.658   5.513   2.767 -0.3828  0.1248 -1.0641
 1683TIP3    H126540   2.620   5.570   2.835 -0.0714 -1.8035  0.8222
 1683TIP3    H226541   2.747   5.546   2.757 -1.1326  1.9580 -2.3981
 1684TIP3   OH226542   3.458   2.816  16.960  0.1611  0.9664 -0.1087
 1684TIP3    H126543   3.549   2.815  16.931  0.0479  1.1392 -0.4769
 1684TIP3    H226544   3.407   2.806  16.879 -0.1271 -0.1956  0.1981
 1685TIP3   OH226545   6.093   2.535   0.278 -0.2318 -0.0183 -0.5286
 1685TIP3    H126546   6.135   2.522   0.193 -0.1509 -1.1470 -0.3337
 1685TIP3    H226547   6.089   2.447   0.316 -1.9404  0.1942 -0.1424
 1686TIP3   OH226548   5.232   1.820   1.815  0.2288 -1.0536  0.7177
 1686TIP3    H126549   5.293   1.843   1.885 -1.0708  0.1631  1.4978
 1686TIP3    H226550   5.157   1.878   1.829  0.3733  0.0200 -2.3459
 1687TIP3   OH226551   0.136   2.183  11.958  0.9481 -0.1635 -0.0955
 1687TIP3    H126552   0.098   2.166  12.044 -0.7275  0.1824 -0.7305
 1687TIP3    H226553   0.089   2.125  11.899  0.2454  1.4059 -1.1463
 1688TIP3   OH226554   2.365   5.684   0.717  0.0195 -0.1284  0.3509
 1688TIP3    H126555   2.283   5.704   0.672  0.3746 -0.0346 -0.2633
 1688TIP3    H226556   2.396   5.769   0.749  0.2768 -0.0450 -0.1115
 1689TIP3   OH226557   6.579   3.088  14.141  0.2080  0.1245  0.2151
 1689TIP3    H126558   6.554   3.157  14.202 -0.5148  0.2311 -0.1864
 1689TIP3    H226559   6.664   3.115  14.108  0.6322  0.0403  1.2079
 1690TIP3   OH226560   4.155   4.355  12.017 -0.3952  0.5202  0.1878
 1690TIP3    H126561   4.143   4.381  12.108  0.4651 -0.5720  0.6295
 1690TIP3    H226562   4.078   4.390  11.972 -0.0940  2.3749  1.0295
 1691TIP3   OH226563   1.854   6.181  14.856  0.0438  0.2304  0.5274
 1691TIP3    H126564   1.803   6.125  14.914 -0.6302  0.9398  0.6318
 1691TIP3    H226565   1.818   6.268  14.868  0.4002  0.5211 -0.3924
 1692TIP3   OH226566   6.813   5.051  11.560  0.1982 -0.0461 -0.1650
 1692TIP3    H126567   6.867   5.128  11.579  0.1155 -0.6074  2.9234
 1692TIP3    H226568   6.860   5.005  11.490  1.6997  1.3888 -0.1536
 1693TIP3   OH226569   4.071   1.884  13.120 -0.5805 -0.0998  0.4646
 1693TIP3    H126570   4.157   1.865  13.083 -0.6899  0.4593 -0.0966
 1693TIP3    H226571   4.010   1.866  13.049 -1.0499 -1.5871  1.1968
 1694TIP3   OH226572   1.753   2.633   5.371 -0.5513  0.1508  0.3203
 1694TIP3    H126573   1.709   2.607   5.290  1.4835 -0.4624 -0.6307
 1694TIP3    H226574   1.781   2.723   5.356 -1.7663  0.6848  1.0832
 1695TIP3   OH226575   4.077   4.769   4.980 -0.3857 -0.4603  0.6851
 1695TIP3    H126576   4.015   4.725   5.039 -1.5976 -0.2656 -0.4002
 1695TIP3    H226577   4.078   4.860   5.009  0.9551 -0.8468  1.9642
 1696TIP3   OH226578   3.456   6.404  13.517 -0.2405  0.7744  0.0856
 1696TIP3    H126579   3.455   6.441  13.606 -0.3962 -0.8667  0.7956
 1696TIP3    H226580   3.529   6.342  13.518 -0.4351  0.5148 -0.8479
 1697TIP3   OH226581   3.940   1.671  15.412  0.2803  0.0156 -0.1199
 1697TIP3    H126582   3.917   1.686  15.503  0.7671  1.0734 -0.1532
 1697TIP3    H226583   3.966   1.757  15.379 -0.0415 -0.3147 -1.3015
 1698TIP3   OH226584   1.152   3.110   0.316 -0.0080  0.2305 -0.1267
 1698TIP3    H126585   1.087   3.100   0.387  0.9085 -1.1383  0.5795
 1698TIP3    H226586   1.110   3.068   0.241 -1.2555  2.2523 -0.6456
 1699TIP3   OH226587   5.478   5.564   5.508  0.1852 -0.0858 -0.7504
 1699TIP3    H126588   5.521   5.649   5.522  1.7198 -1.1155  1.1622
 1699TIP3    H226589   5.526   5.524   5.436  0.2564  0.1521 -0.8362
 1700TIP3   OH226590   0.881   6.347   1.973 -0.3663 -0.0134  0.7447
 1700TIP3    H126591   0.792   6.380   1.975 -1.0334 -1.1322 -2.8313
 1700TIP3    H226592   0.907   6.354   1.881  3.2801  0.2835  1.6362
 1701TIP3   OH226593   0.128   2.604   2.378 -0.6473  0.0250 -0.1973
 1701TIP3    H126594   0.193   2.631   2.314  0.9244  0.4841  1.5137
 1701TIP3    H226595   0.048   2.650   2.353  0.4858  1.8410 -0.6054
 1702TIP3   OH226596   4.617   0.370   4.312 -0.2445 -0.1523 -0.1857
 1702TIP3    H126597   4.702   0.412   4.294 -0.4257 -0.3107 -1.5480
 1702TIP3    H226598   4.563   0.394   4.237 -1.5664  0.3113  0.8888
 1703TIP3   OH226599   4.249   1.746   3.254 -0.1814 -0.2158  0.6367
 1703TIP3    H126600   4.316   1.678   3.250  1.2664  0.9573  2.8219
 1703TIP3    H226601   4.277   1.812   3.191  0.0635 -0.2605  0.6998
 1704TIP3   OH226602   5.548   0.617   3.481 -0.3619 -0.7684  0.0975
 1704TIP3    H126603   5.642   0.600   3.492  0.2762  2.2667  0.0970
 1704TIP3    H226604   5.526   0.575   3.398  1.3280 -0.3475 -0.5944
 1705TIP3   OH226605   1.788   1.612  11.760 -0.5295 -0.0455 -0.7642
 1705TIP3    H126606   1.717   1.671  11.787 -0.7452 -1.0407  1.0764
 1705TIP3    H226607   1.838   1.596  11.841 -0.6851 -2.5906 -1.0680
 1706TIP3   OH226608   1.146   0.812   0.990 -0.6860 -0.1106  0.3419
 1706TIP3    H126609   1.218   0.748   0.993 -0.8699 -0.3693 -0.5662
 1706TIP3    H226610   1.158   0.858   0.907 -0.0336  1.6719  1.3545
 1707TIP3   OH226611   4.380   2.120  16.428 -0.1358  0.4821 -0.0690
 1707TIP3    H126612   4.293   2.140  16.463 -0.3742 -0.7955  0.1105
 1707TIP3    H226613   4.438   2.127  16.503 -0.7612 -3.0926  0.9583
 1708TIP3   OH226614   0.589   6.339  14.184  0.8703  0.7890  0.2393
 1708TIP3    H126615   0.588   6.392  14.264  2.0974 -0.2391  0.9903
 1708TIP3    H226616   0.554   6.396  14.116 -2.0273  1.1020  1.8379
 1709TIP3   OH226617   2.349   2.272   4.671 -0.2172  0.1617  0.5575
 1709TIP3    H126618   2.340   2.361   4.637  0.4070  0.5244  1.3099
 1709TIP3    H226619   2.408   2.228   4.610  0.5484  0.6749  0.9136
 1710TIP3   OH226620   5.949   3.596   5.763 -0.0321 -0.2214 -0.4132
 1710TIP3    H126621   5.905   3.537   5.702 -1.0968 -1.9762  1.8829
 1710TIP3    H226622   5.884   3.612   5.832  1.3875  0.9079  0.7221
 1711TIP3   OH226623   5.233   2.335  14.576 -0.0349  0.0994  0.1481
 1711TIP3    H126624   5.218   2.423  14.608  1.8705  0.7933 -0.7229
 1711TIP3    H226625   5.230   2.343  14.480  1.3414 -0.5347  0.0338
 1712TIP3   OH226626   6.363   4.180   4.151 -0.6445  0.0292  0.0851
 1712TIP3    H126627   6.278   4.195   4.194 -0.7196 -0.5017  0.1276
 1712TIP3    H226628   6.419   4.251   4.183 -0.8926  0.0242  0.5415
 1713TIP3   OH226629   2.295   5.295   3.590 -0.0500  0.6485  0.0433
 1713TIP3    H126630   2.355   5.349   3.640 -1.2373  0.2428  2.0142
 1713TIP3    H226631   2.351   5.240   3.536  1.2108  3.0549 -1.2776
 1714TIP3   OH226632   6.545   0.964  12.765  0.0550 -0.0435 -0.2762
 1714TIP3    H126633   6.618   0.970  12.827  0.7536 -1.7153 -0.8666
 1714TIP3    H226634   6.495   1.045  12.778  1.1119  0.4026  1.2721
 1715TIP3   OH226635   4.376   2.425  15.726  0.3413  0.4228 -0.0964
 1715TIP3    H126636   4.389   2.478  15.805  1.4981 -0.7414  0.5419
 1715TIP3    H226637   4.418   2.341  15.747 -1.0894 -0.6083 -1.2083
 1716TIP3   OH226638   3.067   2.156   3.959 -0.3582  0.1364  0.4926
 1716TIP3    H126639   3.019   2.075   3.948 -0.8890  0.3173  1.3859
 1716TIP3    H226640   3.079   2.165   4.054  1.5233  0.0480  0.2948
 1717TIP3   OH226641   1.722   0.071  14.979  0.1253 -0.3003  0.1923
 1717TIP3    H126642   1.804   0.054  14.933 -0.4853 -0.9361 -0.6960
 1717TIP3    H226643   1.654   0.060  14.912 -0.6874  0.2183  0.9073
 1718TIP3   OH226644   4.281   5.407  12.897 -0.6555 -0.0881  0.2724
 1718TIP3    H126645   4.359   5.365  12.861 -0.5088 -0.8988  1.4953
 1718TIP3    H226646   4.213   5.340  12.891 -0.5883 -0.2895  1.6350
 1719TIP3   OH226647   1.220   0.785   5.348  0.6492  0.0625 -0.2525
 1719TIP3    H126648   1.258   0.698   5.358  0.6146 -0.0446 -0.9923
 1719TIP3    H226649   1.186   0.787   5.259 -1.9546 -0.1716  0.6386
 1720TIP3   OH226650   2.861   2.056   2.872 -0.0709  0.1214 -0.4228
 1720TIP3    H126651   2.779   2.043   2.920 -0.4763  0.4050 -1.0254
 1720TIP3    H226652   2.896   1.967   2.861  1.1447  0.1671  2.2517
 1721TIP3   OH226653   2.288   6.011   3.861 -0.4123 -0.0511  0.6005
 1721TIP3    H126654   2.318   6.070   3.930 -0.2718 -2.5178  2.8269
 1721TIP3    H226655   2.192   6.015   3.865 -0.4035  0.2716  0.5005
 1722TIP3   OH226656   0.223   5.392  15.621 -0.0248  0.0385  0.4615
 1722TIP3    H126657   0.184   5.416  15.536 -0.0021  1.1918  0.7561
 1722TIP3    H226658   0.149   5.357  15.671 -0.1380 -0.2184  0.1179
 1723TIP3   OH226659   6.274   5.504   3.435 -0.4273  0.8958 -0.2894
 1723TIP3    H126660   6.222   5.534   3.510 -0.7416  1.1670 -0.6135
 1723TIP3    H226661   6.273   5.577   3.374  0.7588  1.1058 -0.0956
 1724TIP3   OH226662   2.275   1.980   0.996  0.0354 -0.3531 -0.5070
 1724TIP3    H126663   2.191   2.012   1.029 -0.1259  1.1749 -2.2603
 1724TIP3    H226664   2.340   2.016   1.056 -0.5133 -1.3524  0.7255
 1725TIP3   OH226665   6.478   6.246   1.843 -0.0220  0.2626 -0.8211
 1725TIP3    H126666   6.490   6.295   1.924  0.3837 -1.0574 -0.0457
 1725TIP3    H226667   6.529   6.294   1.778  1.5541  0.0966  0.2356
 1726TIP3   OH226668   1.569   1.838   4.253  0.2442 -0.1366 -0.2058
 1726TIP3    H126669   1.606   1.883   4.176 -2.3022  2.3492 -0.1291
 1726TIP3    H226670   1.496   1.788   4.217 -0.3889  0.3041  0.4589
 1727TIP3   OH226671   0.603   4.169  13.545  0.8187 -0.4143  0.2168
 1727TIP3    H126672   0.538   4.120  13.494  0.8845  1.1033 -1.4521
 1727TIP3    H226673   0.681   4.114  13.543  0.1071 -1.4624  0.7341
 1728TIP3   OH226674   6.711   1.951  15.213 -0.1821  0.5582  0.0741
 1728TIP3    H126675   6.788   1.895  15.210 -0.8446 -0.3946  0.2420
 1728TIP3    H226676   6.705   1.980  15.304  0.6431  1.6304 -0.1887
 1729TIP3   OH226677   2.372   6.541   5.222  0.4145  0.1579 -0.1864
 1729TIP3    H126678   2.292   6.592   5.211  1.5112  1.9527 -0.1825
 1729TIP3    H226679   2.389   6.505   5.135  2.0083  3.5887 -1.4872
 1730TIP3   OH226680   2.319   0.851   4.332  0.5030 -0.6601 -0.2496
 1730TIP3    H126681   2.364   0.914   4.277 -1.1403  1.1358  0.3644
 1730TIP3    H226682   2.387   0.817   4.390  1.6681 -0.4259 -1.4247
 1731TIP3   OH226683   6.160   1.017  11.116 -0.5091 -0.0860  0.2653
 1731TIP3    H126684   6.215   1.093  11.097  2.3326 -1.5175  2.0842
 1731TIP3    H226685   6.127   0.988  11.031  1.1393  1.1570 -0.8424
 1732TIP3   OH226686   4.531   1.670   1.962 -0.0877  0.3639 -0.3788
 1732TIP3    H126687   4.459   1.709   2.012 -0.1507 -0.8251  0.5096
 1732TIP3    H226688   4.500   1.668   1.872 -0.8574  0.5802 -0.1223
 1733TIP3   OH226689   3.098   0.800  12.686 -0.4173  0.4419  0.1933
 1733TIP3    H126690   3.126   0.815  12.776  1.9738 -2.1798  0.0330
 1733TIP3    H226691   3.092   0.888  12.648  0.7650  1.5158  2.2868
 1734TIP3   OH226692   3.569   5.211  13.755  0.0501 -0.0823 -0.0522
 1734TIP3    H126693   3.650   5.162  13.741  1.4987  2.1779 -0.1457
 1734TIP3    H226694   3.543   5.240  13.667 -0.2992  0.0537  0.0946
 1735TIP3   OH226695   5.840   5.411  13.805  0.0437  0.1499  0.2204
 1735TIP3    H126696   5.758   5.399  13.854 -0.2570  0.4979 -0.1790
 1735TIP3    H226697   5.882   5.486  13.847 -0.1631  0.3822  0.0155
 1736TIP3   OH226698   2.252   3.444   5.010 -0.2934  0.4327 -0.3148
 1736TIP3    H126699   2.215   3.474   4.927 -0.6017  1.2434  0.1001
 1736TIP3    H226700   2.329   3.392   4.985 -0.3883  0.6593 -1.1049
 1737TIP3   OH226701   0.350   1.903  14.458 -0.6181 -0.0356  0.4317
 1737TIP3    H126702   0.389   1.834  14.405 -0.8443  0.8501 -0.9098
 1737TIP3    H226703   0.419   1.927  14.520 -0.1249 -0.6240  0.1242
 1738TIP3   OH226704   5.098   4.442   2.184  0.6768 -0.0956 -0.1746
 1738TIP3    H126705   5.187   4.430   2.150  1.5588  1.3953  1.4332
 1738TIP3    H226706   5.094   4.534   2.209 -0.5209 -0.6703  1.9778
 1739TIP3   OH226707   2.209   2.936   2.938 -0.1396  0.3689  0.2665
 1739TIP3    H126708   2.174   2.980   3.016  0.3288  0.2730  0.5376
 1739TIP3    H226709   2.171   2.848   2.942  1.2440 -0.2370  1.3808
 1740TIP3   OH226710   0.139   4.334  15.878  0.0807  0.3981 -0.3299
 1740TIP3    H126711   0.224   4.314  15.918  0.0304 -0.0583 -0.4509
 1740TIP3    H226712   0.090   4.378  15.948  0.6588  1.2962 -0.4721
 1741TIP3   OH226713   4.153   1.019   1.125 -0.0960 -0.1821  0.2683
 1741TIP3    H126714   4.123   1.058   1.207 -1.2468 -0.0027 -0.2174
 1741TIP3    H226715   4.178   0.930   1.149 -1.0269 -0.3381  0.7133
 1742TIP3   OH226716   4.942   4.592  11.906  0.8198 -0.3550 -0.0298
 1742TIP3    H126717   4.890   4.573  11.984 -0.8941  0.5484 -0.8748
 1742TIP3    H226718   4.959   4.686  11.912  0.3590 -0.2073 -0.8978
 1743TIP3   OH226719   4.997   1.805   4.648 -0.7348  0.0102 -0.2948
 1743TIP3    H126720   5.039   1.739   4.702  0.5027  0.2291 -0.9521
 1743TIP3    H226721   4.961   1.868   4.710 -0.1760 -0.2313  0.2840
 1744TIP3   OH226722   4.717   3.946   2.829 -0.1055  0.1103  0.6670
 1744TIP3    H126723   4.692   4.034   2.802  1.6194  1.2017  2.3904
 1744TIP3    H226724   4.746   3.956   2.919  0.1832 -2.2381  0.8971
 1745TIP3   OH226725   1.066   6.502   0.320  0.3321  0.1081  0.4541
 1745TIP3    H126726   1.063   6.530   0.229  2.1723  0.1731  0.3837
 1745TIP3    H226727   1.057   6.407   0.317 -0.3250  0.1716  0.2747
 1746TIP3   OH226728   0.316   5.310   0.044 -0.1494 -0.6426  0.1689
 1746TIP3    H126729   0.321   5.334  -0.049  0.2015  0.6656  0.5037
 1746TIP3    H226730   0.407   5.303   0.072 -0.2527 -1.6284  0.2809
 1747TIP3   OH226731   4.065   2.222   0.256  0.7225  0.2862  0.0885
 1747TIP3    H126732   4.137   2.274   0.221  2.0305 -1.4442  0.0485
 1747TIP3    H226733   4.074   2.136   0.214 -1.1340 -0.1145  0.3932
 1748TIP3   OH226734   3.846   6.219   1.373 -0.0365 -0.0156  0.4976
 1748TIP3    H126735   3.770   6.269   1.401  0.9103  0.5081  2.2886
 1748TIP3    H226736   3.904   6.283   1.332 -0.0832 -0.2280  0.0823
 1749TIP3   OH226737   4.007   1.790   5.887 -1.0517  0.0107 -0.2988
 1749TIP3    H126738   4.068   1.761   5.954  0.5056  2.1157 -0.7280
 1749TIP3    H226739   3.926   1.809   5.934 -0.4737 -0.0287  0.7364
 1750TIP3   OH226740   6.040   4.507   5.926  0.4050 -0.3344 -0.2103
 1750TIP3    H126741   6.089   4.443   5.977  1.3671  0.1268 -0.5246
 1750TIP3    H226742   5.971   4.456   5.883  1.5741 -1.2889 -1.0009
 1751TIP3   OH226743   5.789   5.228  14.514  0.1060 -0.4869  0.0589
 1751TIP3    H126744   5.825   5.317  14.517 -3.3312  1.0422  1.5956
 1751TIP3    H226745   5.847   5.177  14.572  1.9864  0.7371 -0.6481
 1752TIP3   OH226746   6.537   0.805   0.827 -0.4620  0.1352 -0.2328
 1752TIP3    H126747   6.500   0.845   0.905  0.1478  0.1029  0.0776
 1752TIP3    H226748   6.608   0.748   0.859  0.4421  0.8621 -0.8625
 1753TIP3   OH226749   3.687   2.796   2.497  0.0444  0.4783  0.0967
 1753TIP3    H126750   3.768   2.746   2.500  0.3213  0.9734  2.5553
 1753TIP3    H226751   3.702   2.863   2.430  0.1944 -1.6890 -2.2099
 1754TIP3   OH226752   3.499   0.990   4.325  0.2628  0.1366 -0.2599
 1754TIP3    H126753   3.408   0.966   4.308  0.3714 -1.3565  1.1114
 1754TIP3    H226754   3.549   0.947   4.255 -0.1531  2.2089 -1.9440
 1755TIP3   OH226755   3.619   1.909  16.955 -0.0957 -0.5872  0.0111
 1755TIP3    H126756   3.569   1.983  16.990 -0.6128  0.5715 -2.9028
 1755TIP3    H226757   3.577   1.888  16.872  2.1122 -1.9491 -0.8561
 1756TIP3   OH226758   5.401   3.159  15.627 -0.1953 -0.5195 -0.1164
 1756TIP3    H126759   5.410   3.206  15.710 -2.4400 -0.1540 -0.0098
 1756TIP3    H226760   5.427   3.069  15.647  0.4412 -0.1719  0.6617
 1757TIP3   OH226761   0.340   0.963  12.421  0.0255  0.4574  0.0248
 1757TIP3    H126762   0.252   1.001  12.422  0.2730  1.0862 -0.7687
 1757TIP3    H226763   0.390   1.018  12.482 -0.9355 -2.0617  3.3426
 1758TIP3   OH226764   5.457   1.216  11.378 -0.8469 -0.3201  0.8763
 1758TIP3    H126765   5.501   1.247  11.457  0.8182 -0.6679  0.1210
 1758TIP3    H226766   5.469   1.121  11.379  0.4820 -0.1963 -0.5112
 1759TIP3   OH226767   2.836   3.753  14.318 -0.6971  0.1098  0.9705
 1759TIP3    H126768   2.812   3.728  14.408 -1.1328 -2.1873  0.2730
 1759TIP3    H226769   2.752   3.759  14.273 -0.3608 -2.1585 -0.0722
 1760TIP3   OH226770   1.476   6.446   1.762 -0.4196  0.6851  0.1732
 1760TIP3    H126771   1.427   6.399   1.828  0.3728 -2.6486 -1.3945
 1760TIP3    H226772   1.559   6.468   1.805 -0.9364  0.9780  1.0422
 1761TIP3   OH226773   2.526   2.900  13.626  0.2501 -0.0422 -0.1079
 1761TIP3    H126774   2.525   2.901  13.722  1.5698  0.5518 -0.0782
 1761TIP3    H226775   2.585   2.971  13.602 -0.5601  0.2321 -1.3902
 1762TIP3   OH226776   5.386   0.884   1.013  0.4877 -0.0850  0.5397
 1762TIP3    H126777   5.436   0.929   0.945 -0.3637 -1.9876 -1.4780
 1762TIP3    H226778   5.298   0.876   0.977  0.4746 -2.8419  0.9836
 1763TIP3   OH226779   6.360   3.773  11.447 -1.0184 -0.1455 -0.2624
 1763TIP3    H126780   6.310   3.835  11.501 -3.4304 -0.5543 -1.9099
 1763TIP3    H226781   6.321   3.688  11.465  1.9030 -1.2920  1.5465
 1764TIP3   OH226782   3.062   1.492   5.016 -0.1049 -0.5610  0.0048
 1764TIP3    H126783   3.012   1.520   5.093  0.3935  0.6503 -0.0963
 1764TIP3    H226784   3.014   1.416   4.983 -2.2868  0.9360 -0.4754
 1765TIP3   OH226785   5.621   0.443   3.867 -0.1851  0.7015 -0.1235
 1765TIP3    H126786   5.685   0.513   3.880 -0.2206  0.5100  1.3394
 1765TIP3    H226787   5.537   0.489   3.860 -0.0591  0.8711 -0.5645
 1766TIP3   OH226788   2.133   0.255   6.071  0.0674 -0.4329  0.0297
 1766TIP3    H126789   2.075   0.260   5.995 -0.1084 -0.5810  0.1519
 1766TIP3    H226790   2.182   0.337   6.070  1.3671 -1.1827 -1.2602
 1767TIP3   OH226791   2.305   1.426   4.393  0.2182 -0.0620  0.0409
 1767TIP3    H126792   2.283   1.352   4.336  1.4725 -0.8248  0.4973
 1767TIP3    H226793   2.399   1.439   4.379 -0.1099  1.9933 -0.6328
 1768TIP3   OH226794   1.702   3.547   0.825 -0.2781 -0.2511 -0.2268
 1768TIP3    H126795   1.631   3.548   0.889 -0.8243 -0.3300 -0.8259
 1768TIP3    H226796   1.658   3.541   0.740  0.4918 -2.4584 -0.5249
 1769TIP3   OH226797   5.776   0.640   6.124 -0.2461  0.0343 -0.6343
 1769TIP3    H126798   5.806   0.730   6.136 -0.1285 -0.2134  1.1614
 1769TIP3    H226799   5.686   0.649   6.093 -0.5142  0.7913  0.3070
 1770TIP3   OH226800   3.734   1.109   3.461  0.0717  0.2708 -0.0850
 1770TIP3    H126801   3.820   1.080   3.433 -0.4777 -0.5873 -0.9433
 1770TIP3    H226802   3.742   1.121   3.556  0.6860 -1.4140  0.1051
 1771TIP3   OH226803   1.300   5.437   3.216 -0.3523 -0.0979  0.4357
 1771TIP3    H126804   1.212   5.409   3.190 -0.3955  0.1729  0.2782
 1771TIP3    H226805   1.303   5.421   3.310 -0.1518 -1.1923  0.2451
 1772TIP3   OH226806   1.122   0.520   1.775 -0.1083  0.2549  0.2187
 1772TIP3    H126807   1.177   0.575   1.720 -1.0163  0.7821 -0.1988
 1772TIP3    H226808   1.175   0.443   1.793 -0.1920 -0.5153 -2.4035
 1773TIP3   OH226809   0.433   2.542   5.261  0.3647 -0.0861  0.5770
 1773TIP3    H126810   0.451   2.508   5.174  0.3254 -0.5371  0.7408
 1773TIP3    H226811   0.425   2.464   5.316  1.1062  0.2061  1.1273
 1774TIP3   OH226812   6.274   1.676   6.052 -0.0303 -0.2304  0.3017
 1774TIP3    H126813   6.360   1.635   6.059  0.5559  0.3725 -2.1658
 1774TIP3    H226814   6.294   1.769   6.038 -1.0520 -0.1407 -0.6762
 1775TIP3   OH226815   1.544   1.076   5.249 -0.1430 -0.1826 -0.2847
 1775TIP3    H126816   1.479   1.078   5.180  0.6970  0.9298 -1.0750
 1775TIP3    H226817   1.625   1.105   5.207  0.6494 -0.5875  0.8940
 1776TIP3   OH226818   3.851   1.673  15.689  0.4398 -0.1594 -1.1822
 1776TIP3    H126819   3.758   1.695  15.696  0.5946  0.0521  0.4759
 1776TIP3    H226820   3.873   1.633  15.773  1.7499 -0.6633 -1.7290
 1777TIP3   OH226821   4.004   0.440   5.249 -0.4541  0.4232 -0.0465
 1777TIP3    H126822   4.020   0.511   5.310 -2.9795  0.6320  0.4582
 1777TIP3    H226823   3.924   0.465   5.202 -0.3827 -1.2276 -1.1577
 1778TIP3   OH226824   0.355   6.117   1.412  0.4522 -0.2136  0.1114
 1778TIP3    H126825   0.260   6.111   1.404  0.1260  2.9704  0.0847
 1778TIP3    H226826   0.370   6.133   1.506  0.9171 -0.3996  0.0712
 1779TIP3   OH226827   5.004   2.777  12.967  0.5231 -0.3519  0.0565
 1779TIP3    H126828   4.987   2.750  12.877  1.2348  0.7299 -0.4138
 1779TIP3    H226829   5.096   2.802  12.969  1.1142 -2.3147  1.6089
 1780TIP3   OH226830   3.959   4.250   4.036  0.0779  0.3831 -0.2745
 1780TIP3    H126831   3.961   4.346   4.044  1.2776  0.3299  0.3610
 1780TIP3    H226832   3.964   4.218   4.126  1.1700 -0.2600 -0.5368
 1781TIP3   OH226833   3.084   4.786   3.128 -0.0287  0.2996  0.6650
 1781TIP3    H126834   3.150   4.816   3.191  1.0171  1.5621 -0.9672
 1781TIP3    H226835   3.123   4.709   3.087 -0.7093 -0.5191  1.4906
 1782TIP3   OH226836   3.378   6.440  10.513  0.0512  0.2720 -0.5465
 1782TIP3    H126837   3.287   6.413  10.500  0.7876 -3.6087  0.8758
 1782TIP3    H226838   3.412   6.454  10.425 -1.3436 -0.5020 -1.2293
 1783TIP3   OH226839   4.954   4.427   5.959  0.0805  0.7415 -0.6132
 1783TIP3    H126840   4.959   4.504   5.902  0.4934  0.0755 -1.5105
 1783TIP3    H226841   4.891   4.451   6.027 -1.0193  1.3039 -1.7860
 1784TIP3   OH226842   2.432   2.615  14.590 -0.2156  0.1773  0.3627
 1784TIP3    H126843   2.512   2.564  14.580  0.2843  0.9524  0.2474
 1784TIP3    H226844   2.456   2.702  14.557 -0.6535  0.8487  1.7523
 1785TIP3   OH226845   1.441   0.983  14.827  0.1559 -0.1655 -0.8707
 1785TIP3    H126846   1.357   0.939  14.818  0.8813 -1.9340  0.4495
 1785TIP3    H226847   1.436   1.028  14.912  0.7588 -0.8401 -0.4649
 1786TIP3   OH226848   5.029   0.551  13.806  0.2427 -0.2549 -0.3154
 1786TIP3    H126849   5.051   0.627  13.859  0.8164 -0.3273 -0.4480
 1786TIP3    H226850   5.046   0.476  13.863  0.9264 -0.3356 -0.6222
 1787TIP3   OH226851   6.305   2.171  14.777  0.0665  0.3082  0.1853
 1787TIP3    H126852   6.272   2.203  14.861  1.5970  0.1208  0.8908
 1787TIP3    H226853   6.237   2.194  14.714 -0.8311  1.0109  1.3747
 1788TIP3   OH226854   0.519   3.715   6.569  0.2564 -0.3154  0.0359
 1788TIP3    H126855   0.454   3.701   6.638  1.7545 -0.4673  1.4786
 1788TIP3    H226856   0.543   3.627   6.540  0.7419 -0.3179  0.4280
 1789TIP3   OH226857   1.236   6.089  11.478  0.1659  0.0600  0.1166
 1789TIP3    H126858   1.278   6.008  11.447  0.7285 -0.3284  1.7732
 1789TIP3    H226859   1.181   6.060  11.551 -1.5276  0.8547 -0.7863
 1790TIP3   OH226860   4.495   5.644  12.629 -0.2447  0.3363  0.4757
 1790TIP3    H126861   4.466   5.736  12.630  1.0876  0.8057 -0.6330
 1790TIP3    H226862   4.538   5.632  12.714 -0.0158  0.9014  0.4479
 1791TIP3   OH226863   0.723   1.590  14.128  0.2866 -0.0282 -0.3455
 1791TIP3    H126864   0.658   1.555  14.068 -0.4357  1.5666 -0.5374
 1791TIP3    H226865   0.764   1.662  14.081  1.1401 -0.0308  0.3463
 1792TIP3   OH226866   4.028   4.325  12.978 -0.2633  0.0317  0.0917
 1792TIP3    H126867   3.940   4.320  12.940  0.8360  0.3084 -2.7126
 1792TIP3    H226868   4.049   4.235  13.001 -0.8308 -0.2195 -0.3467
 1793TIP3   OH226869   1.516   6.764   0.865  0.2549  0.3744  0.7694
 1793TIP3    H126870   1.537   6.849   0.905 -0.7519  0.8546  0.3159
 1793TIP3    H226871   1.437   6.736   0.910 -0.9469  0.9561 -0.8675
 1794TIP3   OH226872   3.985   5.623  12.054 -0.3756 -0.1283  0.2220
 1794TIP3    H126873   4.006   5.598  11.964  1.0189  0.5093  0.3385
 1794TIP3    H226874   4.003   5.545  12.105 -0.9681 -0.4281 -0.0156
 1795TIP3   OH226875   4.918   3.898  11.939  0.4785 -0.2575 -0.3379
 1795TIP3    H126876   4.860   3.872  12.010  1.1736 -0.2403  0.2450
 1795TIP3    H226877   4.960   3.817  11.911  1.5868 -0.0038  0.5284
 1796TIP3   OH226878   5.636   4.266  13.844  0.0019  0.5154 -0.3054
 1796TIP3    H126879   5.553   4.224  13.823 -0.3606  1.8746 -1.6916
 1796TIP3    H226880   5.670   4.298  13.761  1.5028  0.7501  0.3538
 1797TIP3   OH226881   3.323   5.969  13.121 -0.3853 -0.1610  0.1910
 1797TIP3    H126882   3.228   5.966  13.134 -0.8529  1.0761 -2.4542
 1797TIP3    H226883   3.347   6.060  13.140  0.0773 -0.1692 -0.3511
 1798TIP3   OH226884   5.813   6.421   5.871  0.0207 -0.5508 -0.2060
 1798TIP3    H126885   5.780   6.440   5.783  0.9776  2.7698  0.0069
 1798TIP3    H226886   5.764   6.480   5.928  2.4245  0.5951  0.8218
 1799TIP3   OH226887   0.436   1.820  15.466 -0.2110  0.1300  0.3052
 1799TIP3    H126888   0.415   1.864  15.549  0.8812  2.4648 -0.5638
 1799TIP3    H226889   0.531   1.817  15.464 -0.2137  0.3982 -1.0065
 1800TIP3   OH226890   4.390   2.542  11.653 -0.1194  0.2992 -1.1830
 1800TIP3    H126891   4.462   2.591  11.614 -0.5827  0.3575 -1.9890
 1800TIP3    H226892   4.385   2.573  11.743  1.0242  0.1078 -1.0493
 1801TIP3   OH226893   0.908   0.276   2.578  0.7527 -0.3738  0.1285
 1801TIP3    H126894   0.818   0.264   2.547  0.4975 -0.4919  0.8959
 1801TIP3    H226895   0.907   0.242   2.668  1.4868 -0.0781  0.2519
 1802TIP3   OH226896   1.358   2.308  15.737  0.0356 -0.1012 -0.0235
 1802TIP3    H126897   1.436   2.266  15.700 -1.1254 -0.3750 -2.2923
 1802TIP3    H226898   1.296   2.237  15.750 -1.1922  0.5404 -1.9215
 1803TIP3   OH226899   5.130   2.775  16.798  0.3838 -0.4239  0.7322
 1803TIP3    H126900   5.145   2.815  16.883 -1.1660  0.4817  0.6081
 1803TIP3    H226901   5.184   2.826  16.737  1.7178 -1.2528  1.1688
 1804TIP3   OH226902   0.956   0.953   3.298  0.2159  0.1553 -0.3353
 1804TIP3    H126903   0.993   1.038   3.273  0.4440 -0.0166 -0.5869
 1804TIP3    H226904   1.024   0.889   3.275  0.2689 -0.0467  0.3604
 1805TIP3   OH226905   0.420   3.688   1.984  0.3339  0.6402 -0.3754
 1805TIP3    H126906   0.398   3.763   1.929  1.2231  1.2872  0.1156
 1805TIP3    H226907   0.422   3.723   2.073  0.9808  0.0961 -0.1623
 1806TIP3   OH226908   6.304   3.479  14.123  0.3468 -0.2919 -0.1422
 1806TIP3    H126909   6.288   3.427  14.044 -0.3790  1.1402 -0.9618
 1806TIP3    H226910   6.399   3.471  14.138  0.2919 -1.6220 -0.3883
 1807TIP3   OH226911   0.680   1.503   4.969  0.2017 -0.3998 -0.1485
 1807TIP3    H126912   0.696   1.445   5.044  0.6907 -1.3813 -0.9941
 1807TIP3    H226913   0.645   1.445   4.901 -0.9105  0.5994 -0.4729
 1808TIP3   OH226914   3.611   5.511   1.915  0.3202 -0.4069 -0.5465
 1808TIP3    H126915   3.557   5.573   1.865  2.3947 -0.1513 -2.6466
 1808TIP3    H226916   3.581   5.521   2.005 -2.0863  0.7698 -1.3893
 1809TIP3   OH226917   2.162   3.680   1.843  0.1193  0.6240 -0.6185
 1809TIP3    H126918   2.195   3.601   1.800 -1.8493 -0.0622 -0.9543
 1809TIP3    H226919   2.110   3.647   1.916 -0.5633  1.6193 -0.6438
 1810TIP3   OH226920   3.032   2.622   1.833  0.3134 -0.1534  0.5246
 1810TIP3    H126921   3.124   2.596   1.826  0.1954 -1.0089  1.8507
 1810TIP3    H226922   2.984   2.554   1.785  0.1031 -1.8985  3.0167
 1811TIP3   OH226923   2.515   2.336   0.615  0.4542  0.1320  0.4103
 1811TIP3    H126924   2.610   2.340   0.631  0.3202 -0.8326  1.5853
 1811TIP3    H226925   2.496   2.243   0.607 -0.3997  0.3261  0.1099
 1812TIP3   OH226926   3.404   3.780   0.690 -0.2111 -0.3446 -0.0891
 1812TIP3    H126927   3.442   3.698   0.657 -1.6390 -0.4497 -1.5650
 1812TIP3    H226928   3.339   3.752   0.754  1.5689 -0.1859  1.9098
 1813TIP3   OH226929   4.872   0.203   1.011 -0.4394  0.0605  0.4546
 1813TIP3    H126930   4.938   0.168   0.951 -0.3559  1.4578 -0.3171
 1813TIP3    H226931   4.789   0.170   0.977 -0.3653  0.5872 -0.2672
 1814TIP3   OH226932   6.496   1.586  15.024 -0.7010 -0.1241  0.0947
 1814TIP3    H126933   6.592   1.584  15.017 -0.7638 -2.4406 -1.2654
 1814TIP3    H226934   6.465   1.586  14.933 -2.0449  1.2441  0.5041
 1815TIP3   OH226935   3.287   1.805  11.980  0.1322 -0.2732 -0.2591
 1815TIP3    H126936   3.242   1.839  12.057  1.4338 -1.6082  1.1352
 1815TIP3    H226937   3.263   1.713  11.977  2.9497 -1.1386  0.7513
 1816TIP3   OH226938   5.255   5.107   1.493 -0.3006 -0.1513  0.1633
 1816TIP3    H126939   5.164   5.138   1.486 -0.9638 -1.9815  0.2199
 1816TIP3    H226940   5.256   5.054   1.572  0.6867 -0.6064 -0.1406
 1817TIP3   OH226941   3.668   3.345   5.563  0.0678 -0.5690  0.2811
 1817TIP3    H126942   3.637   3.342   5.472  0.6690 -1.3651  0.0832
 1817TIP3    H226943   3.736   3.412   5.563  0.6726 -1.1642 -0.0762
 1818TIP3   OH226944   1.742   5.757   1.009  0.0812  0.1176  0.9820
 1818TIP3    H126945   1.718   5.847   0.986  1.0480  0.2300  0.3630
 1818TIP3    H226946   1.683   5.702   0.957 -0.7957  0.3888  1.6779
 1819TIP3   OH226947   6.689   4.757   2.095  0.1247  0.7504 -0.5648
 1819TIP3    H126948   6.612   4.796   2.136 -0.1418 -0.9006  0.5997
 1819TIP3    H226949   6.724   4.697   2.161 -0.3836 -2.1641 -2.7426
 1820TIP3   OH226950   0.040   4.962   1.021 -0.2328 -0.5496  0.3723
 1820TIP3    H126951   0.133   4.985   1.009 -0.3310 -0.1649  0.3230
 1820TIP3    H226952  -0.007   5.038   0.988 -0.5427 -0.0237  1.9061
 1821TIP3   OH226953   2.755   4.566  14.213  0.3988 -0.0892  0.3930
 1821TIP3    H126954   2.771   4.523  14.297  1.2636 -1.1802 -0.2962
 1821TIP3    H226955   2.841   4.567  14.170 -0.0578  0.3199 -0.5338
 1822TIP3   OH226956   1.752   6.759   1.883  0.4052 -0.3250 -0.2480
 1822TIP3    H126957   1.703   6.755   1.801  0.6876  2.6133 -0.6541
 1822TIP3    H226958   1.688   6.742   1.951  0.0120 -2.0314 -1.0015
 1823TIP3   OH226959   6.386   6.525   2.852 -0.0759  0.1337 -0.6780
 1823TIP3    H126960   6.389   6.610   2.808 -0.4479 -0.2113 -1.3847
 1823TIP3    H226961   6.327   6.472   2.798 -1.6023  0.0863  0.9274
 1824TIP3   OH226962   3.815   5.475  16.429  0.0488 -0.0759 -0.7787
 1824TIP3    H126963   3.730   5.515  16.447 -0.1236 -1.2003  1.3164
 1824TIP3    H226964   3.794   5.384  16.406  0.6203  0.0335 -1.7890
 1825TIP3   OH226965   1.649   4.433  14.894  0.2959 -0.2724  0.4914
 1825TIP3    H126966   1.697   4.355  14.866  0.0366  0.2317 -1.5475
 1825TIP3    H226967   1.678   4.449  14.983  3.6837 -0.2117 -0.4723
 1826TIP3   OH226968   4.675   4.885  12.272 -0.1367 -0.2959  0.0228
 1826TIP3    H126969   4.766   4.886  12.242  0.4552 -0.7114  1.7078
 1826TIP3    H226970   4.661   4.972  12.310 -0.1976 -0.4985  0.4663
 1827TIP3   OH226971   4.676   6.306   0.084  0.2334 -0.0683  0.0128
 1827TIP3    H126972   4.685   6.370   0.013 -0.8723 -0.3066 -0.3579
 1827TIP3    H226973   4.750   6.325   0.143  1.0433  0.2690 -1.0846
 1828TIP3   OH226974   4.884   3.378   4.013 -0.1062 -0.2624  0.4337
 1828TIP3    H126975   4.835   3.439   4.067  1.7837  0.9895  0.8310
 1828TIP3    H226976   4.884   3.296   4.063 -0.6706  0.0897  1.0195
 1829TIP3   OH226977   4.745   5.408  14.337  0.1226 -0.0416  0.0400
 1829TIP3    H126978   4.780   5.319  14.335 -0.8896 -0.4533 -0.9558
 1829TIP3    H226979   4.746   5.436  14.245  5.3183  3.0802  0.6668
 1830TIP3   OH226980   0.979   5.705   3.590 -0.1689  0.0826  0.2195
 1830TIP3    H126981   0.960   5.693   3.497 -1.7790  0.2364  0.4939
 1830TIP3    H226982   0.895   5.688   3.633  0.3221  0.9565  1.5621
 1831TIP3   OH226983   3.115   2.800  11.500 -0.1735  0.8108  0.0633
 1831TIP3    H126984   3.172   2.739  11.548 -1.8345 -0.8442  0.0497
 1831TIP3    H226985   3.173   2.842  11.436  1.0527 -0.7861  0.0614
 1832TIP3   OH226986   6.295   4.960  15.694 -0.4787  0.1975 -0.2176
 1832TIP3    H126987   6.282   4.930  15.784  1.9645  2.3833  0.9861
 1832TIP3    H226988   6.265   5.051  15.694 -2.1266 -0.2487 -2.1814
 1833TIP3   OH226989   2.570   1.522   1.743 -0.0901 -0.3201 -0.7356
 1833TIP3    H126990   2.616   1.463   1.684  0.3339  0.3594 -1.0968
 1833TIP3    H226991   2.640   1.564   1.794 -0.2683  0.9684 -1.5204
 1834TIP3   OH226992   1.055   5.778  12.671 -0.3870 -0.3875  0.2589
 1834TIP3    H126993   1.123   5.845  12.668  0.6490 -1.2428  2.6956
 1834TIP3    H226994   1.000   5.796  12.594  2.5717  0.3196 -1.8544
 1835TIP3   OH226995   2.371   4.494   0.144  0.0312  0.0696  0.0997
 1835TIP3    H126996   2.407   4.447   0.220 -1.8790  0.7532  1.4953
 1835TIP3    H226997   2.334   4.425   0.089 -0.7808 -0.2607  1.0400
 1836TIP3   OH226998   1.507   5.540  16.440 -0.7571 -0.1280 -0.6743
 1836TIP3    H126999   1.536   5.580  16.522 -2.6982  0.3357 -0.1648
 1836TIP3    H227000   1.554   5.588  16.372  0.3535 -0.0463  0.1187
 1837TIP3   OH227001   5.898   3.271  13.971 -0.3182  0.3535 -0.3880
 1837TIP3    H127002   5.941   3.201  13.922  1.8460  1.6388 -0.4795
 1837TIP3    H227003   5.904   3.243  14.063 -0.4848 -0.0890 -0.5119
 1838TIP3   OH227004   2.076   4.774  14.905  0.1065  0.2439  0.8204
 1838TIP3    H127005   2.012   4.831  14.863  1.3415  0.7593 -0.4287
 1838TIP3    H227006   2.033   4.745  14.986 -1.3271  1.2976  0.4722
 1839TIP3   OH227007   1.819   6.132   0.522  0.1090  0.3999 -0.2397
 1839TIP3    H127008   1.868   6.211   0.501 -0.2162  0.7908  0.4597
 1839TIP3    H227009   1.804   6.136   0.616  0.2166 -0.5686 -0.1630
 1840TIP3   OH227010   4.062   3.363   1.879 -0.0170 -0.5818  0.2016
 1840TIP3    H127011   4.082   3.443   1.927 -1.5255  0.1349 -0.3043
 1840TIP3    H227012   3.969   3.347   1.896 -0.1173 -1.3784 -0.9376
 1841TIP3   OH227013   5.764   1.142   3.965 -0.2751 -0.1782 -0.2813
 1841TIP3    H127014   5.761   1.096   4.050 -0.1918  0.0407 -0.1610
 1841TIP3    H227015   5.833   1.097   3.916  0.8941  0.8206  0.4100
 1842TIP3   OH227016   4.508   4.869  15.359  0.2728 -0.7835 -0.5937
 1842TIP3    H127017   4.543   4.946  15.404 -1.9711 -0.4090  0.6795
 1842TIP3    H227018   4.530   4.796  15.416  0.1118 -0.7109 -0.4347
 1843TIP3   OH227019   1.305   4.545   4.856 -0.0642  0.8689 -0.3809
 1843TIP3    H127020   1.211   4.565   4.862 -0.8004 -1.9321 -1.3515
 1843TIP3    H227021   1.340   4.569   4.942 -2.4274 -1.3322  1.3463
 1844TIP3   OH227022   3.813   4.109   3.632  0.6015  0.1968 -0.0657
 1844TIP3    H127023   3.903   4.135   3.615 -0.1618  1.8706 -1.9397
 1844TIP3    H227024   3.762   4.188   3.616 -1.2447 -0.8039  0.5915
 1845TIP3   OH227025   2.110   0.335   5.105 -0.2318 -0.3178 -0.1094
 1845TIP3    H127026   2.021   0.331   5.139  0.1399 -4.1268  0.8889
 1845TIP3    H227027   2.109   0.280   5.027  0.9927  0.6548 -0.8461
 1846TIP3   OH227028   0.947   6.687   0.961  0.3674 -0.2595 -0.1239
 1846TIP3    H127029   0.882   6.687   0.890 -1.4892  1.7117  1.4333
 1846TIP3    H227030   0.939   6.774   1.001  0.5232 -1.6017  3.1654
 1847TIP3   OH227031   0.571   0.659   2.708 -0.1966  0.3735 -0.7109
 1847TIP3    H127032   0.545   0.592   2.772  1.6093 -0.7988 -1.1391
 1847TIP3    H227033   0.662   0.639   2.688 -0.6571  0.7886 -3.5855
 1848TIP3   OH227034   2.912   3.458   2.223 -0.0338  0.4861  0.6202
 1848TIP3    H127035   2.882   3.547   2.204  0.4987  1.0351  2.2111
 1848TIP3    H227036   2.983   3.443   2.161 -1.0605  0.5998 -0.6294
 1849TIP3   OH227037   2.168   0.108  10.885 -0.2211 -0.5632 -0.1692
 1849TIP3    H127038   2.146   0.185  10.938 -0.0103 -0.2551 -0.5238
 1849TIP3    H227039   2.244   0.135  10.834 -0.6203 -0.7424 -0.8738
 1850TIP3   OH227040   5.471   3.797   2.498  0.6869 -0.1297  0.3109
 1850TIP3    H127041   5.420   3.876   2.514 -0.2261 -0.2965 -1.5123
 1850TIP3    H227042   5.561   3.828   2.490  0.4569  0.6004  0.4706
 1851TIP3   OH227043   1.535   4.022   5.508 -0.1316 -0.3286 -0.7904
 1851TIP3    H127044   1.579   4.022   5.593 -1.6771  1.2378  0.0672
 1851TIP3    H227045   1.606   4.021   5.444  1.0799 -0.4534  0.5105
 1852TIP3   OH227046   4.700   5.774   1.738 -0.5164  0.6145  0.8252
 1852TIP3    H127047   4.625   5.829   1.758 -0.8179  0.1881  0.8780
 1852TIP3    H227048   4.774   5.834   1.734 -0.8187  0.9995  1.0293
 1853TIP3   OH227049   1.960   4.178  14.262  0.0583  0.0225 -0.0633
 1853TIP3    H127050   2.009   4.183  14.345  0.2789  0.6540 -0.2245
 1853TIP3    H227051   2.013   4.229  14.200 -2.1043  3.1108  0.4192
 1854TIP3   OH227052   0.950   6.238  13.123 -0.0065 -0.3123 -0.0373
 1854TIP3    H127053   1.011   6.311  13.127  1.9380 -1.8209 -0.3079
 1854TIP3    H227054   0.927   6.220  13.214  0.7177 -0.3129  0.1497
 1855TIP3   OH227055   1.151   1.572   1.147 -0.5644 -0.8096 -0.0614
 1855TIP3    H127056   1.226   1.546   1.093 -0.0823  0.3707  0.0219
 1855TIP3    H227057   1.139   1.665   1.129  0.2534 -0.1034  2.6051
 1856TIP3   OH227058   1.212   2.782  17.084 -0.5929 -0.2964  0.0750
 1856TIP3    H127059   1.239   2.734  17.162 -0.7914  0.2238  0.4665
 1856TIP3    H227060   1.142   2.729  17.046 -0.6351 -0.4489  0.3625
 1857TIP3   OH227061   5.363   2.438  12.297  0.1152  0.0484 -0.1188
 1857TIP3    H127062   5.410   2.477  12.370 -0.4745  0.3802  0.0966
 1857TIP3    H227063   5.273   2.469  12.307 -0.0363 -0.1268 -0.8266
 1858TIP3   OH227064   0.531   4.045   5.585  0.1415 -0.1286 -0.1316
 1858TIP3    H127065   0.558   4.131   5.616 -2.9234  0.6150  0.8082
 1858TIP3    H227066   0.494   4.062   5.498 -0.1937 -0.5394 -0.0709
 1859TIP3   OH227067   4.472   3.649   3.661  0.9464  0.1926  0.1196
 1859TIP3    H127068   4.428   3.708   3.600  2.0075  1.6029  0.6463
 1859TIP3    H227069   4.518   3.587   3.605 -0.2422 -0.2000 -0.4502
 1860TIP3   OH227070   3.932   5.670   5.075  0.0676 -0.1804  0.0182
 1860TIP3    H127071   4.017   5.679   5.032 -0.3666 -0.3681 -0.8779
 1860TIP3    H227072   3.922   5.752   5.124  0.6864 -0.0913  0.0095
 1861TIP3   OH227073   4.643   2.689  12.818 -0.4079 -0.4562 -0.5004
 1861TIP3    H127074   4.614   2.598  12.820 -0.1214 -0.5974  2.7354
 1861TIP3    H227075   4.733   2.684  12.785 -0.9036 -1.0915 -1.8506
 1862TIP3   OH227076   6.192   0.681  15.744  0.4650  0.4733 -0.0128
 1862TIP3    H127077   6.211   0.594  15.710  1.8784  0.9698 -0.5349
 1862TIP3    H227078   6.176   0.668  15.837  4.0419  0.0421  0.6561
 1863TIP3   OH227079   0.984   1.947   1.174  0.2684  0.1948  0.0805
 1863TIP3    H127080   0.952   2.034   1.199 -0.6983  0.0261 -0.5174
 1863TIP3    H227081   0.924   1.887   1.216  1.1585 -0.2117  0.7994
 1864TIP3   OH227082   1.451   0.272  16.771 -0.0019 -0.0666  0.3523
 1864TIP3    H127083   1.392   0.304  16.703 -3.0541  0.3505  2.9560
 1864TIP3    H227084   1.439   0.178  16.771  0.3628 -0.1191  0.0720
 1865TIP3   OH227085   0.339   4.739   4.819  0.1937  0.1888  0.0172
 1865TIP3    H127086   0.401   4.673   4.850  0.2994 -0.7789 -2.0540
 1865TIP3    H227087   0.304   4.702   4.737 -0.7514  2.1188 -0.5074
 1866TIP3   OH227088   1.404   5.350   4.683 -0.3551 -0.8536 -0.5253
 1866TIP3    H127089   1.320   5.314   4.709 -0.4715 -0.6931 -0.6788
 1866TIP3    H227090   1.384   5.439   4.652 -0.2319 -1.0572 -1.2184
 1867TIP3   OH227091   4.227   0.663   3.102 -0.5721  0.1430 -0.6379
 1867TIP3    H127092   4.202   0.572   3.117  1.0023 -0.2181 -0.0316
 1867TIP3    H227093   4.232   0.670   3.007 -0.0964 -0.5826 -0.6767
 1868TIP3   OH227094   0.661   6.803  17.159 -0.1325 -0.0476 -0.2251
 1868TIP3    H127095   0.740   6.756  17.131 -0.1913 -0.5661  0.4368
 1868TIP3    H227096   0.624   6.748  17.228 -0.6730  0.5608 -0.0194
 1869TIP3   OH227097   0.702   6.387   2.992  0.1347  0.2374 -0.2797
 1869TIP3    H127098   0.690   6.463   2.935 -0.4654 -0.7495 -1.5088
 1869TIP3    H227099   0.758   6.327   2.942  0.6800 -0.1131  0.7120
 1870TIP3   OH227100   0.058   3.165   4.995 -0.8303  0.0240  0.7496
 1870TIP3    H127101   0.077   3.074   4.973 -1.2323  0.4749 -1.7041
 1870TIP3    H227102  -0.035   3.176   4.973 -0.4743  1.3375 -0.1836
 1871TIP3   OH227103   6.457   6.390   5.767  1.0163 -0.3221 -0.3364
 1871TIP3    H127104   6.507   6.333   5.825 -0.5034 -1.0364  0.3495
 1871TIP3    H227105   6.448   6.339   5.686 -0.1617 -1.0259  0.2027
 1872TIP3   OH227106   4.213   5.160   5.356  0.8087  0.6513 -0.3958
 1872TIP3    H127107   4.219   5.196   5.444  2.5861 -0.1559 -0.1373
 1872TIP3    H227108   4.175   5.230   5.303 -1.8942  0.5842  1.2791
 1873TIP3   OH227109   0.965   2.633  11.969  0.3527  0.2885  0.1252
 1873TIP3    H127110   0.908   2.668  11.901  1.1232  1.4447  0.0470
 1873TIP3    H227111   0.907   2.619  12.045  0.0901  2.2605  0.3380
 1874TIP3   OH227112   5.897   5.091   2.746 -0.3701 -0.3626  0.0444
 1874TIP3    H127113   5.952   5.151   2.695  0.3760 -0.2332  0.9647
 1874TIP3    H227114   5.813   5.091   2.700  0.2335 -0.1591 -1.0995
 1875TIP3   OH227115   2.007   2.736   3.710 -0.5332  0.3201 -0.4903
 1875TIP3    H127116   1.914   2.760   3.708 -0.5691  0.2954  0.4010
 1875TIP3    H227117   2.021   2.702   3.799  0.3885  0.5648 -0.5290
 1876TIP3   OH227118   5.422   2.943  16.873 -0.6477  0.0813 -0.3604
 1876TIP3    H127119   5.366   3.020  16.883 -0.5437  0.3702 -1.7775
 1876TIP3    H227120   5.511   2.976  16.884 -0.5177  0.4421 -2.1390
 1877TIP3   OH227121   4.445   5.535   4.849 -0.1696  0.5246  0.0853
 1877TIP3    H127122   4.365   5.543   4.901 -0.5071 -0.7184 -0.2301
 1877TIP3    H227123   4.509   5.496   4.909  0.3533  1.8813  0.4611
 1878TIP3   OH227124   1.369   6.577  12.261 -0.0639  0.4447 -0.3359
 1878TIP3    H127125   1.315   6.654  12.243  0.7457  0.5937 -2.3086
 1878TIP3    H227126   1.370   6.528  12.179  0.4791 -1.0168  0.5124
 1879TIP3   OH227127   5.073   2.410  10.593  0.1769  0.3072 -0.1825
 1879TIP3    H127128   5.110   2.489  10.553  0.0280  1.3918  1.6756
 1879TIP3    H227129   5.001   2.443  10.648  1.7217 -0.7211  2.6912
 1880TIP3   OH227130   3.989   6.207  15.930  0.3226  0.1411  0.0178
 1880TIP3    H127131   4.076   6.243  15.912  1.3293 -1.7295  0.8183
 1880TIP3    H227132   3.978   6.137  15.866 -1.1831  1.1579 -0.9003
 1881TIP3   OH227133   5.876   2.316   1.671 -0.6722 -0.1161 -0.2148
 1881TIP3    H127134   5.792   2.344   1.636 -0.1863  0.7592 -0.7365
 1881TIP3    H227135   5.922   2.278   1.597  0.2094  1.3818 -0.4814
 1882TIP3   OH227136   2.644   3.299   1.381 -0.7808  0.2805  0.4923
 1882TIP3    H127137   2.736   3.311   1.404 -0.3333 -0.6324 -0.7835
 1882TIP3    H227138   2.642   3.300   1.286 -2.2290  1.1930  0.5008
 1883TIP3   OH227139   5.225   6.369  14.726  0.1131  0.3930 -0.4263
 1883TIP3    H127140   5.314   6.386  14.756  0.7283  0.2379 -2.0260
 1883TIP3    H227141   5.217   6.274  14.730  0.0810  0.3950 -0.4481
 1884TIP3   OH227142   4.458   6.233   2.315  0.2832 -0.0914  0.2587
 1884TIP3    H127143   4.448   6.212   2.408 -0.3866 -2.5838 -0.2813
 1884TIP3    H227144   4.549   6.211   2.295 -0.0617 -1.4020 -0.0150
 1885TIP3   OH227145   4.780   1.441   5.745  0.0276 -0.2964 -0.0628
 1885TIP3    H127146   4.759   1.493   5.668 -0.2989 -0.4797 -0.0994
 1885TIP3    H227147   4.707   1.458   5.805 -1.6781 -3.0083 -1.2054
 1886TIP3   OH227148   3.540   4.356  13.011 -0.6625  0.0947 -0.1272
 1886TIP3    H127149   3.553   4.264  12.990  3.6458  0.6987 -1.0278
 1886TIP3    H227150   3.517   4.356  13.104 -2.8745 -1.8659 -0.5739
 1887TIP3   OH227151   5.330   4.572  14.807 -0.0085  0.2597  0.4878
 1887TIP3    H127152   5.379   4.499  14.845  1.1598  1.1079  0.6877
 1887TIP3    H227153   5.391   4.646  14.812  0.2412  0.4520 -2.9376
 1888TIP3   OH227154   6.538   2.751  13.192  0.3907  0.1646 -0.2865
 1888TIP3    H127155   6.566   2.663  13.168 -0.2056 -0.2340  0.4255
 1888TIP3    H227156   6.553   2.757  13.286  0.3487  0.7967 -0.3126
 1889TIP3   OH227157   0.089   2.349  16.437 -0.1940 -0.2135 -0.4559
 1889TIP3    H127158   0.005   2.339  16.482 -0.9901  2.6724 -1.1186
 1889TIP3    H227159   0.140   2.407  16.494  0.8637 -0.8472 -0.7235
 1890TIP3   OH227160   2.078   1.174   6.015 -0.9396  0.1500 -0.0557
 1890TIP3    H127161   2.111   1.249   6.064 -1.6176 -0.2495  1.0285
 1890TIP3    H227162   1.985   1.194   6.001 -1.1021 -0.4482  0.1604
 1891TIP3   OH227163   6.185   0.692   6.133  0.5433 -0.4205  0.4210
 1891TIP3    H127164   6.189   0.742   6.051  1.9643  0.2750  0.8901
 1891TIP3    H227165   6.240   0.615   6.117 -0.8028 -1.3477  0.0599
 1892TIP3   OH227166   2.411   2.271  16.582  0.0255 -0.3328  0.0245
 1892TIP3    H127167   2.452   2.309  16.660  1.8754  0.6926 -1.3845
 1892TIP3    H227168   2.453   2.186  16.572  1.2428  0.3600 -0.9346
 1893TIP3   OH227169   6.077   2.021  16.389 -0.5014  0.1421  0.5607
 1893TIP3    H127170   6.004   2.033  16.328 -0.3296 -0.5544  0.2117
 1893TIP3    H227171   6.035   2.008  16.474 -0.7420  1.0405  0.5915
 1894TIP3   OH227172   1.972   4.060  15.459 -0.0517  0.4832  0.4710
 1894TIP3    H127173   1.993   3.970  15.434  2.3163  1.3038 -0.8567
 1894TIP3    H227174   1.942   4.101  15.377 -1.0177  0.9639  1.0411
 1895TIP3   OH227175   4.044   1.135   0.890 -0.3197  0.0783  0.3625
 1895TIP3    H127176   3.974   1.083   0.850 -0.2006  0.9526 -1.0629
 1895TIP3    H227177   4.092   1.073   0.945 -1.5709 -0.7716  0.5327
 1896TIP3   OH227178   6.062   1.485   2.241  0.4269 -0.7415 -0.1895
 1896TIP3    H127179   6.005   1.551   2.202 -0.7679 -2.2000 -0.9869
 1896TIP3    H227180   6.040   1.404   2.196  1.7671 -1.7311  0.8567
 1897TIP3   OH227181   2.002   5.129  11.937 -0.1589  0.0183 -0.1828
 1897TIP3    H127182   2.027   5.174  12.018 -1.0596  1.6583 -0.7698
 1897TIP3    H227183   1.939   5.063  11.965 -0.5808  0.6710  0.4567
 1898TIP3   OH227184   4.625   1.652   4.859  0.1560  0.4456 -0.7822
 1898TIP3    H127185   4.628   1.663   4.954  1.1659 -0.5229 -0.6750
 1898TIP3    H227186   4.609   1.739   4.824  0.1843  0.8794  0.2668
 1899TIP3   OH227187   0.341   1.941  13.381  0.0354  0.0128 -0.1778
 1899TIP3    H127188   0.418   1.902  13.340 -0.6180 -1.8860  0.2950
 1899TIP3    H227189   0.373   1.980  13.462  0.5027 -0.7969  0.0332
 1900TIP3   OH227190   3.123   4.789   3.558 -0.0587 -0.3218 -0.3756
 1900TIP3    H127191   3.129   4.751   3.645 -0.1168 -0.4416 -0.4229
 1900TIP3    H227192   3.029   4.800   3.544 -0.0086  1.1144  0.1831
 1901TIP3   OH227193   1.144   1.557  11.840 -0.2553  0.0074  0.3600
 1901TIP3    H127194   1.060   1.510  11.839  0.3070 -1.0510  0.9776
 1901TIP3    H227195   1.161   1.577  11.748 -0.3814 -1.2698  0.0416
 1902TIP3   OH227196   0.293   4.636  12.330 -0.0425 -0.2398  0.2783
 1902TIP3    H127197   0.289   4.627  12.235  0.9742 -0.6467  0.2592
 1902TIP3    H227198   0.354   4.709  12.345 -0.8776  0.4103  0.6137
 1903TIP3   OH227199   6.070   3.550   6.692  0.1853  0.3982  0.0527
 1903TIP3    H127200   5.999   3.541   6.629  0.4277 -0.5968 -0.0938
 1903TIP3    H227201   6.139   3.492   6.660 -0.5455 -1.9481  2.3961
 1904TIP3   OH227202   4.768   1.344   6.075  0.2634 -0.2554  0.5303
 1904TIP3    H127203   4.833   1.299   6.021  0.8544 -1.0138  1.8143
 1904TIP3    H227204   4.686   1.297   6.059  0.2663  0.0011 -0.2597
 1905TIP3   OH227205   4.424   5.226   5.926  0.1342 -0.3114  0.2656
 1905TIP3    H127206   4.477   5.189   5.996  0.8597  0.5198  0.1787
 1905TIP3    H227207   4.469   5.308   5.903 -0.3511 -0.3466 -0.8532
 1906TIP3   OH227208   0.316   0.842   4.515  0.3578 -0.5011 -0.2532
 1906TIP3    H127209   0.246   0.777   4.517  0.0011 -0.1044  0.4006
 1906TIP3    H227210   0.304   0.892   4.596  0.4766  0.5458 -0.8790
 1907TIP3   OH227211   3.782   2.643  13.199 -0.1211 -0.0690  0.6474
 1907TIP3    H127212   3.725   2.587  13.251  1.1782  0.4178  2.7111
 1907TIP3    H227213   3.859   2.589  13.182 -0.5987 -0.2929 -1.0510
 1908TIP3   OH227214   1.876   6.228  13.268  0.2046 -0.1995  0.0314
 1908TIP3    H127215   1.854   6.185  13.350 -1.7985 -1.0076 -0.8590
 1908TIP3    H227216   1.907   6.315  13.293  0.4038 -0.7177  1.6599
 1909TIP3   OH227217   0.938   0.605  15.810 -0.1577  0.4089 -0.1447
 1909TIP3    H127218   0.899   0.642  15.889  0.6944 -1.0886  1.0418
 1909TIP3    H227219   1.028   0.584  15.836 -0.2133 -1.2204 -1.1292
 1910TIP3   OH227220   5.746   2.371  13.714  0.1102  0.0016 -0.5176
 1910TIP3    H127221   5.750   2.281  13.745 -0.4268  0.3897  0.7250
 1910TIP3    H227222   5.655   2.398  13.730  0.4692  1.0226 -0.1128
 1911TIP3   OH227223   3.558   1.703   5.290 -0.2916  0.1791  0.5195
 1911TIP3    H127224   3.529   1.626   5.242  0.8550  2.1722 -3.8330
 1911TIP3    H227225   3.478   1.738   5.329 -1.6086 -0.8748 -1.0990
 1912TIP3   OH227226   5.836   4.233  12.328 -0.3025 -0.1964 -0.3804
 1912TIP3    H127227   5.845   4.188  12.412 -2.8049 -0.0099  0.0579
 1912TIP3    H227228   5.891   4.311  12.337 -1.6791  0.6202  1.7221
 1913TIP3   OH227229   6.321   1.238  10.959 -0.2567  0.6915 -0.0335
 1913TIP3    H127230   6.362   1.159  10.924  0.6000  0.5448  1.2035
 1913TIP3    H227231   6.395   1.294  10.984 -0.7086  0.2672  2.6051
 1914TIP3   OH227232   3.586   0.842  14.481 -0.7141 -0.0804  0.6943
 1914TIP3    H127233   3.547   0.906  14.421 -2.3745 -0.4089  1.3762
 1914TIP3    H227234   3.628   0.894  14.549  1.4586  0.3106 -0.8339
 1915TIP3   OH227235   5.662   2.696   5.853  0.7207 -0.3884  0.3799
 1915TIP3    H127236   5.727   2.762   5.879 -1.5730  1.2616  2.3559
 1915TIP3    H227237   5.619   2.671   5.935 -1.2915 -1.2319 -0.8509
 1916TIP3   OH227238   5.700   2.096  15.071 -0.2347  0.3771  0.3352
 1916TIP3    H127239   5.778   2.152  15.065 -0.1560  0.2212 -0.1772
 1916TIP3    H227240   5.734   2.012  15.102  0.1324 -0.2827 -1.6552
 1917TIP3   OH227241   0.943   4.822   3.871  0.2937 -0.5422 -0.4373
 1917TIP3    H127242   0.961   4.766   3.796 -0.7189 -0.7844 -0.5167
 1917TIP3    H227243   0.918   4.761   3.941 -1.4801 -0.1912 -0.7117
 1918TIP3   OH227244   1.485   6.198   0.866 -0.1617 -0.0055  0.2957
 1918TIP3    H127245   1.417   6.190   0.933  0.7501  2.5649  1.6472
 1918TIP3    H227246   1.522   6.285   0.879  0.5515  0.3539 -3.1529
 1919TIP3   OH227247   5.055   2.678   3.807  0.5749 -0.5649  0.3951
 1919TIP3    H127248   5.036   2.765   3.842 -1.4482 -0.7586 -0.0790
 1919TIP3    H227249   5.065   2.623   3.884 -2.0337 -0.6283  0.7986
 1920TIP3   OH227250   4.497   5.513  16.490 -0.3819 -0.1738 -0.3782
 1920TIP3    H127251   4.486   5.608  16.495 -1.3596 -0.3039  0.2131
 1920TIP3    H227252   4.564   5.493  16.556 -0.2679  0.0891 -0.4151
 1921TIP3   OH227253   0.673   1.359   2.017 -0.1936  0.0359  0.4464
 1921TIP3    H127254   0.658   1.387   2.108  1.1967 -0.6034  0.8996
 1921TIP3    H227255   0.703   1.268   2.025  2.2857  0.6992 -0.4231
 1922TIP3   OH227256   3.012   6.090  16.834  0.2598  0.0226  0.7731
 1922TIP3    H127257   2.931   6.141  16.835  2.0990  3.2373  0.1439
 1922TIP3    H227258   3.033   6.075  16.926 -0.7747 -0.4817  0.9478
 1923TIP3   OH227259   6.451   0.618  11.856  0.7805 -0.0138 -1.1029
 1923TIP3    H127260   6.520   0.682  11.872  0.2630  0.4515 -0.7083
 1923TIP3    H227261   6.393   0.625  11.932 -0.9289  1.1928 -2.4256
 1924TIP3   OH227262   5.204   5.183   3.717  0.9802  0.1861  0.4705
 1924TIP3    H127263   5.249   5.136   3.648  0.5048  0.9442 -0.3827
 1924TIP3    H227264   5.225   5.135   3.797  0.2921 -1.6299 -0.3812
 1925TIP3   OH227265   4.663   4.064   4.845 -0.5616 -0.0245  0.1063
 1925TIP3    H127266   4.682   4.141   4.792 -1.7251 -0.8498 -1.6074
 1925TIP3    H227267   4.738   4.057   4.905 -0.3577  2.2920  0.1887
 1926TIP3   OH227268   0.861   6.244   3.218 -0.8285 -0.7352 -0.1171
 1926TIP3    H127269   0.905   6.232   3.134  0.7261  2.7908  0.0138
 1926TIP3    H227270   0.789   6.304   3.199  0.3552  1.2025  1.1604
 1927TIP3   OH227271   0.131   1.866  11.618  0.8327 -0.4597 -0.0968
 1927TIP3    H127272   0.127   1.889  11.710  0.8931 -2.2284  0.3946
 1927TIP3    H227273   0.141   1.771  11.618  0.1516 -0.5738 -1.9402
 1928TIP3   OH227274   5.549   4.660   5.381  0.5998  0.5654 -0.5508
 1928TIP3    H127275   5.457   4.639   5.361  0.3215  0.5083  0.6992
 1928TIP3    H227276   5.568   4.738   5.329  0.0050  0.2834 -1.2131
 1929TIP3   OH227277   3.779   0.018  12.620  0.1557 -0.2556 -0.9059
 1929TIP3    H127278   3.854   0.012  12.562  0.7574 -1.7148 -0.0326
 1929TIP3    H227279   3.749   0.108  12.611  0.8555 -0.1550 -2.6699
 1930TIP3   OH227280   1.845   1.062  12.542  0.5042 -0.5365  0.4861
 1930TIP3    H127281   1.785   1.124  12.501  1.0889 -0.6606 -0.5892
 1930TIP3    H227282   1.894   1.114  12.606  0.0990 -0.1724  0.5035
 1931TIP3   OH227283   6.029   5.864   4.392 -0.1250  0.9101 -0.6062
 1931TIP3    H127284   6.103   5.826   4.441 -0.3058  0.8406 -0.3841
 1931TIP3    H227285   6.045   5.958   4.394 -1.6155  1.2077  2.1019
 1932TIP3   OH227286   6.024   0.378   4.172 -0.1540 -0.6598  0.2808
 1932TIP3    H127287   6.082   0.386   4.247 -0.5046 -0.2646  0.5128
 1932TIP3    H227288   5.967   0.454   4.178  0.7661  0.2132 -1.1995
 1933TIP3   OH227289   0.399   0.593  17.113  0.1003  0.2966 -0.8421
 1933TIP3    H127290   0.384   0.631  17.200  1.0887 -0.4262 -0.3390
 1933TIP3    H227291   0.342   0.643  17.055 -1.5819 -0.0736  0.4154
 1934TIP3   OH227292   6.231   0.210  14.585  0.1144  0.5139 -0.1929
 1934TIP3    H127293   6.235   0.183  14.493 -0.0090  1.8237 -0.6043
 1934TIP3    H227294   6.292   0.283  14.592 -1.0649  1.4891  0.3633
 1935TIP3   OH227295   6.498   3.148  16.016  0.3438  0.2806  0.2833
 1935TIP3    H127296   6.542   3.088  16.076  0.5845  0.5393  0.3688
 1935TIP3    H227297   6.565   3.172  15.952 -0.0891 -0.5060 -0.4832
 1936TIP3   OH227298   3.780   3.701   3.428  0.5814  0.6288 -0.4490
 1936TIP3    H127299   3.855   3.688   3.370  0.4832 -0.8514 -0.2839
 1936TIP3    H227300   3.720   3.756   3.379  0.8666  0.0814 -1.4324
 1937TIP3   OH227301   4.452   4.451  14.887  0.0175 -0.1485 -0.6486
 1937TIP3    H127302   4.357   4.458  14.894  0.2248  2.3643  1.5761
 1937TIP3    H227303   4.475   4.375  14.940 -0.7405 -0.6863 -1.0853
 1938TIP3   OH227304   6.130   5.158  15.080 -0.1974 -0.3665  0.2645
 1938TIP3    H127305   6.171   5.084  15.125 -0.5297 -0.5729  0.2261
 1938TIP3    H227306   6.184   5.233  15.105  0.9791 -0.8190 -0.7954
 1939TIP3   OH227307   4.223   1.230   3.060 -0.4133 -0.4900  0.2130
 1939TIP3    H127308   4.297   1.276   3.021 -0.8901 -0.3907 -0.6059
 1939TIP3    H227309   4.251   1.208   3.149 -0.0197  0.9999  0.4747
 1940TIP3   OH227310   0.370   1.961  11.525  0.1942  0.0738  0.3908
 1940TIP3    H127311   0.285   1.923  11.549  0.2431  1.1691  2.5388
 1940TIP3    H227312   0.425   1.886  11.503 -0.6212 -0.8588  1.4158
 1941TIP3   OH227313   4.253   6.515  12.714  0.1193  0.2098 -0.0708
 1941TIP3    H127314   4.296   6.527  12.630 -0.4030  1.8686 -0.1319
 1941TIP3    H227315   4.161   6.535  12.698 -0.1823 -0.4746  0.6824
 1942TIP3   OH227316   1.631   5.620   4.048 -0.0064 -0.4914  0.3241
 1942TIP3    H127317   1.724   5.604   4.032  0.5379  0.6476  2.0536
 1942TIP3    H227318   1.586   5.548   4.003  1.5192  0.2403 -2.6071
 1943TIP3   OH227319   6.000   0.906   4.196  0.5318 -0.1675  0.1908
 1943TIP3    H127320   6.027   0.867   4.279  1.3444 -0.8386 -0.3716
 1943TIP3    H227321   5.910   0.933   4.211  0.1962 -1.5397  0.8715
 1944TIP3   OH227322   0.178   5.428  12.483  0.0144 -0.0236  0.3907
 1944TIP3    H127323   0.173   5.408  12.576 -0.3700 -0.0139  0.3754
 1944TIP3    H227324   0.091   5.408  12.450 -0.0073  0.4743  0.1370
 1945TIP3   OH227325   0.057   5.965   5.258 -0.0107  0.4626  0.0397
 1945TIP3    H127326   0.152   5.964   5.269  0.3048  2.2885 -1.8783
 1945TIP3    H227327   0.028   6.045   5.302 -0.5962  0.2233  0.1094
 1946TIP3   OH227328   4.743   0.597  13.960  0.5004 -0.1843  0.1225
 1946TIP3    H127329   4.757   0.637  14.046 -0.1690  0.9266 -0.2704
 1946TIP3    H227330   4.730   0.671  13.901 -2.3102 -0.9777 -0.3785
 1947TIP3   OH227331   4.886   0.876   6.336  0.0364  0.0846  0.0818
 1947TIP3    H127332   4.831   0.939   6.289  0.5592  1.7188  1.5572
 1947TIP3    H227333   4.970   0.877   6.291 -0.5791 -1.2043 -1.1841
 1948TIP3   OH227334   0.925   6.235   2.930 -0.0902 -0.4591  0.1948
 1948TIP3    H127335   1.004   6.210   2.979  0.1619  1.6791  1.0016
 1948TIP3    H227336   0.959   6.274   2.849 -0.3320 -0.0977  0.2648
 1949TIP3   OH227337   0.622   0.427  13.630 -0.1564  0.1642 -0.3885
 1949TIP3    H127338   0.534   0.414  13.667 -1.6434  0.3909 -3.5432
 1949TIP3    H227339   0.681   0.416  13.705 -2.9199  1.5382  2.2093
 1950TIP3   OH227340   5.204   2.675  13.846  0.1858  0.2321  0.3910
 1950TIP3    H127341   5.211   2.716  13.760  2.0256 -0.1812  0.2973
 1950TIP3    H227342   5.233   2.743  13.907  0.3000  0.0592  0.5309
 1951TIP3   OH227343   1.870   6.145   4.071 -0.2616 -0.0074  0.1321
 1951TIP3    H127344   1.935   6.205   4.109 -0.6057 -0.5836  1.7219
 1951TIP3    H227345   1.786   6.178   4.102 -0.8360  0.9768 -2.2410
 1952TIP3   OH227346   0.172   2.104   3.808 -0.2968 -0.4457 -0.2806
 1952TIP3    H127347   0.090   2.072   3.770  0.3396 -2.5611  0.0073
 1952TIP3    H227348   0.148   2.132   3.897 -1.3726  2.5513 -1.3807
 1953TIP3   OH227349   4.359   3.508  14.361 -0.1522 -0.7160  0.0229
 1953TIP3    H127350   4.353   3.413  14.356 -1.8950 -0.6535  0.4096
 1953TIP3    H227351   4.290   3.540  14.303 -3.1098  0.1905  3.6380
 1954TIP3   OH227352   2.781   2.811   5.815  0.2448  0.0974  0.7825
 1954TIP3    H127353   2.695   2.773   5.831  0.4169  0.0225  1.6071
 1954TIP3    H227354   2.842   2.737   5.826  0.3697  0.0062 -0.4409
 1955TIP3   OH227355   4.159   0.694   0.580  0.0676  0.0205 -0.3647
 1955TIP3    H127356   4.234   0.733   0.625  0.3955 -1.2833  0.2791
 1955TIP3    H227357   4.095   0.765   0.574  1.1553  1.0238 -0.4961
 1956TIP3   OH227358   2.655   1.063   2.547  0.2773 -0.8879 -0.0873
 1956TIP3    H127359   2.738   1.103   2.523  0.9369 -1.2985  1.4319
 1956TIP3    H227360   2.614   1.126   2.606  0.3589 -1.4777  0.6170
 1957TIP3   OH227361   0.623   5.826  15.020 -0.0695  0.2019  0.1299
 1957TIP3    H127362   0.677   5.903  15.001  1.0620 -0.8595 -1.1362
 1957TIP3    H227363   0.662   5.756  14.968 -1.4340 -1.1026  0.7972
 1958TIP3   OH227364   1.814   3.046  10.826 -0.4931 -0.5449 -0.5594
 1958TIP3    H127365   1.727   3.036  10.865 -1.0051  0.2660 -1.4603
 1958TIP3    H227366   1.838   3.137  10.842 -0.4910 -0.3444 -1.6768
 1959TIP3   OH227367   0.225   6.238  15.758 -0.3868 -0.9395  0.2811
 1959TIP3    H127368   0.245   6.300  15.828  1.1317 -1.5527  0.4210
 1959TIP3    H227369   0.144   6.271  15.720  0.7836  1.6147 -0.1980
 1960TIP3   OH227370   4.288   6.675  13.138  0.1298  0.1608 -0.5582
 1960TIP3    H127371   4.291   6.585  13.169  1.9712  0.4382  0.1908
 1960TIP3    H227372   4.219   6.675  13.071  1.1457 -2.1792 -1.7344
 1961TIP3   OH227373   4.278   0.604   5.641  0.2936  0.3880 -0.7046
 1961TIP3    H127374   4.273   0.669   5.712  2.0411  0.3998 -0.5359
 1961TIP3    H227375   4.303   0.523   5.686  0.8414  0.2604 -1.2340
 1962TIP3   OH227376   2.265   2.881   6.372  0.5082  0.3035 -0.4347
 1962TIP3    H127377   2.259   2.966   6.329 -0.3772  0.0748 -0.7913
 1962TIP3    H227378   2.314   2.826   6.311  1.4372  0.6485 -0.0271
 1963TIP3   OH227379   3.203   1.694   2.904 -0.4834 -0.7564 -0.0333
 1963TIP3    H127380   3.212   1.729   2.992 -1.7817 -0.1859 -0.1082
 1963TIP3    H227381   3.146   1.756   2.859  1.6346 -0.0203 -1.8700
 1964TIP3   OH227382   4.856   0.548  16.819  0.3699 -0.6806 -0.2903
 1964TIP3    H127383   4.883   0.547  16.911 -1.8259 -1.3914  0.3977
 1964TIP3    H227384   4.791   0.479  16.812  0.4490 -0.6104 -2.4021
 1965TIP3   OH227385   3.119   3.474  16.177  0.1046  0.0802 -0.0987
 1965TIP3    H127386   3.029   3.503  16.193 -0.2451 -0.9009 -0.1976
 1965TIP3    H227387   3.164   3.552  16.145 -1.7306 -0.2163 -4.0107
 1966TIP3   OH227388   0.792   1.204  10.813 -0.3025 -0.7542 -0.1384
 1966TIP3    H127389   0.842   1.282  10.787  2.3427 -2.6566 -1.2903
 1966TIP3    H227390   0.702   1.222  10.786  0.4669  1.4145 -1.5020
 1967TIP3   OH227391   4.376   4.236  13.551  0.2661 -0.6418  0.4728
 1967TIP3    H127392   4.460   4.246  13.507  0.2293  0.7340  0.6498
 1967TIP3    H227393   4.351   4.326  13.575 -2.4487 -0.6321 -1.8148
 1968TIP3   OH227394   0.821   4.274   4.787  0.1098 -0.6422  0.9983
 1968TIP3    H127395   0.754   4.252   4.722  2.0293 -0.5066 -1.1427
 1968TIP3    H227396   0.823   4.369   4.787  1.6072 -0.6415 -0.4373
 1969TIP3   OH227397   5.318   5.330  15.732 -0.1265  0.8079  0.9653
 1969TIP3    H127398   5.318   5.287  15.818  1.8597  1.1714  1.2023
 1969TIP3    H227399   5.392   5.392  15.737  1.1037 -0.3343 -1.5551
 1970TIP3   OH227400   3.573   1.670   1.600  0.8468 -0.3232 -0.5968
 1970TIP3    H127401   3.636   1.716   1.545  0.0544 -0.2825 -1.4836
 1970TIP3    H227402   3.559   1.729   1.674  2.0128 -0.4328 -0.2607
 1971TIP3   OH227403   1.624   2.967  17.098 -0.0728  0.3590 -0.2029
 1971TIP3    H127404   1.631   2.952  17.003  1.0325 -2.3366  0.2038
 1971TIP3    H227405   1.692   3.032  17.117 -1.1438  1.9033 -1.3691
 1972TIP3   OH227406   3.322   4.942  12.907  0.0175  0.2933  0.2150
 1972TIP3    H127407   3.323   5.036  12.888  0.1332 -0.0564 -1.6131
 1972TIP3    H227408   3.414   4.916  12.902 -0.0593  0.0024  0.3149
 1973TIP3   OH227409   5.725   3.806   0.721  0.0390 -0.3669 -0.0734
 1973TIP3    H127410   5.733   3.840   0.632  0.1844 -1.2953 -0.4290
 1973TIP3    H227411   5.804   3.837   0.766  0.5259 -0.8139 -0.6002
 1974TIP3   OH227412   4.041   6.168  11.092  0.6357  0.1255  0.5589
 1974TIP3    H127413   3.952   6.137  11.072  0.7741  0.0415  0.0689
 1974TIP3    H227414   4.098   6.094  11.069  0.8449  0.2301  0.7409
 1975TIP3   OH227415   4.688   6.331  12.195  0.0583  0.8688 -0.1718
 1975TIP3    H127416   4.610   6.276  12.205  0.4089  0.6467  1.6179
 1975TIP3    H227417   4.727   6.303  12.112 -1.5390  0.7154 -0.9098
 1976TIP3   OH227418   6.717   1.969  16.288  0.1261 -0.1075  0.4332
 1976TIP3    H127419   6.777   2.002  16.354  1.4281  0.6291 -1.0686
 1976TIP3    H227420   6.718   1.874  16.300 -1.4535  0.1175  2.9222
 1977TIP3   OH227421   6.083   2.807   5.004  0.1185  0.2782 -0.0076
 1977TIP3    H127422   6.059   2.811   5.096  0.6758 -3.5672  0.4788
 1977TIP3    H227423   6.178   2.818   5.003  0.0530  0.8734 -0.2226
 1978TIP3   OH227424   6.085   2.240  12.538 -0.0419  0.3674  0.1255
 1978TIP3    H127425   6.039   2.204  12.614  0.1797 -0.6048 -0.1805
 1978TIP3    H227426   6.177   2.242  12.564  0.3023 -1.7288 -0.7229
 1979TIP3   OH227427   5.590   5.139  12.174 -0.0697 -0.5581  0.3603
 1979TIP3    H127428   5.624   5.150  12.263 -0.7785 -0.9284  0.6884
 1979TIP3    H227429   5.562   5.048  12.170  0.0266 -0.5621 -0.2688
 1980TIP3   OH227430   6.173   1.500  11.104  0.0544  0.4904  0.3834
 1980TIP3    H127431   6.127   1.581  11.126 -0.3848  0.0269  1.2479
 1980TIP3    H227432   6.239   1.490  11.173 -0.9985 -0.7191  1.2773
 1981TIP3   OH227433   2.779   2.280   0.524  0.0267  0.2400  0.2506
 1981TIP3    H127434   2.802   2.366   0.487 -1.3232  0.5734  0.1255
 1981TIP3    H227435   2.850   2.222   0.495  2.1052  1.7019  2.0897
 1982TIP3   OH227436   1.114   2.290  13.793 -0.1536  0.3116 -0.2683
 1982TIP3    H127437   1.098   2.217  13.852  1.3998 -1.7753 -2.2613
 1982TIP3    H227438   1.102   2.368  13.847  2.7192 -1.4346  3.2879
 1983TIP3   OH227439   5.388   4.146  10.336  0.6731 -0.0407 -0.4287
 1983TIP3    H127440   5.384   4.060  10.380  0.0347  0.1316 -0.1360
 1983TIP3    H227441   5.297   4.175  10.333  1.0210  1.2892  0.7988
 1984TIP3   OH227442   2.802   2.991   0.278 -0.2147  0.2089 -0.0520
 1984TIP3    H127443   2.762   2.915   0.320 -0.0091  0.0187 -0.1994
 1984TIP3    H227444   2.835   3.044   0.351  0.5883 -0.3650  0.0106
 1985TIP3   OH227445   4.050   4.718  11.747  0.2994 -0.0792  0.1355
 1985TIP3    H127446   4.034   4.650  11.813  0.1392 -0.0183  0.1587
 1985TIP3    H227447   4.004   4.687  11.669  0.7165 -0.2869 -0.0322
 1986TIP3   OH227448   3.204   6.761   4.738 -0.4800 -0.4174  0.7085
 1986TIP3    H127449   3.110   6.776   4.749 -0.2366  0.1449  2.1958
 1986TIP3    H227450   3.210   6.683   4.682 -1.8035  0.9400 -1.4534
 1987TIP3   OH227451   2.629   2.326  11.034 -0.2814 -0.3043 -0.4097
 1987TIP3    H127452   2.714   2.293  11.064 -0.3981 -1.3101 -1.1319
 1987TIP3    H227453   2.639   2.421  11.035  1.1806 -0.4086 -1.3523
 1988TIP3   OH227454   1.085   4.682   4.188  0.2036 -0.0888 -0.8441
 1988TIP3    H127455   1.002   4.728   4.176  0.3457 -0.1534 -2.2412
 1988TIP3    H227456   1.143   4.747   4.227 -0.4074  0.0509 -0.1535
 1989TIP3   OH227457   4.060   4.509   0.309 -0.0407  0.3828 -0.1445
 1989TIP3    H127458   4.006   4.441   0.268 -0.0774  0.8321 -0.8493
 1989TIP3    H227459   4.148   4.495   0.275 -0.3370  1.6277 -1.5229
 1990TIP3   OH227460   2.966   6.811   4.051 -0.0081 -0.0711 -0.0300
 1990TIP3    H127461   2.976   6.716   4.042 -3.7152 -0.5434 -0.5556
 1990TIP3    H227462   2.908   6.822   4.127  0.0693  1.7523 -0.1906
 1991TIP3   OH227463   2.675   0.499  14.846  0.7201  1.1707  0.1625
 1991TIP3    H127464   2.697   0.592  14.840  2.3748  0.9265  1.6595
 1991TIP3    H227465   2.709   0.472  14.931 -1.3106 -0.4232  0.5457
 1992TIP3   OH227466   1.987   0.826   3.691  0.7425  0.2604 -0.2553
 1992TIP3    H127467   1.947   0.741   3.670 -1.7955  0.4511  3.0532
 1992TIP3    H227468   1.912   0.885   3.700  2.2909  2.2465  0.0892
 1993TIP3   OH227469   2.736   3.307   5.504  0.1117  0.4191 -0.1209
 1993TIP3    H127470   2.660   3.251   5.488  1.2269 -0.7641 -1.5457
 1993TIP3    H227471   2.772   3.275   5.588  0.0694 -0.2382 -0.3449
 1994TIP3   OH227472   5.968   1.187   4.622 -0.0753  0.1032  0.8042
 1994TIP3    H127473   5.909   1.122   4.583 -1.6387  2.1502 -0.4787
 1994TIP3    H227474   6.055   1.164   4.589 -0.9430  0.0286 -1.6230
 1995TIP3   OH227475   3.626   5.839  13.055 -0.4794  0.0753  0.1653
 1995TIP3    H127476   3.673   5.758  13.072  0.6900  0.9800  1.5357
 1995TIP3    H227477   3.535   5.812  13.040  0.0738 -1.5442 -0.5254
 1996TIP3   OH227478   5.436   6.417   5.607  0.0969 -0.3090  0.0785
 1996TIP3    H127479   5.368   6.397   5.672 -0.3767 -1.8508 -0.8436
 1996TIP3    H227480   5.494   6.479   5.651 -0.2712 -1.2186  1.9360
 1997TIP3   OH227481   0.860   2.607  14.172 -0.5007  0.2193  0.2683
 1997TIP3    H127482   0.842   2.588  14.079 -1.4945  1.7612  0.1113
 1997TIP3    H227483   0.901   2.527  14.205 -0.1518 -0.3766 -1.4930
 1998TIP3   OH227484   3.309   4.146   1.193 -0.1134  0.1318  0.1077
 1998TIP3    H127485   3.351   4.120   1.110  0.1779  2.1425 -0.4268
 1998TIP3    H227486   3.354   4.227   1.218 -0.9152  0.1196  1.7123
 1999TIP3   OH227487   0.820   5.949  16.264 -0.4262 -0.2565  0.1820
 1999TIP3    H127488   0.830   5.857  16.239  2.9708 -0.6676  2.4384
 1999TIP3    H227489   0.748   5.948  16.327  0.1722 -1.5820  0.9010
 2000TIP3   OH227490   6.799   5.893  13.323 -0.1241  0.8042  0.1012
 2000TIP3    H127491   6.850   5.973  13.314 -0.0866  0.8853  0.9109
 2000TIP3    H227492   6.711   5.923  13.345  0.1322  0.6264  1.4872
 2001TIP3   OH227493   0.096   4.266   6.107 -0.1511  0.9728  0.5343
 2001TIP3    H127494   0.100   4.191   6.047 -0.7011  0.5975  0.9636
 2001TIP3    H227495   0.188   4.292   6.118  0.0251  0.5102  0.1993
 2002TIP3   OH227496   3.946   6.098   4.961 -0.1993 -0.2044  0.0740
 2002TIP3    H127497   3.938   6.175   4.906  1.9921  1.7941  2.2719
 2002TIP3    H227498   4.020   6.049   4.925  0.0172  0.0841  0.1262
 2003TIP3   OH227499   0.468   2.223  16.015  0.6607 -0.2271  0.0670
 2003TIP3    H127500   0.393   2.181  15.973  0.4645 -0.3733  0.5556
 2003TIP3    H227501   0.430   2.295  16.065  1.1016  1.3044 -1.6894
 2004TIP3   OH227502   3.605   2.663   1.860  0.8293 -0.2924 -0.0404
 2004TIP3    H127503   3.653   2.699   1.935  3.0467 -0.4554 -1.2759
 2004TIP3    H227504   3.674   2.641   1.797 -0.8730 -1.3454 -1.6163
 2005TIP3   OH227505   3.257   4.335   0.542 -0.1661  0.0283  0.1831
 2005TIP3    H127506   3.314   4.310   0.615 -0.0366  0.0826  0.0998
 2005TIP3    H227507   3.254   4.430   0.545 -0.5096  0.0104  0.3843
 2006TIP3   OH227508   5.992   0.320   6.415  0.0198  0.6619  0.2211
 2006TIP3    H127509   6.070   0.307   6.470 -0.6520 -0.1616  1.0110
 2006TIP3    H227510   5.958   0.232   6.399 -1.2281  1.0479  0.6129
 2007TIP3   OH227511   5.649   4.464   0.737 -0.2005 -0.4228 -0.0718
 2007TIP3    H127512   5.607   4.520   0.671 -1.1035 -1.4133 -0.3699
 2007TIP3    H227513   5.742   4.464   0.713  0.0271  1.8005  0.5937
 2008TIP3   OH227514   1.534   0.941  15.565 -0.3551  0.6057  0.3189
 2008TIP3    H127515   1.517   0.968  15.655 -0.1530  0.9892  0.2469
 2008TIP3    H227516   1.480   1.000  15.511 -3.0651 -1.6974  0.2713
 2009TIP3   OH227517   3.179   4.677   1.567  0.0235 -0.0668 -0.1481
 2009TIP3    H127518   3.122   4.637   1.633  2.2155 -2.2830  0.5539
 2009TIP3    H227519   3.195   4.607   1.504  3.6504 -0.3556  0.8504
 2010TIP3   OH227520   2.515   2.495  11.395  0.0863 -0.4126  1.1608
 2010TIP3    H127521   2.420   2.503  11.394  0.1388  0.3907  1.8818
 2010TIP3    H227522   2.531   2.401  11.404 -0.6117 -0.7050 -0.3832
 2011TIP3   OH227523   0.950   5.709  12.398 -0.5754 -0.7855  0.3705
 2011TIP3    H127524   0.867   5.741  12.363  0.9984  0.3064 -2.8616
 2011TIP3    H227525   0.961   5.624  12.356  0.2134 -0.6023  0.1901
 2012TIP3   OH227526   4.192   6.763  13.772  0.9789 -0.3392  0.1285
 2012TIP3    H127527   4.273   6.798  13.808  0.9025  1.6825 -1.4971
 2012TIP3    H227528   4.198   6.780  13.678 -0.2646 -2.4036 -0.3861
 2013TIP3   OH227529   1.220   0.745   3.655  0.5699  0.6811  0.1024
 2013TIP3    H127530   1.224   0.722   3.748 -0.7499 -4.2974 -0.7929
 2013TIP3    H227531   1.137   0.791   3.645 -1.0025 -1.7858  1.0125
 2014TIP3   OH227532   2.659   1.023  15.469 -0.1147  0.0008 -0.1889
 2014TIP3    H127533   2.750   1.004  15.490  0.3480  1.0667 -1.1048
 2014TIP3    H227534   2.617   1.038  15.554  0.3956 -1.1224  0.2807
 2015TIP3   OH227535   5.592   1.358   1.280 -0.6508  0.4554  0.1508
 2015TIP3    H127536   5.608   1.268   1.253 -1.5883  0.2228  0.3135
 2015TIP3    H227537   5.634   1.366   1.365 -2.4167 -0.5304  1.1748
 2016TIP3   OH227538   6.386   3.574   6.097 -0.3465  0.0467  0.0249
 2016TIP3    H127539   6.338   3.500   6.133 -0.0367 -0.0301  0.2802
 2016TIP3    H227540   6.463   3.582   6.152 -0.7863  1.0741  0.5116
 2017TIP3   OH227541   5.769   3.506  14.850  0.2760 -0.1609 -0.1617
 2017TIP3    H127542   5.799   3.511  14.941 -1.3127 -1.3402  0.4749
 2017TIP3    H227543   5.679   3.474  14.856 -0.7297  2.0152 -2.0313
 2018TIP3   OH227544   6.703   2.050   4.044 -0.0736  0.5854  0.3855
 2018TIP3    H127545   6.669   1.983   3.984 -0.9730  2.3694 -1.2057
 2018TIP3    H227546   6.681   2.018   4.131  0.4213 -1.6441 -0.2397
 2019TIP3   OH227547   4.037   3.646   1.175  0.2828 -0.1173  0.0645
 2019TIP3    H127548   3.981   3.642   1.098 -1.1218  3.2513  0.7053
 2019TIP3    H227549   3.977   3.634   1.249  1.6730 -3.7729  0.7666
 2020TIP3   OH227550   1.325   4.155  13.659  0.0353 -0.3171 -0.1254
 2020TIP3    H127551   1.378   4.227  13.624 -0.1434 -0.7176 -1.2581
 2020TIP3    H227552   1.350   4.079  13.608 -0.7124 -0.7914  0.1855
 2021TIP3   OH227553   6.692   1.248   1.236 -0.7527 -0.0338 -0.7545
 2021TIP3    H127554   6.654   1.236   1.323  1.2759 -2.2604 -0.0650
 2021TIP3    H227555   6.619   1.279   1.182 -2.1977  0.9002  1.5801
 2022TIP3   OH227556   2.689   0.787  14.795  0.5819  0.3541  0.5308
 2022TIP3    H127557   2.729   0.840  14.864  0.4161 -0.3060  1.1529
 2022TIP3    H227558   2.596   0.807  14.800  0.6214  0.6194  0.2153
 2023TIP3   OH227559   3.063   4.207  12.162  0.3290 -0.1774  0.1152
 2023TIP3    H127560   3.098   4.264  12.094  0.1245  0.1425  0.2806
 2023TIP3    H227561   3.141   4.180  12.212  0.4577 -0.2716 -0.1345
 2024TIP3   OH227562   0.470   0.008   5.157  0.0024 -0.2393  0.1561
 2024TIP3    H127563   0.547   0.049   5.119  0.6140  0.1973  1.7682
 2024TIP3    H227564   0.406   0.079   5.165  0.1042 -0.1890  0.5228
 2025TIP3   OH227565   5.129   6.144  15.948  0.2179  0.1934  0.8267
 2025TIP3    H127566   5.106   6.091  15.872  1.4366 -1.1047  1.3210
 2025TIP3    H227567   5.071   6.115  16.017 -0.2370  0.6924  0.6599
 2026TIP3   OH227568   1.739   5.186   0.713  0.0150  0.3193  0.1216
 2026TIP3    H127569   1.824   5.179   0.671 -0.5976 -1.6673 -0.9557
 2026TIP3    H227570   1.680   5.213   0.643 -0.5314 -0.0957  0.4128
 2027TIP3   OH227571   0.917   3.185   1.358  0.1639 -0.1033 -0.7052
 2027TIP3    H127572   1.009   3.170   1.377 -0.1087 -0.4362  0.4377
 2027TIP3    H227573   0.877   3.199   1.444 -0.2333  3.9259 -1.3497
 2028TIP3   OH227574   3.411   3.054  13.552 -0.4738  0.2228 -0.4080
 2028TIP3    H127575   3.464   3.109  13.494 -1.6822  0.4380 -1.3385
 2028TIP3    H227576   3.374   3.114  13.616  2.0200 -0.1919  1.6064
 2029TIP3   OH227577   6.614   6.746  11.793 -0.2657  0.1846 -0.5981
 2029TIP3    H127578   6.561   6.666  11.794  1.2593 -0.8669  0.7517
 2029TIP3    H227579   6.596   6.788  11.877  0.4912  0.1680 -0.4187
 2030TIP3   OH227580   1.230   6.798  11.629  0.0556  0.2859  0.2082
 2030TIP3    H127581   1.146   6.842  11.633  0.4988  1.1276  0.5853
 2030TIP3    H227582   1.288   6.861  11.585 -0.1211 -1.3039 -2.5549
 2031TIP3   OH227583   6.468   3.159   3.893 -0.3248 -0.8576  0.0088
 2031TIP3    H127584   6.382   3.137   3.856 -0.4235 -0.1729 -0.1730
 2031TIP3    H227585   6.488   3.085   3.951 -1.1689 -0.8754  0.2935
 2032TIP3   OH227586   6.516   3.378   4.163  0.1010  0.3989  0.7788
 2032TIP3    H127587   6.593   3.321   4.168 -1.5300 -2.1340 -0.9602
 2032TIP3    H227588   6.506   3.398   4.070 -2.7798 -1.6314  0.5092
 2033TIP3   OH227589   5.856   2.363  12.026  0.2449  0.2161 -0.2056
 2033TIP3    H127590   5.826   2.433  12.084  1.3263 -0.0081  0.6526
 2033TIP3    H227591   5.813   2.284  12.059 -0.2506  0.3095 -0.6063
 2034TIP3   OH227592   4.587   2.630   3.367 -0.5866  0.1010 -0.3349
 2034TIP3    H127593   4.540   2.649   3.448  0.2230 -1.6071  0.5884
 2034TIP3    H227594   4.565   2.539   3.346  2.9593 -1.2006  0.7329
 2035TIP3   OH227595   6.352   1.077   6.530 -0.3766 -0.0249  0.2990
 2035TIP3    H127596   6.328   1.169   6.517  1.1114  0.4411  0.6985
 2035TIP3    H227597   6.285   1.043   6.591 -1.3466  0.5798 -0.4092
 2036TIP3   OH227598   3.457   5.384  12.623 -0.6598 -0.0247 -0.5372
 2036TIP3    H127599   3.399   5.457  12.643 -1.1472 -0.6401  0.3919
 2036TIP3    H227600   3.414   5.338  12.551 -0.6767  0.2337 -0.6938
 2037TIP3   OH227601   6.163   6.367   1.516 -0.2350 -0.1344  0.4616
 2037TIP3    H127602   6.095   6.352   1.581 -1.1714 -0.1085 -0.4924
 2037TIP3    H227603   6.157   6.461   1.496  0.1513 -0.1096  0.4468
 2038TIP3   OH227604   5.725   5.148   5.181  0.1587 -0.1252 -0.1907
 2038TIP3    H127605   5.768   5.228   5.150  1.6005 -1.1332 -0.8600
 2038TIP3    H227606   5.661   5.127   5.114  0.6156 -0.1887 -0.6096
 2039TIP3   OH227607   5.933   4.209  13.377 -0.2475  0.1384  0.4296
 2039TIP3    H127608   5.973   4.183  13.294 -0.9241 -2.6645  0.9129
 2039TIP3    H227609   5.995   4.179  13.443  0.2884  2.3603  1.0394
 2040TIP3   OH227610   5.070   3.758  15.051 -0.0344  0.0795 -0.5563
 2040TIP3    H127611   5.054   3.688  15.114  0.3664 -0.7294 -1.3244
 2040TIP3    H227612   5.055   3.718  14.965 -0.2304  1.0577 -0.9997
 2041TIP3   OH227613   0.346   5.976   1.761  0.2994 -0.0037  0.4478
 2041TIP3    H127614   0.301   5.978   1.845 -2.9527 -2.1249 -1.0155
 2041TIP3    H227615   0.312   6.053   1.714  0.7065  0.1706  0.4360
 2042TIP3   OH227616   4.317   6.377  11.800 -0.1739 -0.9985  0.1570
 2042TIP3    H127617   4.316   6.362  11.705  0.1873 -1.1005  0.1703
 2042TIP3    H227618   4.373   6.454  11.812  0.2509 -1.3320  0.3373
 2043TIP3   OH227619   4.639   4.526   6.018 -0.1666  0.1811 -0.0292
 2043TIP3    H127620   4.700   4.533   6.091  0.6817  0.2773 -0.7238
 2043TIP3    H227621   4.656   4.604   5.965 -1.8376  0.9024  0.4397
 2044TIP3   OH227622   5.775   6.675   1.019  0.5724  0.5825 -0.5880
 2044TIP3    H127623   5.807   6.726   1.093  0.8638 -1.0836  0.5095
 2044TIP3    H227624   5.845   6.613   1.001 -0.8963 -1.4134  0.1440
 2045TIP3   OH227625   2.509   1.184  12.719 -0.0331  0.6154 -0.1611
 2045TIP3    H127626   2.566   1.260  12.723 -1.5002  1.8047 -0.8884
 2045TIP3    H227627   2.543   1.124  12.786  2.9161  0.6195 -1.5208
 2046TIP3   OH227628   0.680   4.807  14.469  0.6079  0.1236 -0.6914
 2046TIP3    H127629   0.675   4.831  14.561  2.0433  2.1596 -1.0680
 2046TIP3    H227630   0.609   4.744  14.456 -0.3527  0.6604  1.5316
 2047TIP3   OH227631   5.124   0.374   5.273  0.0447 -0.3871 -0.3767
 2047TIP3    H127632   5.126   0.469   5.290  1.1376 -0.4841  0.1350
 2047TIP3    H227633   5.040   0.359   5.231  0.0017  0.8767 -0.7927
 2048TIP3   OH227634   1.075   5.965   4.316  0.7139  0.4290  0.4266
 2048TIP3    H127635   1.103   5.874   4.327 -0.0523 -0.0818 -1.4572
 2048TIP3    H227636   0.989   5.969   4.359  0.1496 -0.1074 -0.6301
 2049TIP3   OH227637   6.447   4.253  13.865  0.1152 -0.2741  0.6385
 2049TIP3    H127638   6.388   4.203  13.920  0.2019 -0.4596  0.5662
 2049TIP3    H227639   6.439   4.213  13.778  0.4289 -0.3767  0.6534
 2050TIP3   OH227640   0.241   3.602   5.398  0.0063  0.7961 -0.0615
 2050TIP3    H127641   0.286   3.576   5.317 -0.3671  0.4380 -0.1547
 2050TIP3    H227642   0.174   3.536   5.410 -1.1982  1.9023 -0.4836
 2051TIP3   OH227643   2.374   6.100   1.856  0.3157  0.1970  0.4933
 2051TIP3    H127644   2.347   6.024   1.805  0.7446  0.6341 -0.4229
 2051TIP3    H227645   2.366   6.073   1.947  1.4656 -1.3041  0.1912
 2052TIP3   OH227646   6.533   6.323  15.576 -0.1134 -0.1143  0.2654
 2052TIP3    H127647   6.507   6.275  15.497 -0.7252 -0.0932  0.4566
 2052TIP3    H227648   6.465   6.389  15.588 -0.8622 -1.1054  1.6850
 2053TIP3   OH227649   3.998   0.965   3.651  0.3089  0.0825 -0.2121
 2053TIP3    H127650   3.994   0.869   3.652  0.7078  0.0701  0.2695
 2053TIP3    H227651   3.982   0.988   3.560  0.0166 -0.4356 -0.2969
 2054TIP3   OH227652   1.341   3.955  13.453 -0.2629 -0.3024  0.6713
 2054TIP3    H127653   1.311   3.875  13.496 -2.2636  0.3572  0.6094
 2054TIP3    H227654   1.331   3.937  13.360  0.3587 -0.3609  0.6123
 2055TIP3   OH227655   5.394   2.498  10.417  0.7435 -0.2471 -0.2865
 2055TIP3    H127656   5.322   2.552  10.452 -1.3114 -2.7199 -0.4697
 2055TIP3    H227657   5.446   2.476  10.494 -1.0185 -1.6999  0.5431
 2056TIP3   OH227658   0.285   6.530  12.054  0.1476  0.4761 -0.1859
 2056TIP3    H127659   0.191   6.509  12.052  0.1160  0.5644  0.2359
 2056TIP3    H227660   0.329   6.445  12.044  0.0202  0.3007  0.6675
 2057TIP3   OH227661   1.398   3.289   4.984  0.1632  0.4614 -0.3383
 2057TIP3    H127662   1.454   3.231   4.932 -0.8210 -0.2491 -0.6177
 2057TIP3    H227663   1.408   3.375   4.943  0.1821  0.1140 -1.0740
 2058TIP3   OH227664   3.475   5.531   5.024  0.3205  0.0720 -0.3220
 2058TIP3    H127665   3.483   5.535   5.119 -1.9150  1.4157 -0.1233
 2058TIP3    H227666   3.468   5.438   5.004 -0.2272 -0.1778  0.9540
 2059TIP3   OH227667   1.920   1.770  12.148 -0.1637  0.4154 -0.5721
 2059TIP3    H127668   1.828   1.791  12.165 -0.2100 -0.0807 -0.1792
 2059TIP3    H227669   1.917   1.700  12.082 -0.1571 -1.0828  0.9553
 2060TIP3   OH227670   1.513   3.134   4.510 -0.3908 -0.7874  0.4759
 2060TIP3    H127671   1.588   3.089   4.472  0.5400  0.4748  0.7705
 2060TIP3    H227672   1.498   3.209   4.453 -2.8166 -2.1354 -0.8320
 2061TIP3   OH227673   4.404   1.898  15.660  0.0671 -0.4111 -0.5763
 2061TIP3    H127674   4.432   1.909  15.751 -0.7421  0.4034 -0.4188
 2061TIP3    H227675   4.344   1.970  15.644  1.7126  0.6339 -2.3930
 2062TIP3   OH227676   5.546   2.395  13.065 -0.1203  0.9360  0.3085
 2062TIP3    H127677   5.605   2.325  13.036  0.8151  2.0120 -0.4677
 2062TIP3    H227678   5.518   2.367  13.152  0.7773 -0.0761  0.3051
 2063TIP3   OH227679   3.559   4.274  12.073 -0.3149  0.8480  0.4097
 2063TIP3    H127680   3.597   4.358  12.101 -0.6469  1.1614 -0.0685
 2063TIP3    H227681   3.634   4.215  12.065  0.1541  1.6182 -1.0964
 2064TIP3   OH227682   5.968   0.547  13.530 -0.0210  0.9329 -0.3643
 2064TIP3    H127683   5.991   0.482  13.596 -1.7628 -1.9819 -2.4046
 2064TIP3    H227684   6.050   0.566  13.485 -0.0810 -4.3400 -3.3758
 2065TIP3   OH227685   1.109   6.653   2.057  0.3487  0.1358  0.0290
 2065TIP3    H127686   1.051   6.647   1.982  0.2023 -0.1124  0.1592
 2065TIP3    H227687   1.052   6.638   2.133  0.2999  1.4109  0.2673
 2066TIP3   OH227688   6.784   6.303  15.840  0.3610 -0.4231 -0.7032
 2066TIP3    H127689   6.829   6.258  15.912  0.1651  0.1380 -0.2257
 2066TIP3    H227690   6.709   6.347  15.881 -1.0174 -1.8524 -1.5761
 2067TIP3   OH227691   4.190   5.580   3.146 -0.2944  0.3417 -0.0574
 2067TIP3    H127692   4.219   5.670   3.157  0.0241  0.2146  0.1756
 2067TIP3    H227693   4.095   5.583   3.163 -0.0371  0.3734  1.5673
 2068TIP3   OH227694   2.810   3.628  11.888 -0.1609 -0.0858  0.8067
 2068TIP3    H127695   2.804   3.549  11.835 -1.5709  0.0633  0.7054
 2068TIP3    H227696   2.895   3.621  11.931  0.0338 -1.3168  0.2814
 2069TIP3   OH227697   4.564   1.883   4.733 -0.3834  0.7290 -0.2426
 2069TIP3    H127698   4.568   1.967   4.687 -1.8026  1.9261  1.6913
 2069TIP3    H227699   4.472   1.856   4.726  0.3290 -1.5894 -2.2529
 2070TIP3   OH227700   0.908   2.038  11.984 -0.2005 -0.3324 -0.0873
 2070TIP3    H127701   0.905   2.133  11.996  0.5309 -0.5274  1.9986
 2070TIP3    H227702   0.822   2.007  12.012  0.4232 -0.4811  1.8027
 2071TIP3   OH227703   1.773   0.878   0.649 -0.2071 -0.2877  0.1731
 2071TIP3    H127704   1.840   0.915   0.591  0.7705 -0.1397  1.3603
 2071TIP3    H227705   1.717   0.951   0.671  1.1811  0.3697  1.7694
 2072TIP3   OH227706   3.041   4.348   3.657 -0.4590 -0.3660  0.1876
 2072TIP3    H127707   3.041   4.252   3.661  0.4388 -0.3963 -0.4194
 2072TIP3    H227708   3.105   4.370   3.591  1.5249  0.7492  2.3330
 2073TIP3   OH227709   4.843   5.491   0.442  0.3484  0.3418  0.2139
 2073TIP3    H127710   4.913   5.509   0.380  1.3666  0.2133  1.3063
 2073TIP3    H227711   4.764   5.482   0.387  1.0883  0.9495 -0.9746
 2074TIP3   OH227712   1.400   2.868  14.073  0.3483 -0.1417 -0.5773
 2074TIP3    H127713   1.432   2.875  13.983  0.3587 -0.4482 -0.5971
 2074TIP3    H227714   1.310   2.838  14.064  1.2302 -3.1083 -0.4049
 2075TIP3   OH227715   3.884   0.657   1.880 -0.5061  0.0702  0.0585
 2075TIP3    H127716   3.867   0.566   1.904 -1.3790  0.5874  1.5486
 2075TIP3    H227717   3.977   0.670   1.900 -0.5639 -0.2861  0.5814
 2076TIP3   OH227718   2.040   4.365  12.724 -0.1269  0.1977  0.3724
 2076TIP3    H127719   1.985   4.393  12.651  0.2068 -0.4904 -0.1486
 2076TIP3    H227720   2.005   4.412  12.800 -0.3377  1.0789 -0.2659
 2077TIP3   OH227721   5.079   6.312   5.266  0.0904  0.0322  0.0681
 2077TIP3    H127722   5.071   6.248   5.195  1.2187  0.7246 -0.7186
 2077TIP3    H227723   5.167   6.348   5.256 -0.1853  1.0472  1.0647
 2078TIP3   OH227724   2.501   4.648   5.409  0.3651 -0.1929 -0.3160
 2078TIP3    H127725   2.421   4.609   5.373  0.5447  0.3837 -1.3643
 2078TIP3    H227726   2.515   4.728   5.358  0.1129  1.1839  1.6777
 2079TIP3   OH227727   0.316   6.261   4.256  0.4718  0.3980 -0.2440
 2079TIP3    H127728   0.275   6.193   4.309  2.6900 -0.2977  0.7198
 2079TIP3    H227729   0.311   6.340   4.309  3.1149 -0.3963  1.4133
 2080TIP3   OH227730   0.086   1.388  15.927 -0.3507 -0.3052 -0.2444
 2080TIP3    H127731   0.043   1.308  15.897 -0.0044 -0.3147 -0.7156
 2080TIP3    H227732   0.174   1.360  15.952 -0.3787 -0.1525  0.0390
 2081TIP3   OH227733   5.431   5.586   1.124  0.7252  0.3298 -0.3394
 2081TIP3    H127734   5.452   5.552   1.211  2.8538 -0.2567 -1.0354
 2081TIP3    H227735   5.361   5.650   1.140  0.9543  0.1295  1.7745
 2082TIP3   OH227736   1.500   0.255   5.421  0.0987 -0.6623  0.0756
 2082TIP3    H127737   1.432   0.187   5.427  0.9484 -1.4998  0.3577
 2082TIP3    H227738   1.568   0.226   5.482 -0.0783  1.1135  1.2077
 2083TIP3   OH227739   1.398   1.554   5.486  0.4334 -0.9782 -0.5890
 2083TIP3    H127740   1.450   1.542   5.566 -0.8228 -0.5967  0.3075
 2083TIP3    H227741   1.430   1.485   5.427  2.8247 -0.0031 -0.5684
 2084TIP3   OH227742   4.714   4.033  13.822 -0.5214 -0.0193  0.0178
 2084TIP3    H127743   4.750   3.950  13.853  0.8270  1.3089  2.3443
 2084TIP3    H227744   4.761   4.051  13.741  0.4672 -0.7070  0.4151
 2085TIP3   OH227745   1.905   6.040  16.773  0.4048  0.4302  0.6203
 2085TIP3    H127746   1.967   6.024  16.702  0.6900  1.1307  0.7027
 2085TIP3    H227747   1.938   5.987  16.846  1.0601  0.9780  0.7393
 2086TIP3   OH227748   2.498   2.745   5.886 -0.2393  0.5337 -0.4489
 2086TIP3    H127749   2.441   2.722   5.813  1.5813 -1.6178 -1.3123
 2086TIP3    H227750   2.456   2.706   5.962 -0.0380 -0.9647 -1.0649
 2087TIP3   OH227751   5.302   2.260  10.650  0.0598 -0.4626 -0.4002
 2087TIP3    H127752   5.232   2.323  10.631 -0.8166 -0.6036  1.9845
 2087TIP3    H227753   5.350   2.300  10.722 -0.1731 -2.2452  0.7930
 2088TIP3   OH227754   1.909   1.471   1.454 -0.0303 -0.0344  0.2579
 2088TIP3    H127755   1.929   1.401   1.515  0.6281  0.5568  0.7452
 2088TIP3    H227756   1.966   1.543   1.481 -0.1559  0.4390 -0.6867
 2089TIP3   OH227757   4.368   4.112   3.923  0.5856  0.1742 -0.0646
 2089TIP3    H127758   4.401   4.031   3.964  0.3530  0.0630 -0.0980
 2089TIP3    H227759   4.281   4.125   3.961 -0.5870 -1.1321 -2.1262
 2090TIP3   OH227760   5.073   1.153  10.766  0.2962 -0.4162 -0.0861
 2090TIP3    H127761   5.112   1.237  10.791  0.7692 -0.6234 -0.1080
 2090TIP3    H227762   4.989   1.176  10.727  0.7703  0.1121 -0.8319
 2091TIP3   OH227763   3.285   3.195   2.115 -0.1696 -0.2461 -0.0049
 2091TIP3    H127764   3.367   3.193   2.065  1.1640 -1.1978  2.0568
 2091TIP3    H227765   3.301   3.259   2.184 -0.7717 -1.1147  0.9766
 2092TIP3   OH227766   2.408   3.373   0.800  0.5287 -0.0068  0.1401
 2092TIP3    H127767   2.327   3.340   0.839  0.5648  0.4541  0.6228
 2092TIP3    H227768   2.413   3.331   0.714 -1.3275  1.6082 -0.7998
 2093TIP3   OH227769   1.510   4.318   1.770 -0.6491  0.3299 -0.2477
 2093TIP3    H127770   1.524   4.230   1.806  0.5630  1.4739  2.3211
 2093TIP3    H227771   1.568   4.322   1.694  1.5648 -0.1610  1.3373
 2094TIP3   OH227772   0.013   0.624   2.339 -0.1997  0.1703  0.0698
 2094TIP3    H127773   0.016   0.714   2.372 -1.0355  1.1013 -2.1960
 2094TIP3    H227774  -0.060   0.583   2.387 -1.7558  1.6380 -0.9480
 2095TIP3   OH227775   4.553   2.217  16.754 -0.5109  0.6959 -0.6716
 2095TIP3    H127776   4.477   2.172  16.791  0.2183  0.5432  0.7191
 2095TIP3    H227777   4.524   2.307  16.740 -1.0562  0.5484 -0.4927
 2096TIP3   OH227778   0.860   1.821   0.289 -0.1664  0.8856 -0.1143
 2096TIP3    H127779   0.849   1.751   0.224 -0.4576  1.2229 -0.4295
 2096TIP3    H227780   0.784   1.812   0.347 -0.7051  1.5304 -0.7114
 2097TIP3   OH227781   3.218   3.837   5.551 -0.2514  0.0279 -0.7310
 2097TIP3    H127782   3.260   3.790   5.623 -0.7784 -0.6197 -0.8434
 2097TIP3    H227783   3.142   3.784   5.528 -0.3515  0.4730 -1.4587
 2098TIP3   OH227784   3.678   4.767   1.327  0.0241 -0.0572  0.1827
 2098TIP3    H127785   3.765   4.792   1.358 -0.3027  0.7108  0.5197
 2098TIP3    H227786   3.675   4.672   1.339  1.7529 -0.5374 -2.2776
 2099TIP3   OH227787   5.973   4.543   2.961  0.6816  0.0576  0.4971
 2099TIP3    H127788   6.014   4.566   2.877  2.6135  2.6426  2.0182
 2099TIP3    H227789   5.880   4.535   2.941  1.0139  1.1502 -1.7995
 2100TIP3   OH227790   0.497   3.471  14.904 -0.5471 -0.0646  0.1383
 2100TIP3    H127791   0.498   3.375  14.902  0.4362 -0.0757  0.5240
 2100TIP3    H227792   0.488   3.493  14.997 -0.3372  0.2189  0.0930
 2101TIP3   OH227793   0.983   4.515  16.279  0.2503  0.6277  0.3179
 2101TIP3    H127794   0.940   4.441  16.236 -1.4519  1.7121  0.0752
 2101TIP3    H227795   1.057   4.537  16.222  0.7076 -0.7711  0.3315
 2102TIP3   OH227796   4.643   5.150  12.347 -0.0252 -0.1368  0.0775
 2102TIP3    H127797   4.663   5.236  12.383  0.6731 -0.2393 -0.0408
 2102TIP3    H227798   4.555   5.158  12.312  1.4110  1.7782 -3.6242
 2103TIP3   OH227799   4.704   6.283  14.021 -0.6814 -0.2141  0.1911
 2103TIP3    H127800   4.647   6.209  14.040  1.4243 -2.1632 -0.4900
 2103TIP3    H227801   4.756   6.254  13.946 -0.6494  2.5201 -0.9668
 2104TIP3   OH227802   3.119   1.846  15.174  0.2056  0.2765 -0.5154
 2104TIP3    H127803   3.206   1.886  15.171 -0.5066  1.8735 -1.1867
 2104TIP3    H227804   3.087   1.853  15.084 -0.8350  0.2199 -0.1599
 2105TIP3   OH227805   3.825   4.810  15.592 -0.0713  0.0898 -0.0539
 2105TIP3    H127806   3.862   4.884  15.544  1.1311  0.4712  1.4042
 2105TIP3    H227807   3.737   4.838  15.616  0.2271  0.8914  0.1214
 2106TIP3   OH227808   2.619   6.638   1.015 -0.0680 -0.1925 -0.0246
 2106TIP3    H127809   2.564   6.716   1.009  1.2105  0.7183 -0.2826
 2106TIP3    H227810   2.700   6.669   1.056  1.0728 -1.0298 -1.5379
 2107TIP3   OH227811   1.223   2.948  14.972  0.3945  0.0699  0.1834
 2107TIP3    H127812   1.226   3.022  14.911  2.9226  0.0144  0.0960
 2107TIP3    H227813   1.231   2.871  14.916  2.8140  0.0211  0.4575
 2108TIP3   OH227814   3.623   2.729  14.395 -0.2890  0.0821  0.3430
 2108TIP3    H127815   3.572   2.655  14.361 -1.0567  0.6163  0.3070
 2108TIP3    H227816   3.565   2.772  14.457 -1.0971  2.4642 -1.8625
 2109TIP3   OH227817   3.180   2.507  13.254  0.3635  0.0811  0.6534
 2109TIP3    H127818   3.220   2.582  13.298 -0.0994  0.8734 -0.2429
 2109TIP3    H227819   3.250   2.472  13.198  0.8540 -0.7307  1.7445
 2110TIP3   OH227820   1.136   6.276  11.044 -0.0656  0.1029  0.1731
 2110TIP3    H127821   1.222   6.242  11.069  0.0891  2.6924  3.9625
 2110TIP3    H227822   1.154   6.354  10.992 -0.2152 -0.2288 -0.3922
 2111TIP3   OH227823   0.241   6.806  16.853 -1.0052 -0.0438 -0.1358
 2111TIP3    H127824   0.149   6.794  16.829 -0.3814  1.5928 -4.0839
 2111TIP3    H227825   0.289   6.791  16.772  2.1164  0.4798  1.4745
 2112TIP3   OH227826   5.741   0.882   3.739  0.5864 -0.2308 -0.0210
 2112TIP3    H127827   5.756   0.963   3.691 -1.5430  0.8199  0.9675
 2112TIP3    H227828   5.810   0.879   3.805  1.7425 -0.1760 -1.1911
 2113TIP3   OH227829   0.459   2.671  15.009  0.3568 -0.2553  0.1720
 2113TIP3    H127830   0.543   2.653  15.049  0.7437  0.5448 -0.2538
 2113TIP3    H227831   0.426   2.749  15.054  0.7660  0.6142 -0.9665
 2114TIP3   OH227832   5.073   4.353   1.836  0.2835 -0.8631  0.1270
 2114TIP3    H127833   5.136   4.312   1.895  1.2127 -2.3943 -1.8161
 2114TIP3    H227834   5.127   4.400   1.773 -0.6772  0.6472  0.3907
 2115TIP3   OH227835   6.491   4.574   1.730  0.5648 -0.0128  0.4910
 2115TIP3    H127836   6.464   4.665   1.740 -2.0389 -0.5058 -1.1997
 2115TIP3    H227837   6.462   4.549   1.643  3.3658 -1.8325 -0.0665
 2116TIP3   OH227838   0.283   6.569  14.502  0.1713  0.0189 -0.1597
 2116TIP3    H127839   0.199   6.615  14.499 -0.6751 -1.2895  1.2526
 2116TIP3    H227840   0.261   6.479  14.477  1.2997 -0.1722 -0.4950
 2117TIP3   OH227841   1.038   2.358   1.446 -0.1897 -0.5440 -0.2708
 2117TIP3    H127842   1.130   2.383   1.447  0.5003 -2.6410 -2.6200
 2117TIP3    H227843   1.032   2.285   1.508 -1.1605  1.8626  2.7161
 2118TIP3   OH227844   0.040   6.603  11.388 -0.5598  0.0189  0.3731
 2118TIP3    H127845  -0.054   6.610  11.400 -0.5684  2.3076 -0.5532
 2118TIP3    H227846   0.078   6.647  11.465 -0.2008 -1.0484  0.8360
 2119TIP3   OH227847   2.548   0.869   4.571  0.5030 -0.2630  0.3522
 2119TIP3    H127848   2.614   0.939   4.567 -1.3020  1.5249  0.1160
 2119TIP3    H227849   2.520   0.868   4.663 -1.3134  1.2204 -0.1180
 2120TIP3   OH227850   1.406   4.114   1.114  0.6641  0.2818  0.5738
 2120TIP3    H127851   1.408   4.049   1.044  0.6924 -1.4313  2.0864
 2120TIP3    H227852   1.369   4.192   1.074  0.3855 -0.7451 -1.2533
 2121TIP3   OH227853   1.265   5.702   6.107 -0.4637 -0.4887 -0.2632
 2121TIP3    H127854   1.289   5.665   6.022  0.6655  0.1540 -0.2441
 2121TIP3    H227855   1.176   5.672   6.122 -0.4398 -1.1610 -1.3691
 2122TIP3   OH227856   5.420   0.462  11.371 -0.2907  0.2350 -0.2178
 2122TIP3    H127857   5.399   0.418  11.453 -1.1325 -0.7650 -0.9287
 2122TIP3    H227858   5.506   0.502  11.385 -0.1466 -0.4558  0.9277
 2123TIP3   OH227859   0.266   2.014   0.660 -0.1123 -0.3028  0.2026
 2123TIP3    H127860   0.268   2.025   0.755 -1.5526  2.5140  0.0077
 2123TIP3    H227861   0.346   2.056   0.629  0.1534 -0.8570  0.1235
 2124TIP3   OH227862   4.572   2.589  11.116  0.8880 -0.1979  0.0454
 2124TIP3    H127863   4.612   2.521  11.170  2.2275  1.1442  0.8168
 2124TIP3    H227864   4.518   2.638  11.178 -0.0081 -0.4853 -0.4920
 2125TIP3   OH227865   2.193   3.621  16.833 -0.2443  0.0040 -0.0373
 2125TIP3    H127866   2.154   3.675  16.901 -0.6104  0.6738 -0.7700
 2125TIP3    H227867   2.259   3.676  16.792  0.8971 -0.8416  0.6346
 2126TIP3   OH227868   3.258   2.411   4.516  0.0541  0.2015  0.5445
 2126TIP3    H127869   3.172   2.371   4.530  0.5798 -0.0080  3.9942
 2126TIP3    H227870   3.239   2.503   4.500 -0.8361 -0.0508  0.0391
 2127TIP3   OH227871   0.585   4.906   2.685  0.2535  0.4974 -0.0066
 2127TIP3    H127872   0.618   4.994   2.669 -0.2251  0.4768 -1.1930
 2127TIP3    H227873   0.512   4.896   2.624 -1.1019  0.0582  1.6089
 2128TIP3   OH227874   2.062   4.658  12.069 -0.2262 -0.1458 -0.2187
 2128TIP3    H127875   2.101   4.745  12.081 -0.5338 -0.0549  0.1513
 2128TIP3    H227876   2.123   4.598  12.113  0.7290 -0.3066 -1.6817
 2129TIP3   OH227877   3.621   1.576   4.318  0.5783 -0.3308 -0.7294
 2129TIP3    H127878   3.632   1.485   4.343 -0.0108  0.3164  2.2669
 2129TIP3    H227879   3.527   1.591   4.321  0.6955  0.4737 -0.7811
 2130TIP3   OH227880   3.681   1.862   4.029 -0.4978  0.5211 -0.0633
 2130TIP3    H127881   3.615   1.792   4.032  0.6128 -0.5187  1.4314
 2130TIP3    H227882   3.763   1.818   4.050  0.4975  2.0135 -0.6811
 2131TIP3   OH227883   1.847   1.538   1.177  0.1275 -0.2621 -0.2595
 2131TIP3    H127884   1.854   1.627   1.142 -0.6056 -0.0074  0.2177
 2131TIP3    H227885   1.843   1.549   1.272 -1.7745 -0.6499 -0.2534
 2132TIP3   OH227886   4.045   5.567   4.609  0.2020 -0.1325 -0.2511
 2132TIP3    H127887   4.052   5.655   4.572  0.1056 -0.2073 -0.4504
 2132TIP3    H227888   3.954   5.541   4.594  0.1527 -0.1496  0.0729
 2133TIP3   OH227889   2.222   4.374  11.837 -0.4635  0.7743 -0.2418
 2133TIP3    H127890   2.240   4.454  11.787  1.5239 -0.6766 -1.9883
 2133TIP3    H227891   2.163   4.324  11.781  0.3090 -0.0535 -0.3379
 2134TIP3   OH227892   2.730   5.845  13.850  0.4892  0.2289 -0.4620
 2134TIP3    H127893   2.732   5.756  13.883  0.4126 -0.4370 -2.1442
 2134TIP3    H227894   2.821   5.874  13.853  0.2697  0.8686  1.9394
 2135TIP3   OH227895   5.544   0.555  13.435  0.3291  0.0244  0.4291
 2135TIP3    H127896   5.554   0.541  13.529 -0.5433  0.0134  0.5337
 2135TIP3    H227897   5.453   0.531  13.417  1.2038 -2.7577 -0.9251
 2136TIP3   OH227898   0.597   2.562   0.534 -0.3397 -0.4014 -0.1502
 2136TIP3    H127899   0.540   2.605   0.471  0.7522 -0.6313 -1.3391
 2136TIP3    H227900   0.658   2.511   0.481  1.1878  0.0925  1.0413
 2137TIP3   OH227901   6.766   6.236   3.704 -0.4947  0.1070 -0.6170
 2137TIP3    H127902   6.823   6.283   3.643  0.7760 -0.9755 -0.3039
 2137TIP3    H227903   6.714   6.305   3.746  0.3938  1.1080 -1.1108
 2138TIP3   OH227904   1.594   1.315   1.441  0.2728 -0.0578  0.3600
 2138TIP3    H127905   1.604   1.355   1.355 -2.0524  2.3182  1.0731
 2138TIP3    H227906   1.655   1.241   1.441  2.3991  1.5475 -2.2631
 2139TIP3   OH227907   4.103   0.610  14.357  0.2201  0.5482 -0.3129
 2139TIP3    H127908   4.142   0.586  14.273 -1.1549 -0.7935 -0.6061
 2139TIP3    H227909   4.093   0.705  14.352  0.6273  0.5516 -1.4582
 2140TIP3   OH227910   5.743   0.478   4.814 -0.6174 -0.6201 -0.0012
 2140TIP3    H127911   5.720   0.386   4.829 -1.2643 -0.6708 -1.2174
 2140TIP3    H227912   5.837   0.476   4.794 -0.5866 -0.9869  0.1594
 2141TIP3   OH227913   2.603   4.783  11.613 -0.1964 -0.5442 -0.0223
 2141TIP3    H127914   2.692   4.789  11.649 -0.4627  1.6097  0.4304
 2141TIP3    H227915   2.568   4.702  11.648  1.0540 -0.6330  1.0858
 2142TIP3   OH227916   5.310   0.604  16.547 -0.2268  0.0711 -0.4859
 2142TIP3    H127917   5.306   0.597  16.452 -1.0350  0.3076 -0.4756
 2142TIP3    H227918   5.224   0.574  16.577  0.7957 -2.3184  0.3304
 2143TIP3   OH227919   5.503   2.007  16.116  0.3592 -0.1080  0.6926
 2143TIP3    H127920   5.499   2.103  16.118  0.9473 -0.0864  1.8946
 2143TIP3    H227921   5.520   1.982  16.207 -3.5748 -1.5655  1.2170
 2144TIP3   OH227922   1.910   4.790  12.980 -0.3516  0.2405  0.0868
 2144TIP3    H127923   1.897   4.882  12.957  0.9058  0.0068 -1.7736
 2144TIP3    H227924   1.977   4.792  13.048  0.6449  0.6712 -0.8706
 2145TIP3   OH227925   5.819   1.335  16.731  0.2574 -0.3038 -0.2546
 2145TIP3    H127926   5.883   1.376  16.673  0.6424 -0.7526 -0.1547
 2145TIP3    H227927   5.860   1.335  16.817 -1.7369  3.6929  0.9201
 2146TIP3   OH227928   0.519   2.854  13.197  0.6542  0.3268 -0.2337
 2146TIP3    H127929   0.432   2.894  13.190  0.8495  0.7079 -0.5168
 2146TIP3    H227930   0.510   2.790  13.268 -0.2522 -0.6865 -1.2328
 2147TIP3   OH227931   6.154   2.525   0.704 -0.0790  0.3918 -0.1577
 2147TIP3    H127932   6.188   2.436   0.699  2.3575  1.2561 -0.1787
 2147TIP3    H227933   6.208   2.576   0.644  0.2871  2.3574  1.6940
 2148TIP3   OH227934   5.304   1.817  12.563 -0.7959  0.0249  0.1865
 2148TIP3    H127935   5.239   1.884  12.586 -1.4906 -1.1311  1.8358
 2148TIP3    H227936   5.253   1.737  12.551  0.2063 -0.6814  0.4754
 2149TIP3   OH227937   6.103   3.158  13.316  0.6307 -0.1608 -0.6776
 2149TIP3    H127938   6.019   3.128  13.352  0.5942 -1.6640 -1.8823
 2149TIP3    H227939   6.088   3.249  13.291  0.0334  0.2524  1.0865
 2150TIP3   OH227940   1.513   6.686   2.971 -1.1394 -0.0831  0.0241
 2150TIP3    H127941   1.503   6.706   3.064 -1.5618 -0.5435  0.0781
 2150TIP3    H227942   1.475   6.599   2.960  0.2981 -0.7026 -0.2865
 2151TIP3   OH227943   2.887   6.492   5.664 -0.2227 -0.1560 -0.5636
 2151TIP3    H127944   2.934   6.421   5.707 -1.2904 -0.6402 -0.1559
 2151TIP3    H227945   2.846   6.451   5.587 -0.7733  0.0288 -0.3743
 2152TIP3   OH227946   0.242   6.589   3.575  0.0930  0.2442  0.0302
 2152TIP3    H127947   0.323   6.551   3.541  0.0269 -0.4708  0.6403
 2152TIP3    H227948   0.173   6.542   3.528  0.0214  0.4202 -0.0408
 2153TIP3   OH227949   0.485   3.733   2.506  0.1779 -0.2416 -0.1639
 2153TIP3    H127950   0.558   3.708   2.450  0.0207 -2.8372  0.6607
 2153TIP3    H227951   0.434   3.653   2.516 -1.3008  0.8329  1.4651
 2154TIP3   OH227952   3.564   3.602  13.421  0.1385  0.2955 -0.3779
 2154TIP3    H127953   3.617   3.598  13.342  0.0241 -0.0742 -0.4374
 2154TIP3    H227954   3.549   3.511  13.445  2.4416  0.3441  1.6240
 2155TIP3   OH227955   2.010   3.595   3.133  0.2302 -0.3416  0.0667
 2155TIP3    H127956   1.954   3.526   3.169 -1.2551 -0.1770 -1.7717
 2155TIP3    H227957   2.013   3.661   3.203  0.7504 -1.7276  1.4083
 2156TIP3   OH227958   5.686   1.654   0.090 -0.7647  0.1742  0.6280
 2156TIP3    H127959   5.752   1.724   0.095 -0.6956  0.0829  1.0946
 2156TIP3    H227960   5.731   1.583   0.044 -0.2535 -0.1809  1.6393
 2157TIP3   OH227961   0.272   5.245   5.509  0.4955 -0.4075  0.3485
 2157TIP3    H127962   0.342   5.268   5.449  0.0390  0.1339  0.0121
 2157TIP3    H227963   0.300   5.281   5.593  0.5519 -0.0649  0.1840
 2158TIP3   OH227964   4.388   1.776  11.262  0.3385  0.0412 -0.4688
 2158TIP3    H127965   4.335   1.699  11.278 -0.6965  1.3410  4.0179
 2158TIP3    H227966   4.340   1.826  11.195 -2.7335 -0.1759  1.3697
 2159TIP3   OH227967   6.274   4.601   2.519 -0.0968  0.3856 -0.4481
 2159TIP3    H127968   6.333   4.526   2.510 -0.8952 -0.2898 -0.1351
 2159TIP3    H227969   6.333   4.676   2.527  0.7453 -0.3665  0.7093
 2160TIP3   OH227970   3.561   2.247  16.476 -0.0625  0.2490  0.0231
 2160TIP3    H127971   3.583   2.228  16.567  0.0456 -0.4236 -0.1366
 2160TIP3    H227972   3.643   2.238  16.428 -0.4331 -1.2130 -0.4078
 2161TIP3   OH227973   4.410   3.704   0.359  0.5542 -0.3066 -0.0480
 2161TIP3    H127974   4.503   3.724   0.357  0.4330  0.5754  1.5077
 2161TIP3    H227975   4.369   3.773   0.308  0.6028  0.4061  0.8580
 2162TIP3   OH227976   4.652   3.010  14.210  0.5749 -0.3987  0.0279
 2162TIP3    H127977   4.692   3.080  14.260 -0.9309 -0.2800  1.1189
 2162TIP3    H227978   4.643   3.045  14.121 -0.9549  1.1474  0.7531
 2163TIP3   OH227979   5.302   3.247   0.896  0.1763 -0.1262  0.6733
 2163TIP3    H127980   5.252   3.178   0.852 -0.4665  1.0008 -0.4305
 2163TIP3    H227981   5.253   3.264   0.977  0.7287 -1.4186  1.3087
 2164TIP3   OH227982   4.852   5.846  15.936 -0.0571 -0.3762 -0.0904
 2164TIP3    H127983   4.821   5.935  15.951 -0.6860 -0.5059 -0.6207
 2164TIP3    H227984   4.929   5.838  15.993 -0.8971 -0.0033  1.1350
 2165TIP3   OH227985   0.125   3.693   1.799  0.2788 -0.6159  0.5269
 2165TIP3    H127986   0.075   3.621   1.837 -1.8193  0.7829  0.6324
 2165TIP3    H227987   0.144   3.751   1.872 -1.0835  0.5782 -0.0145
 2166TIP3   OH227988   4.589   5.795   2.101 -0.2058  0.4173  0.1019
 2166TIP3    H127989   4.581   5.859   2.031  1.4591 -0.7382 -1.2268
 2166TIP3    H227990   4.517   5.815   2.160 -0.9750  2.1648 -1.3380
 2167TIP3   OH227991   6.170   4.111  15.779 -0.1848  0.2039 -0.1000
 2167TIP3    H127992   6.184   4.189  15.832  1.1479  1.0266 -1.6023
 2167TIP3    H227993   6.083   4.124  15.741 -0.0999  0.7923 -0.1008
 2168TIP3   OH227994   3.529   1.027  15.868 -0.2488 -0.0065 -0.1534
 2168TIP3    H127995   3.573   1.012  15.951 -1.7503 -0.4274  0.5922
 2168TIP3    H227996   3.449   1.074  15.891  1.1183  3.4506 -1.7603
 2169TIP3   OH227997   3.200   2.365  12.624  0.2120 -0.4370 -0.1046
 2169TIP3    H127998   3.154   2.282  12.619 -0.5899  0.0547 -1.5834
 2169TIP3    H227999   3.157   2.420  12.559  1.7829  0.5996 -0.3257
 2170TIP3   OH228000   5.703   1.251   1.877 -0.1176 -0.5617 -0.3766
 2170TIP3    H128001   5.712   1.248   1.782  3.0220 -0.9412 -0.1854
 2170TIP3    H228002   5.677   1.162   1.901 -0.6148 -0.5476 -0.8456
 2171TIP3   OH228003   2.748   2.397  13.173 -0.4174 -0.5368  0.0326
 2171TIP3    H128004   2.787   2.456  13.238  0.0245  1.8476 -2.2151
 2171TIP3    H228005   2.664   2.373  13.210 -0.6239  1.5560  1.1006
 2172TIP3   OH228006   2.097   6.408   4.698 -0.2722  0.6631 -0.3161
 2172TIP3    H128007   2.142   6.388   4.615  0.6424  2.0630 -0.2017
 2172TIP3    H228008   2.018   6.354   4.696  0.8257 -1.0175 -1.0650
 2173TIP3   OH228009   0.861   3.403   0.985  0.0833 -0.3386 -0.2903
 2173TIP3    H128010   0.930   3.468   0.973 -2.7805  2.4755 -3.6998
 2173TIP3    H228011   0.820   3.427   1.068  0.0683  1.2784 -0.7252
 2174TIP3   OH228012   6.186   5.390  16.904 -0.3622 -0.2351 -0.1318
 2174TIP3    H128013   6.109   5.371  16.852  0.1544  0.1330 -1.0529
 2174TIP3    H228014   6.214   5.305  16.938 -1.4240 -0.3116  0.5926
 2175TIP3   OH228015   4.752   0.883   0.174  0.3257  0.1014  0.0940
 2175TIP3    H128016   4.738   0.923   0.088 -0.2494  0.1566  0.2068
 2175TIP3    H228017   4.741   0.789   0.159 -0.9921  0.1917  0.3155
 2176TIP3   OH228018   4.024   3.413  12.009  0.2014  0.0768 -0.4077
 2176TIP3    H128019   4.118   3.416  12.030  0.2873 -0.1791 -0.7538
 2176TIP3    H228020   4.016   3.459  11.925 -0.1193  0.9375  0.0782
 2177TIP3   OH228021   6.265   4.895  15.981  0.6895  0.0394 -0.3922
 2177TIP3    H128022   6.346   4.846  15.994 -0.2652 -1.1526  1.3583
 2177TIP3    H228023   6.211   4.874  16.057 -0.7888  1.8039 -0.8818
 2178TIP3   OH228024   1.168   4.195  16.402 -0.0224  0.0088 -0.2228
 2178TIP3    H128025   1.084   4.151  16.410 -1.0091  1.3473 -2.3492
 2178TIP3    H228026   1.148   4.289  16.409  1.4777  0.3180  0.4439
 2179TIP3   OH228027   4.453   6.326  12.429 -0.2292 -0.7186 -0.0076
 2179TIP3    H128028   4.448   6.265  12.355 -2.2460 -0.9885  0.2708
 2179TIP3    H228029   4.481   6.272  12.502  1.6426 -0.4782 -0.4929
 2180TIP3   OH228030   2.502   0.423  13.567 -0.5275  0.1539 -0.3450
 2180TIP3    H128031   2.562   0.483  13.611  0.0370  0.8680 -2.0094
 2180TIP3    H228032   2.417   0.438  13.608  0.2423 -0.2552  1.4666
 2181TIP3   OH228033   1.303   0.769  13.627  0.0920 -0.2222 -0.0525
 2181TIP3    H128034   1.301   0.698  13.563  0.0866 -0.5689  0.3314
 2181TIP3    H228035   1.252   0.737  13.701  2.6336 -1.1230  1.4457
 2182TIP3   OH228036   1.842   6.771   0.265  0.0892 -0.1369  0.0479
 2182TIP3    H128037   1.873   6.789   0.176 -2.1022 -1.3822 -1.0685
 2182TIP3    H228038   1.878   6.685   0.286  0.2924 -0.0139  0.2022
 2183TIP3   OH228039   6.630   6.425  11.182 -0.0651  0.3334  0.3827
 2183TIP3    H128040   6.617   6.490  11.251  0.4453  1.4982 -0.5836
 2183TIP3    H228041   6.567   6.448  11.115 -0.1047 -0.3860  0.1584
 2184TIP3   OH228042   3.020   1.146   3.622 -0.0355 -0.2580 -0.2040
 2184TIP3    H128043   3.040   1.100   3.541 -1.6852 -1.1456 -0.1472
 2184TIP3    H228044   3.031   1.239   3.600  0.1447 -0.5125 -1.2546
 2185TIP3   OH228045   3.123   1.879   1.827  0.0823 -0.4318 -0.5079
 2185TIP3    H128046   3.041   1.928   1.817 -0.6249 -1.2505  0.9076
 2185TIP3    H228047   3.102   1.810   1.890  1.9029 -0.5633  0.0216
 2186TIP3   OH228048   2.655   6.244   4.344 -0.1316 -0.6995  0.2419
 2186TIP3    H128049   2.619   6.204   4.423 -0.7156 -2.0690 -0.6602
 2186TIP3    H228050   2.644   6.338   4.357  0.8578 -0.8074  2.2582
 2187TIP3   OH228051   2.115   4.918  15.531 -0.0980  0.2064  0.0197
 2187TIP3    H128052   2.137   4.972  15.607  0.8395  1.5025 -1.1009
 2187TIP3    H228053   2.161   4.835  15.546  1.1859  0.9357  0.2559
 2188TIP3   OH228054   1.059   2.008  15.870 -0.4887  0.1012  0.0411
 2188TIP3    H128055   1.129   1.997  15.805 -2.2915 -2.5567 -1.6500
 2188TIP3    H228056   1.003   1.931  15.858 -2.6387  1.1039  2.6748
 2189TIP3   OH228057   6.720   2.108   4.476 -0.6587 -0.2989  0.0825
 2189TIP3    H128058   6.767   2.042   4.424  0.0772  0.9025 -0.8532
 2189TIP3    H228059   6.787   2.144   4.534 -0.5978  0.8290 -0.6576
 2190TIP3   OH228060   0.122   4.846   3.369 -0.1234  0.3629 -0.2153
 2190TIP3    H128061   0.108   4.940   3.383 -1.9150  0.0549  0.2757
 2190TIP3    H228062   0.160   4.841   3.282  3.3608  1.7411  1.0220
 2191TIP3   OH228063   4.654   1.119  12.799  0.3714  0.0302  0.4512
 2191TIP3    H128064   4.716   1.191  12.816  0.6090 -0.0492 -0.0641
 2191TIP3    H228065   4.709   1.042  12.787  0.2519  0.1491 -1.0338
 2192TIP3   OH228066   1.453   3.044  16.420 -0.9107  0.4452 -0.4515
 2192TIP3    H128067   1.371   3.078  16.386 -0.8976 -0.9783 -2.1089
 2192TIP3    H228068   1.429   2.967  16.471 -0.6504  0.1383 -0.7774
 2193TIP3   OH228069   0.400   1.442   3.581 -0.7772 -0.9036  0.2853
 2193TIP3    H128070   0.439   1.416   3.665  0.6581 -1.3051 -0.4810
 2193TIP3    H228071   0.386   1.360   3.534 -3.9181 -0.9277  1.0407
 2194TIP3   OH228072   3.394   5.681   1.861 -0.1884  0.3516  1.0211
 2194TIP3    H128073   3.440   5.754   1.903  1.0957 -0.0698  0.3928
 2194TIP3    H228074   3.393   5.703   1.768  0.6715 -0.6574  0.7549
 2195TIP3   OH228075   6.094   2.709  12.235 -0.2300 -0.3498  0.3216
 2195TIP3    H128076   6.113   2.757  12.316 -2.0424  1.9783 -0.5417
 2195TIP3    H228077   6.031   2.642  12.261 -1.5895  1.0253  0.7424
 2196TIP3   OH228078   1.073   3.976   2.152 -0.4372  0.5247 -0.1114
 2196TIP3    H128079   1.165   3.972   2.128 -0.5059  0.6436 -0.3981
 2196TIP3    H228080   1.072   3.959   2.247 -0.1638  0.0787 -0.1864
 2197TIP3   OH228081   1.897   3.636   0.393 -0.1500 -0.2777  0.5026
 2197TIP3    H128082   1.923   3.553   0.433  0.8574 -0.7207 -0.9664
 2197TIP3    H228083   1.808   3.621   0.362 -0.6194 -0.2070  1.7862
 2198TIP3   OH228084   4.902   1.126  13.180  0.3595 -0.4345 -0.1636
 2198TIP3    H128085   4.888   1.195  13.244 -1.1900  0.3293 -1.2466
 2198TIP3    H228086   4.815   1.086  13.169  1.0457 -2.0263 -0.1777
 2199TIP3   OH228087   4.237   5.403  17.079 -0.1282  0.0583  0.6012
 2199TIP3    H128088   4.245   5.311  17.105 -1.6919 -0.4683 -0.6074
 2199TIP3    H228089   4.215   5.399  16.986  0.9659  1.7170  0.2272
 2200TIP3   OH228090   4.891   5.555   3.418 -0.7355  0.5193 -0.3985
 2200TIP3    H128091   4.845   5.567   3.335  0.9306 -0.8827 -1.6206
 2200TIP3    H228092   4.953   5.484   3.400  0.6113  1.0969  1.6596
 2201TIP3   OH228093   0.260   4.836  17.136  0.1611  0.2723  0.1877
 2201TIP3    H128094   0.256   4.768  17.069 -0.7895 -0.0832  0.5934
 2201TIP3    H228095   0.210   4.909  17.100 -0.9305 -0.1669  0.7672
 2202TIP3   OH228096   4.191   6.738  15.948 -0.4715  0.5898  0.1499
 2202TIP3    H128097   4.239   6.669  15.994  0.6252  0.1647 -1.5345
 2202TIP3    H228098   4.104   6.739  15.989 -0.2570 -1.2594  0.7097
 2203TIP3   OH228099   3.542   1.085   1.891 -0.0159 -0.2022  0.0650
 2203TIP3    H128100   3.470   1.101   1.953 -1.0428  2.0589 -1.5648
 2203TIP3    H228101   3.620   1.114   1.938 -0.8683  2.2398  0.1375
 2204TIP3   OH228102   4.855   0.897  11.308  0.8823  0.3162  0.2599
 2204TIP3    H128103   4.888   0.882  11.219  2.3127 -0.7611  0.9363
 2204TIP3    H228104   4.874   0.989  11.326  2.3007  0.0600  0.1233
 2205TIP3   OH228105   0.646   6.781   2.067  0.0275 -0.0727 -0.1171
 2205TIP3    H128106   0.611   6.698   2.036  0.2897 -0.7024  1.2156
 2205TIP3    H228107   0.575   6.821   2.117  0.0849  0.2571 -0.2912
 2206TIP3   OH228108   1.019   0.304   1.567 -0.3913 -0.5586 -0.0258
 2206TIP3    H128109   0.991   0.372   1.628 -2.6585  0.1645 -1.7267
 2206TIP3    H228110   0.999   0.222   1.612 -2.1475 -0.0401  0.1986
 2207TIP3   OH228111   4.109   1.709  15.801  0.0120  0.2802  0.4761
 2207TIP3    H128112   4.042   1.768  15.766  0.0163  1.1253  1.8300
 2207TIP3    H228113   4.094   1.626  15.755 -2.6947  0.0884  1.5291
 2208TIP3   OH228114   4.557   2.005   2.955  0.0411  0.5257 -0.2051
 2208TIP3    H128115   4.527   2.007   2.864  0.2650  2.3557 -0.2793
 2208TIP3    H228116   4.478   2.017   3.007  0.0585  0.6895 -0.2151
 2209TIP3   OH228117   6.742   4.098   0.459 -0.1913  0.0160 -0.1506
 2209TIP3    H128118   6.786   4.110   0.543  0.4967 -0.5337 -0.4288
 2209TIP3    H228119   6.672   4.035   0.477  0.7467 -1.0785 -0.2499
 2210TIP3   OH228120   2.274   3.036  16.032 -0.9056 -0.4647 -0.5816
 2210TIP3    H128121   2.272   2.971  16.102 -3.3871  0.9309  0.7748
 2210TIP3    H228122   2.346   3.008  15.976 -0.4213 -3.0627  1.1504
 2211TIP3   OH228123   4.750   2.847  10.307 -0.3865  0.0337  0.7810
 2211TIP3    H128124   4.817   2.806  10.361 -0.6233  0.1970  1.2058
 2211TIP3    H228125   4.759   2.807  10.221 -1.9205 -2.3933  1.6565
 2212TIP3   OH228126   0.331   1.721  13.693 -0.4810 -0.2833  0.8696
 2212TIP3    H128127   0.335   1.817  13.698  0.5617 -0.3281  1.2111
 2212TIP3    H228128   0.417   1.696  13.660 -1.6143 -0.9817 -1.7375
 2213TIP3   OH228129   3.188   4.531  15.159  0.0396 -0.2283  0.2059
 2213TIP3    H128130   3.150   4.444  15.153 -0.4377  0.0390 -0.9929
 2213TIP3    H228131   3.117   4.587  15.189 -0.8185  0.3953 -2.6917
 2214TIP3   OH228132   0.967   2.632   2.802 -0.0669 -0.1185  0.1271
 2214TIP3    H128133   0.980   2.661   2.892  2.0056 -1.5434  0.3404
 2214TIP3    H228134   0.894   2.570   2.807  1.2319 -1.6255  1.1940
 2215TIP3   OH228135   4.350   3.750   1.647 -0.4266  0.3298 -0.2697
 2215TIP3    H128136   4.371   3.658   1.631  0.2339  0.3242  0.5662
 2215TIP3    H228137   4.314   3.751   1.735 -0.5328  0.8662 -0.3168
 2216TIP3   OH228138   0.127   1.570  13.843 -0.1606  0.0628 -0.3520
 2216TIP3    H128139   0.193   1.632  13.813  1.0219 -0.2157  1.5093
 2216TIP3    H228140   0.091   1.610  13.922  0.3848 -1.4245  0.6916
 2217TIP3   OH228141   0.379   2.816   5.185 -0.1414 -0.0276  0.4067
 2217TIP3    H128142   0.424   2.751   5.237 -0.3526  2.9632  4.8516
 2217TIP3    H228143   0.442   2.887   5.174 -0.4185 -0.1243 -2.8852
 2218TIP3   OH228144   5.103   4.169  13.652 -0.4573 -0.4483 -0.6751
 2218TIP3    H128145   5.191   4.160  13.688  0.1551  1.3311 -1.6239
 2218TIP3    H228146   5.115   4.163  13.557 -1.1847  0.9892 -0.8743
 2219TIP3   OH228147   6.420   6.657   5.405 -0.3128 -0.6144  0.1176
 2219TIP3    H128148   6.362   6.691   5.337 -0.8087  1.3459  1.4331
 2219TIP3    H228149   6.499   6.711   5.398  0.4439 -1.7350 -0.1801
 2220TIP3   OH228150   4.493   6.188  13.428 -0.3010 -0.1042 -0.2442
 2220TIP3    H128151   4.425   6.186  13.361 -0.5042  0.8135 -0.0717
 2220TIP3    H228152   4.454   6.145  13.503  0.0845 -1.5576 -0.8344
 2221TIP3   OH228153   0.259   4.651  13.332  0.0495 -0.0677  0.2420
 2221TIP3    H128154   0.318   4.629  13.261  1.8476  1.8962  1.0237
 2221TIP3    H228155   0.283   4.592  13.403 -1.5578 -1.8360 -0.5991
 2222TIP3   OH228156   5.008   3.046   0.441 -0.0848 -0.0677 -0.4135
 2222TIP3    H128157   5.099   3.068   0.422  0.4311 -1.0872  0.7359
 2222TIP3    H228158   4.973   3.125   0.483  0.2179  0.3833 -0.9997
 2223TIP3   OH228159   3.240   1.779   3.156 -0.2357  0.1043  0.3048
 2223TIP3    H128160   3.320   1.762   3.205 -0.5907 -0.2136  0.7824
 2223TIP3    H228161   3.172   1.789   3.223 -0.5257  0.7756 -0.0783
 2224TIP3   OH228162   2.272   4.601  12.769 -0.2097  0.1102  0.0502
 2224TIP3    H128163   2.290   4.556  12.687 -0.0173  1.3873 -0.6366
 2224TIP3    H228164   2.358   4.610  12.810 -0.2856 -0.3913  0.3247
 2225TIP3   OH228165   5.171   2.543   1.964  0.2862 -0.9646 -0.0972
 2225TIP3    H128166   5.237   2.563   2.030  0.6394 -0.8647 -0.4756
 2225TIP3    H228167   5.088   2.545   2.012  0.6022 -1.6016  0.4905
 2226TIP3   OH228168   5.169   2.702  10.741  0.0313 -0.5025  0.0638
 2226TIP3    H128169   5.259   2.695  10.772 -0.1239 -0.7195  0.4599
 2226TIP3    H228170   5.175   2.680  10.648  0.3199 -0.9273  0.1813
 2227TIP3   OH228171   0.783   2.085   3.063 -0.3373 -0.1537 -0.4494
 2227TIP3    H128172   0.785   2.072   3.157  1.4594  1.2515 -0.2302
 2227TIP3    H228173   0.693   2.064   3.037 -0.6920 -1.1608  1.4568
 2228TIP3   OH228174   1.943   4.307  16.918  0.0424  0.4839  0.2455
 2228TIP3    H128175   1.877   4.273  16.858  0.1755  0.7537 -0.0545
 2228TIP3    H228176   1.964   4.394  16.884  1.1171  0.1032 -0.1279
 2229TIP3   OH228177   1.367   2.341  16.101  0.0582  0.4138  0.3132
 2229TIP3    H128178   1.407   2.409  16.156  1.5694 -0.1036 -0.1254
 2229TIP3    H228179   1.425   2.334  16.026 -1.2166  0.0829 -0.6652
 2230TIP3   OH228180   2.095   5.774   0.012 -0.5401  0.1818  0.1167
 2230TIP3    H128181   2.056   5.689  -0.010  0.2145  0.0062 -0.6071
 2230TIP3    H228182   2.166   5.754   0.072 -0.9148  0.3989  0.6395
 2231TIP3   OH228183   3.392   1.451   4.002 -0.9120  0.2247 -0.1447
 2231TIP3    H128184   3.379   1.518   4.069 -1.3963  0.3880 -0.3972
 2231TIP3    H228185   3.473   1.475   3.958  0.9283 -1.3242  2.0895
 2232TIP3   OH228186   0.348   2.232  11.583  0.3001  0.1030  0.2932
 2232TIP3    H128187   0.293   2.264  11.511 -1.1781 -0.7864  0.9903
 2232TIP3    H228188   0.376   2.145  11.555  1.8060  0.7439 -0.2725
 2233TIP3   OH228189   2.717   5.795  12.328 -0.0266  0.0487  0.1312
 2233TIP3    H128190   2.674   5.834  12.252  0.3629  0.7569  0.2631
 2233TIP3    H228191   2.810   5.813  12.314  0.1637 -0.8625  0.1876
 2234TIP3   OH228192   5.087   1.909   2.122 -0.2220 -0.4611 -0.3745
 2234TIP3    H128193   5.107   1.815   2.117  0.5299 -0.3019 -0.4208
 2234TIP3    H228194   4.999   1.916   2.085 -0.6156 -1.2527  0.3663
 2235TIP3   OH228195   3.063   5.436   0.912 -0.0201 -0.5722  0.0495
 2235TIP3    H128196   3.132   5.488   0.954  1.2163 -2.0183 -0.0849
 2235TIP3    H228197   3.045   5.481   0.829 -1.1212  1.2451  1.2200
 2236TIP3   OH228198   3.521   3.305   0.339 -0.1599 -0.2717 -0.0839
 2236TIP3    H128199   3.567   3.389   0.346 -1.0296  0.1652  0.7186
 2236TIP3    H228200   3.497   3.284   0.429 -1.6181 -0.4086 -0.4782
 2237TIP3   OH228201   2.605   3.776   5.115 -0.7797 -0.6312 -0.2975
 2237TIP3    H128202   2.539   3.717   5.151 -0.5694 -0.6037  0.1285
 2237TIP3    H228203   2.645   3.726   5.043 -0.2028 -1.2313  0.4267
 2238TIP3   OH228204   3.385   2.437  14.476  0.3278  0.0230  0.3206
 2238TIP3    H128205   3.399   2.483  14.559  0.4331 -1.5621  1.2184
 2238TIP3    H228206   3.460   2.378  14.469 -0.9647 -1.7188  0.4255
 2239TIP3   OH228207   2.469   0.350   0.527  0.2332  0.4568  0.2536
 2239TIP3    H128208   2.405   0.421   0.534 -0.5597 -0.0826 -1.1468
 2239TIP3    H228209   2.444   0.302   0.448  1.1857 -0.9576  0.7558
 2240TIP3   OH228210   2.443   4.949  10.527 -0.1188 -0.1447 -0.2128
 2240TIP3    H128211   2.510   5.014  10.546 -0.7805  1.4870 -2.9088
 2240TIP3    H228212   2.362   4.987  10.562 -0.2556 -0.2477 -0.4132
 2241TIP3   OH228213   2.524   5.810  14.234  0.4382 -0.8176 -0.2060
 2241TIP3    H128214   2.443   5.818  14.184  0.3061 -1.0034 -0.0245
 2241TIP3    H228215   2.585   5.871  14.192  0.1700 -0.5927 -0.2715
 2242TIP3   OH228216   5.227   1.236  14.490 -0.2578  0.2307 -0.3374
 2242TIP3    H128217   5.185   1.235  14.404  2.9856  1.0314 -2.1052
 2242TIP3    H228218   5.267   1.149  14.498  2.7250  1.3617 -1.5669
 2243TIP3   OH228219   2.804   1.206   1.403 -0.6879 -0.5505  0.2204
 2243TIP3    H128220   2.895   1.187   1.424 -0.1909  1.3355 -0.1043
 2243TIP3    H228221   2.807   1.248   1.317 -1.8963 -0.6525  0.1084
 2244TIP3   OH228222   3.695   3.588   4.804  0.1529  0.3134 -0.2113
 2244TIP3    H128223   3.625   3.639   4.845 -0.3247 -1.0535  0.7362
 2244TIP3    H228224   3.774   3.642   4.815 -0.2136  0.5842  1.3491
 2245TIP3   OH228225   5.985   1.255  10.938 -0.4770 -0.1524  0.9318
 2245TIP3    H128226   5.942   1.193  10.879  1.1910 -0.8287  0.3636
 2245TIP3    H228227   5.940   1.244  11.022 -1.4335 -0.7683  0.3600
 2246TIP3   OH228228   6.151   3.309  12.666  0.0235  0.4716 -0.2009
 2246TIP3    H128229   6.165   3.214  12.677  2.2497  0.8807  1.1027
 2246TIP3    H228230   6.185   3.347  12.747  0.8485  2.5005 -1.4360
 2247TIP3   OH228231   4.747   3.496   4.259 -0.3626 -0.5654  0.2407
 2247TIP3    H128232   4.660   3.462   4.281 -0.3075 -0.0342  1.3778
 2247TIP3    H228233   4.774   3.544   4.338  0.8883 -0.5829 -0.1586
 2248TIP3   OH228234   6.615   2.576   5.436 -0.4249 -0.4017  0.1898
 2248TIP3    H128235   6.632   2.484   5.457 -0.4194 -0.4422  0.0098
 2248TIP3    H228236   6.640   2.585   5.344  1.3356  0.2283  0.7077
 2249TIP3   OH228237   6.781   5.796   2.572 -0.4808  0.0262 -0.2974
 2249TIP3    H128238   6.747   5.763   2.655  0.9179  2.4465  1.3593
 2249TIP3    H228239   6.858   5.741   2.554  1.7084  1.9276  2.3197
 2250TIP3   OH228240   1.248   0.759  11.995  0.7507  0.1046  0.3665
 2250TIP3    H128241   1.247   0.752  11.900 -0.5040  0.8049  0.3076
 2250TIP3    H228242   1.273   0.672  12.026 -3.4132 -1.6228 -0.5123
 2251TIP3   OH228243   5.690   4.954  15.224  0.6452 -0.0440 -0.6241
 2251TIP3    H128244   5.771   4.953  15.173  0.7544  3.1979 -0.7651
 2251TIP3    H228245   5.640   5.027  15.188 -2.3286 -1.8410 -0.4221
 2252TIP3   OH228246   3.791   0.324  13.105 -0.4399  0.3540  0.1065
 2252TIP3    H128247   3.827   0.373  13.179  0.4866  1.3858 -0.9696
 2252TIP3    H228248   3.805   0.381  13.030 -1.5378 -0.5776 -0.8485
 2253TIP3   OH228249   1.830   5.417   1.419 -0.4272  0.3517  0.0765
 2253TIP3    H128250   1.797   5.499   1.382 -2.4875 -0.3079  0.3075
 2253TIP3    H228251   1.833   5.357   1.344  2.7068  0.9980 -0.4522
 2254TIP3   OH228252   1.416   4.744   4.426  0.1577 -0.0071 -0.1496
 2254TIP3    H128253   1.387   4.808   4.362 -1.4852 -1.8529 -1.3719
 2254TIP3    H228254   1.491   4.700   4.385  0.3772  0.1556  0.0727
 2255TIP3   OH228255   0.585   2.975   5.813  0.1227 -0.2117 -0.7059
 2255TIP3    H128256   0.585   2.928   5.897  0.7755 -0.1142 -0.6488
 2255TIP3    H228257   0.674   3.009   5.804 -0.7128  2.4781  0.0883
 2256TIP3   OH228258   3.532   4.730   5.628 -0.1885 -0.1641 -0.6917
 2256TIP3    H128259   3.623   4.702   5.615  0.1739  0.8390 -0.4129
 2256TIP3    H228260   3.479   4.657   5.596  0.7143 -1.1830  0.0847
 2257TIP3   OH228261   4.776   2.834   4.375 -0.0864 -0.2042  0.2980
 2257TIP3    H128262   4.731   2.752   4.355  2.1669 -1.5484  0.3938
 2257TIP3    H228263   4.829   2.852   4.298  1.4502 -0.2986  1.2901
 2258TIP3   OH228264   6.377   5.711   4.344 -0.2059  0.1937 -0.0928
 2258TIP3    H128265   6.362   5.736   4.253 -0.4246  0.6235  0.0610
 2258TIP3    H228266   6.464   5.672   4.344  0.5817  1.9038 -0.1448
 2259TIP3   OH228267   6.552   2.392  16.624 -0.4972 -0.0861 -0.6115
 2259TIP3    H128268   6.621   2.327  16.633 -0.2043  0.0488 -1.8022
 2259TIP3    H228269   6.563   2.428  16.537 -1.5891  0.5047 -0.5287
 2260TIP3   OH228270   0.244   5.210  11.579 -0.1358 -0.2652 -0.0225
 2260TIP3    H128271   0.302   5.144  11.540  0.5015 -2.4906  4.0989
 2260TIP3    H228272   0.301   5.259  11.638 -1.5881  0.6088  0.7029
 2261TIP3   OH228273   6.144   6.627   3.778 -0.0050  0.1318 -0.3667
 2261TIP3    H128274   6.152   6.624   3.683 -1.9296  2.4304 -0.6834
 2261TIP3    H228275   6.058   6.589   3.796  0.8206 -1.3768  0.6202
 2262TIP3   OH228276   5.164   6.319  11.981 -0.4539 -0.1899  0.1561
 2262TIP3    H128277   5.197   6.251  11.923  0.3657 -0.2341  0.6502
 2262TIP3    H228278   5.084   6.351  11.939 -0.3151 -0.7813 -0.5675
 2263TIP3   OH228279   3.867   1.674   2.004  0.2090 -0.0610  0.4595
 2263TIP3    H128280   3.784   1.629   2.017 -1.5995  3.1287  1.0565
 2263TIP3    H228281   3.912   1.624   1.936 -2.1689 -1.9240  0.1701
 2264TIP3   OH228282   1.343   4.752   2.729 -0.1440 -0.0726 -0.4526
 2264TIP3    H128283   1.313   4.689   2.794  2.0621 -1.3701 -0.5917
 2264TIP3    H228284   1.315   4.715   2.645  1.5096 -1.1552 -0.5651
 2265TIP3   OH228285   3.983   6.470   6.260  0.1152  0.5698  0.2595
 2265TIP3    H128286   3.967   6.557   6.297  0.6729  0.6001  0.4419
 2265TIP3    H228287   4.077   6.470   6.240 -0.0526  0.3237 -0.5625
 2266TIP3   OH228288   1.766   2.556  13.521 -0.2113  0.5076 -0.4394
 2266TIP3    H128289   1.676   2.556  13.552 -0.4031  2.3686 -0.8393
 2266TIP3    H228290   1.776   2.641  13.476  2.4267  1.4893  1.6941
 2267TIP3   OH228291   3.355   6.313   0.391  0.6224 -0.1885  0.1080
 2267TIP3    H128292   3.409   6.306   0.312  1.1274 -1.0280  0.5170
 2267TIP3    H228293   3.376   6.235   0.442 -1.3663 -0.8110  0.0513
 2268TIP3   OH228294   2.116   0.585   5.291 -0.3174 -0.1665  0.5608
 2268TIP3    H128295   2.029   0.563   5.324 -0.9384 -2.4236 -2.1947
 2268TIP3    H228296   2.112   0.678   5.272 -2.3074 -0.3173  0.0525
 2269TIP3   OH228297   5.799   4.391  11.245  0.3831  0.0045 -0.4285
 2269TIP3    H128298   5.883   4.432  11.223  0.6207 -0.3145 -0.1294
 2269TIP3    H228299   5.741   4.465  11.265  0.4055  0.2550 -1.2806
 2270TIP3   OH228300   5.840   3.431  15.403  0.3731  0.1598 -0.3524
 2270TIP3    H128301   5.904   3.498  15.382  0.3325  0.5649  0.7244
 2270TIP3    H228302   5.840   3.428  15.499 -0.6712 -0.3598 -0.3564
 2271TIP3   OH228303   0.033   5.034  14.247 -0.2106  0.3001  0.1675
 2271TIP3    H128304   0.112   5.036  14.193 -0.6147 -1.0305 -0.5195
 2271TIP3    H228305   0.058   4.984  14.325  0.0044  1.0886  0.6128
 2272TIP3   OH228306   3.450   3.160  11.158  0.0392  0.5648 -0.5907
 2272TIP3    H128307   3.355   3.177  11.157  0.2054  1.5611 -2.1159
 2272TIP3    H228308   3.475   3.157  11.066  1.5462  0.5130 -0.2064
 2273TIP3   OH228309   3.226   3.407  12.025 -0.1986  0.2754  0.4890
 2273TIP3    H128310   3.315   3.391  12.058  0.5276  1.1558 -0.9312
 2273TIP3    H228311   3.231   3.387  11.932 -1.8357 -0.8336  0.5895
 2274TIP3   OH228312   0.917   6.229   6.033  0.4043  0.0248 -0.3516
 2274TIP3    H128313   0.846   6.267   6.085 -0.9249 -1.7864 -0.7553
 2274TIP3    H228314   0.994   6.234   6.090 -0.3595  0.7171  0.6577
 2275TIP3   OH228315   6.687   2.908   1.909 -0.2626 -0.3569 -0.3487
 2275TIP3    H128316   6.689   2.831   1.852 -2.4825  0.4900 -1.6906
 2275TIP3    H228317   6.741   2.973   1.864  0.8121 -0.7604  0.3035
 2276TIP3   OH228318   0.979   2.684  16.913 -0.2823 -0.2663 -0.2029
 2276TIP3    H128319   0.977   2.590  16.932 -0.0697 -0.7605 -2.3665
 2276TIP3    H228320   0.966   2.689  16.818 -1.8776  1.9813  0.0596
 2277TIP3   OH228321   2.183   0.515   4.523  0.7316  0.0535 -0.1086
 2277TIP3    H128322   2.261   0.511   4.468  0.7683 -0.7371 -0.0197
 2277TIP3    H228323   2.195   0.445   4.587 -0.5167 -0.8016 -0.7501
 2278TIP3   OH228324   5.646   3.898  13.433 -0.1366  0.3638  0.3227
 2278TIP3    H128325   5.687   3.977  13.399 -0.2599 -0.0129 -0.7364
 2278TIP3    H228326   5.683   3.888  13.521  1.4702  0.4541 -0.3110
 2279TIP3   OH228327   1.318   0.237  12.925 -0.0539 -0.0052  0.2585
 2279TIP3    H128328   1.363   0.306  12.877 -0.0963 -0.2375 -0.1224
 2279TIP3    H228329   1.320   0.161  12.866 -1.0003 -0.0027  0.2029
 2280TIP3   OH228330   6.204   0.153   2.859  0.5716 -0.7591 -0.0959
 2280TIP3    H128331   6.117   0.160   2.820  0.7877 -0.2356 -0.4856
 2280TIP3    H228332   6.199   0.073   2.912 -0.1464 -0.7319 -0.1068
 2281TIP3   OH228333   1.533   6.769  17.239  0.2283  0.0185 -0.3038
 2281TIP3    H128334   1.576   6.849  17.207 -0.2925  0.2536 -0.4262
 2281TIP3    H228335   1.586   6.698  17.203 -1.1648  0.2175 -3.0199
 2282TIP3   OH228336   5.005   4.476  13.664 -0.0962 -0.0199 -0.3410
 2282TIP3    H128337   5.036   4.436  13.745  2.2261  1.5997 -0.3132
 2282TIP3    H228338   4.931   4.422  13.637  0.0653 -1.5584  1.9922
 2283TIP3   OH228339   5.219   0.393   4.614  0.6375  0.0214  0.1031
 2283TIP3    H128340   5.288   0.344   4.570  2.3610  1.0701  1.4785
 2283TIP3    H228341   5.147   0.331   4.624  1.1706 -0.9713 -1.7996
 2284TIP3   OH228342   5.578   4.582  16.829 -0.5303 -0.9267 -0.3012
 2284TIP3    H128343   5.501   4.604  16.882  0.3165 -0.6832  0.8746
 2284TIP3    H228344   5.542   4.553  16.745 -1.8453  0.8143 -0.4007
 2285TIP3   OH228345   2.595   3.817  14.204 -0.2424 -0.2018 -0.3139
 2285TIP3    H128346   2.518   3.763  14.186 -0.8168  0.6584 -0.4692
 2285TIP3    H228347   2.595   3.883  14.136  0.0539  0.4275  0.2809
 2286TIP3   OH228348   3.666   1.840   0.331  0.0235 -0.1676  0.0406
 2286TIP3    H128349   3.701   1.773   0.391  3.9298  1.2722 -0.3414
 2286TIP3    H228350   3.663   1.797   0.246  0.5875 -0.4600  0.1614
 2287TIP3   OH228351   3.565   4.965  15.909  0.4739 -0.1701  0.2797
 2287TIP3    H128352   3.656   4.934  15.903  0.3214 -0.5460 -0.1619
 2287TIP3    H228353   3.573   5.058  15.929  0.9649 -0.1736  0.1214
 2288TIP3   OH228354   3.793   2.393   1.780  0.5301  0.5723  0.0900
 2288TIP3    H128355   3.828   2.366   1.696 -0.2733  0.3598 -0.1879
 2288TIP3    H228356   3.855   2.459   1.812  1.8495 -0.6907  0.2208
 2289TIP3   OH228357   1.330   0.630  16.532  0.1444  0.2288  0.0280
 2289TIP3    H128358   1.248   0.674  16.508 -1.1214 -2.8844 -1.9452
 2289TIP3    H228359   1.398   0.680  16.487 -0.8534  1.7354  0.0979
 2290TIP3   OH228360   0.900   5.672   0.580 -0.3773 -0.4035  0.3558
 2290TIP3    H128361   0.869   5.752   0.623 -0.1150 -0.6752  1.0630
 2290TIP3    H228362   0.823   5.638   0.535 -0.7714 -0.3412  0.9612
 2291TIP3   OH228363   3.807   4.175  11.338 -0.1561 -0.3428  0.2813
 2291TIP3    H128364   3.768   4.089  11.351 -0.5869 -0.4913 -1.7051
 2291TIP3    H228365   3.771   4.206  11.255  2.8284  0.1029 -1.0008
 2292TIP3   OH228366   4.872   6.492  13.735 -0.4713 -0.3650  0.1061
 2292TIP3    H128367   4.933   6.450  13.796 -0.5539 -3.3241 -1.6263
 2292TIP3    H228368   4.788   6.491  13.781 -0.2166 -1.0888  0.5800
 2293TIP3   OH228369   0.230   3.175  14.622  0.2556  0.0442 -0.8028
 2293TIP3    H128370   0.176   3.253  14.634  2.3688  1.7374 -1.6872
 2293TIP3    H228371   0.220   3.126  14.703 -0.6044  1.5801  0.0587
 2294TIP3   OH228372   5.178   6.446  12.960 -0.3819  0.3987 -0.0156
 2294TIP3    H128373   5.120   6.458  13.035  0.4793  1.7538  0.4769
 2294TIP3    H228374   5.262   6.481  12.989  0.6404 -1.2917 -0.8030
 2295TIP3   OH228375   0.227   2.644  16.044 -0.4696  0.3121 -0.2179
 2295TIP3    H128376   0.148   2.695  16.025 -0.2663  0.8796  0.4148
 2295TIP3    H228377   0.258   2.614  15.958 -1.6300 -0.3219 -0.4272
 2296TIP3   OH228378   4.796   2.050  12.671  0.5197 -0.3726  0.4071
 2296TIP3    H128379   4.816   2.049  12.765  0.3602 -1.5999  0.4453
 2296TIP3    H228380   4.705   2.081  12.666  0.3946 -0.6875  0.6944
 2297TIP3   OH228381   2.945   1.954   6.345 -0.4546 -0.2325 -0.3853
 2297TIP3    H128382   3.029   1.997   6.365 -0.7685  0.2808 -0.1540
 2297TIP3    H228383   2.965   1.860   6.352 -0.1670 -0.1069  0.8523
 2298TIP3   OH228384   4.511   1.844   0.513 -0.3631 -0.0897 -0.1057
 2298TIP3    H128385   4.472   1.807   0.592 -0.0434  0.5897  0.3770
 2298TIP3    H228386   4.584   1.785   0.492 -0.3790 -0.2072  0.1711
 2299TIP3   OH228387   2.336   2.469  11.127 -0.0207  0.4197 -0.2202
 2299TIP3    H128388   2.332   2.537  11.195 -0.2472 -0.3729  0.5724
 2299TIP3    H228389   2.422   2.429  11.139 -0.3558 -0.2182  0.0898
 2300TIP3   OH228390   5.327   4.744   1.320 -0.2977 -0.2110  0.1297
 2300TIP3    H128391   5.357   4.655   1.303 -3.3099 -1.0322 -1.5686
 2300TIP3    H228392   5.301   4.743   1.412 -0.7346 -1.2402  0.0045
 2301TIP3   OH228393   0.508   0.776  13.928 -0.3615 -0.8670 -0.1215
 2301TIP3    H128394   0.551   0.691  13.935  0.9654 -0.1677  0.6177
 2301TIP3    H228395   0.420   0.755  13.897 -0.4435 -2.6152  1.0817
 2302TIP3   OH228396   3.503   0.191  15.204 -0.3855 -0.2077 -0.0808
 2302TIP3    H128397   3.439   0.169  15.272 -1.0265 -0.6580 -0.8132
 2302TIP3    H228398   3.487   0.284  15.186 -1.8817 -0.6503 -1.2915
 2303TIP3   OH228399   1.258   2.466   3.452 -0.5023 -0.5259  0.5061
 2303TIP3    H128400   1.294   2.380   3.429  0.2880  0.0080 -0.3001
 2303TIP3    H228401   1.305   2.528   3.396 -3.3819  0.1223 -1.4044
 2304TIP3   OH228402   3.611   4.691  11.360 -0.1658  0.6826  0.4969
 2304TIP3    H128403   3.603   4.636  11.282 -0.2259  1.5701 -0.1363
 2304TIP3    H228404   3.594   4.780  11.328 -0.0910  1.0639  1.5054
 2305TIP3   OH228405   4.188   1.643  11.821 -0.6158  0.2169  0.5585
 2305TIP3    H128406   4.273   1.669  11.787 -0.6127 -0.7879 -0.2822
 2305TIP3    H228407   4.141   1.725  11.837  0.3134  0.7628  0.5352
 2306TIP3   OH228408   5.714   4.126  11.570 -0.1243 -0.7914 -0.1011
 2306TIP3    H128409   5.729   4.194  11.636  2.7168 -1.2022 -0.2249
 2306TIP3    H228410   5.618   4.122  11.562 -0.4528  1.6079  1.5142
 2307TIP3   OH228411   5.065   3.606  15.628  0.0179 -0.0459  0.2796
 2307TIP3    H128412   5.140   3.628  15.573  0.0822  1.0866  0.8082
 2307TIP3    H228413   5.016   3.543  15.576 -0.7348  2.0927 -1.7542
 2308TIP3   OH228414   3.726   4.311   4.192 -0.0457  0.5326 -0.0641
 2308TIP3    H128415   3.684   4.230   4.162  2.3861 -0.7040 -0.3514
 2308TIP3    H228416   3.793   4.282   4.254 -1.0448  2.5960  2.1562
 2309TIP3   OH228417   5.384   2.927  10.512 -0.3402  0.6483 -0.0120
 2309TIP3    H128418   5.413   2.943  10.422 -0.4910 -0.4587 -0.2789
 2309TIP3    H228419   5.288   2.929  10.506 -0.4549 -1.9482 -0.4438
 2310TIP3   OH228420   5.667   2.537  12.112 -0.2396  0.3068  0.0108
 2310TIP3    H128421   5.684   2.622  12.072  1.1088  0.0610  0.0151
 2310TIP3    H228422   5.646   2.558  12.203 -0.7831  0.6775 -0.1886
 2311TIP3   OH228423   0.142   3.892   3.162  0.6065 -0.0114 -0.0493
 2311TIP3    H128424   0.217   3.884   3.103  0.5786 -0.8514  0.0200
 2311TIP3    H228425   0.171   3.956   3.227  0.9423  0.3096 -0.5064
 2312TIP3   OH228426   0.760   1.266   5.427  0.0019  1.0247  0.1178
 2312TIP3    H128427   0.850   1.266   5.394  0.4793 -0.1504  1.3520
 2312TIP3    H228428   0.765   1.307   5.513 -0.8832  2.1327 -0.3285
 2313TIP3   OH228429   2.641   5.966  15.727 -0.4177 -0.5561  0.0581
 2313TIP3    H128430   2.673   5.876  15.737  0.0713 -0.2459  1.4751
 2313TIP3    H228431   2.714   6.013  15.689 -0.0131 -0.3786  1.0241
 2314TIP3   OH228432   4.222   4.985   1.705 -0.2820 -0.7924  0.7632
 2314TIP3    H128433   4.303   5.035   1.703  0.5312 -2.0116  1.4879
 2314TIP3    H228434   4.154   5.050   1.720  0.5375  0.2687  0.0321
 2315TIP3   OH228435   0.972   4.983   1.269 -0.3799 -0.9185  0.9769
 2315TIP3    H128436   0.971   4.974   1.364 -0.6764 -1.4098  0.9305
 2315TIP3    H228437   0.971   5.077   1.254 -2.2732 -0.8074  1.4626
 2316TIP3   OH228438   6.803   0.909   3.269 -0.1314 -0.5675 -0.0319
 2316TIP3    H128439   6.894   0.915   3.241  0.0497 -1.1212  0.4251
 2316TIP3    H228440   6.777   1.000   3.284  0.8083 -0.4952  1.2818
 2317TIP3   OH228441   1.997   2.205  16.838 -0.1883 -0.2028 -0.6372
 2317TIP3    H128442   1.914   2.246  16.814 -0.4268 -0.4706 -0.2781
 2317TIP3    H228443   2.025   2.252  16.916  0.1114  0.0358 -0.8875
 2318TIP3   OH228444   4.144   6.191  13.434 -0.1998  0.4930 -0.3143
 2318TIP3    H128445   4.139   6.166  13.342 -3.5802 -2.0678  0.3749
 2318TIP3    H228446   4.192   6.120  13.476 -0.3125  0.6996  0.1709
 2319TIP3   OH228447   0.986   3.797   2.465  0.6184 -0.0678  0.4743
 2319TIP3    H128448   0.957   3.750   2.544  0.4007  0.2369  0.5759
 2319TIP3    H228449   1.069   3.837   2.491 -0.2020  1.3271  1.0532
 2320TIP3   OH228450   6.481   5.849  14.869 -0.2086  0.4052 -0.2865
 2320TIP3    H128451   6.553   5.910  14.851  1.2025 -1.5225 -1.6289
 2320TIP3    H228452   6.491   5.829  14.962  0.8769  0.3577 -0.3924
 2321TIP3   OH228453   4.356   5.727   5.728 -0.8576  0.5226  0.1244
 2321TIP3    H128454   4.382   5.713   5.637  1.8196 -1.0423  1.0106
 2321TIP3    H228455   4.395   5.811   5.752 -1.1064  0.6747  0.0069
 2322TIP3   OH228456   0.661   1.124  13.175  0.1595  0.5925 -0.2984
 2322TIP3    H128457   0.574   1.104  13.209 -0.4597  1.7261 -1.1517
 2322TIP3    H228458   0.645   1.155  13.086  1.5175 -0.0113 -0.7794
 2323TIP3   OH228459   2.654   2.504  14.758  0.5841  0.5654  0.1244
 2323TIP3    H128460   2.698   2.530  14.678 -0.2409 -1.2478 -0.9808
 2323TIP3    H228461   2.598   2.579  14.780 -0.6463  0.4065 -2.1149
 2324TIP3   OH228462   1.787   4.829  11.755 -0.2142 -0.6398  0.2196
 2324TIP3    H128463   1.789   4.845  11.849 -2.0086  0.3002  0.1506
 2324TIP3    H228464   1.760   4.738  11.746 -0.6751 -0.5460  0.6273
 2325TIP3   OH228465   5.544   6.289   0.389 -0.3855  0.2948  0.3435
 2325TIP3    H128466   5.482   6.329   0.328  0.0368  1.6211  0.7515
 2325TIP3    H228467   5.570   6.207   0.346 -3.0755 -0.7686  0.5855
 2326TIP3   OH228468   4.925   5.013   1.899  0.0236 -0.4991  0.0295
 2326TIP3    H128469   4.836   4.979   1.903 -0.1380 -0.1135 -0.2110
 2326TIP3    H228470   4.974   4.960   1.961 -0.8099  0.6314  1.7279
 2327TIP3   OH228471   3.669   5.806  14.612  0.2051 -0.1256  0.3160
 2327TIP3    H128472   3.596   5.854  14.652  1.1554  1.9992 -0.3453
 2327TIP3    H228473   3.627   5.746  14.551 -1.0188  0.6496  0.3537
 2328TIP3   OH228474   3.817   0.073  12.073  0.0015 -0.2268 -0.3191
 2328TIP3    H128475   3.855   0.138  12.015 -0.7564 -0.0405 -0.6188
 2328TIP3    H228476   3.874  -0.003  12.065 -0.0359 -0.1685 -1.2332
 2329TIP3   OH228477   4.580   2.255   4.214  0.3613 -0.5741 -0.4143
 2329TIP3    H128478   4.617   2.167   4.218 -0.5138 -0.9268  0.1797
 2329TIP3    H228479   4.541   2.261   4.127 -0.6559 -1.2326 -0.0158
 2330TIP3   OH228480   2.210   4.946   0.486  0.6944 -0.0142  0.5068
 2330TIP3    H128481   2.267   4.904   0.550  0.4854 -0.7586  0.2149
 2330TIP3    H228482   2.269   4.970   0.414  0.6421 -0.7978  0.1980
 2331TIP3   OH228483   4.341   2.742   4.698 -0.2070 -0.4096  0.4873
 2331TIP3    H128484   4.269   2.745   4.761 -0.0169  2.5756  0.6706
 2331TIP3    H228485   4.299   2.748   4.612 -0.2416 -0.1830  0.5210
 2332TIP3   OH228486   4.740   0.126   6.265 -0.6188  0.1791  0.1033
 2332TIP3    H128487   4.704   0.171   6.342 -2.0092  0.0944 -0.4591
 2332TIP3    H228488   4.679   0.147   6.195 -1.4433 -2.6897 -0.1466
 2333TIP3   OH228489   1.281   2.569   0.017 -0.2041 -0.1068  0.1496
 2333TIP3    H128490   1.333   2.592   0.094 -0.0230  0.4775 -0.1430
 2333TIP3    H228491   1.260   2.477   0.029 -0.3127  0.0238  0.9802
 2334TIP3   OH228492   0.105   1.468  16.404 -0.6756 -0.1375 -0.5455
 2334TIP3    H128493   0.187   1.443  16.362 -1.7730 -0.5501 -2.6123
 2334TIP3    H228494   0.115   1.561  16.425  1.3186 -0.7882  1.9161
 2335TIP3   OH228495   5.417   0.694   2.938  0.5824  0.1337  0.4345
 2335TIP3    H128496   5.365   0.731   2.867  1.1526  1.8853  0.8813
 2335TIP3    H228497   5.498   0.744   2.937  0.5474  0.2844  2.3968
 2336TIP3   OH228498   3.664   6.156  16.465  0.2662 -0.2893  0.5520
 2336TIP3    H128499   3.619   6.153  16.381 -2.0818  1.3432  1.6564
 2336TIP3    H228500   3.663   6.065  16.496  2.8293 -1.2909 -1.8810
 2337TIP3   OH228501   6.779   1.633   2.625 -0.1321  0.3185  0.0348
 2337TIP3    H128502   6.722   1.649   2.701  0.8235 -1.0582  1.1053
 2337TIP3    H228503   6.866   1.660   2.655  0.4403 -1.2018 -0.1744
 2338TIP3   OH228504   3.593   1.362   4.901 -0.4543 -0.9113  0.0183
 2338TIP3    H128505   3.497   1.359   4.902 -0.4461 -1.4085  1.5597
 2338TIP3    H228506   3.616   1.422   4.972  0.3912 -0.3044 -0.7353
 2339TIP3   OH228507   0.710   0.540  12.862  0.4925 -0.2313 -0.4963
 2339TIP3    H128508   0.778   0.602  12.837  0.6598 -0.2037  0.0075
 2339TIP3    H228509   0.635   0.595  12.885 -0.4264 -0.3031 -2.9946
 2340TIP3   OH228510   5.136   0.571   5.745  0.2202 -0.1617  0.0779
 2340TIP3    H128511   5.214   0.597   5.793  0.2304 -2.8618  1.7163
 2340TIP3    H228512   5.068   0.632   5.774  0.9344  0.1233  1.1881
 2341TIP3   OH228513   2.774   3.685  14.595 -0.1487 -0.6495 -0.4904
 2341TIP3    H128514   2.777   3.619  14.664  0.2551 -0.9481 -0.7877
 2341TIP3    H228515   2.715   3.753  14.629  1.3801  0.0580  0.8983
 2342TIP3   OH228516   1.154   6.064   5.433  0.0500  0.1699 -0.0077
 2342TIP3    H128517   1.126   5.992   5.377 -0.7461 -0.3588  1.0410
 2342TIP3    H228518   1.228   6.103   5.386  0.9008 -1.6961 -0.3138
 2343TIP3   OH228519   0.111   4.177  13.567 -0.3466  0.0262 -0.3911
 2343TIP3    H128520   0.039   4.127  13.606 -1.2408  0.5363 -1.3157
 2343TIP3    H228521   0.181   4.172  13.631 -0.2442 -2.7163 -0.5924
 2344TIP3   OH228522   5.622   4.550  13.993 -0.2573 -0.2828 -0.7899
 2344TIP3    H128523   5.671   4.546  13.911  0.1880  1.2044 -0.6175
 2344TIP3    H228524   5.614   4.459  14.020  1.3621 -0.6476 -1.4445
 2345TIP3   OH228525   4.185   1.125  17.140  0.0597  0.3030 -0.0630
 2345TIP3    H128526   4.183   1.197  17.203  0.3665 -0.7165  1.1504
 2345TIP3    H228527   4.178   1.046  17.194 -0.4393 -0.5785 -1.3756
 2346TIP3   OH228528   2.059   2.729   3.005  0.5872 -0.7396 -0.0582
 2346TIP3    H128529   2.122   2.667   3.042  0.3102 -1.1645 -0.2924
 2346TIP3    H228530   1.988   2.733   3.070  0.4502 -0.9240 -0.1935
 2347TIP3   OH228531   5.052   2.628  11.424  0.2678 -0.2339 -0.2645
 2347TIP3    H128532   5.054   2.712  11.469  1.5611  0.1090 -0.9125
 2347TIP3    H228533   5.004   2.570  11.483 -3.7019  1.7291 -1.2358
 2348TIP3   OH228534   6.681   0.389  15.312  0.6598  0.1366  0.1205
 2348TIP3    H128535   6.700   0.357  15.224  2.5183 -1.5800  1.0762
 2348TIP3    H228536   6.687   0.485  15.305  2.1400 -0.0299 -1.3523
 2349TIP3   OH228537   1.483   0.918  12.984  0.0480  0.1739 -0.5849
 2349TIP3    H128538   1.541   0.930  12.909  0.2094  1.9835 -0.1928
 2349TIP3    H228539   1.429   0.996  12.986 -0.0238  0.1161  1.1386
 2350TIP3   OH228540   5.856   5.227  15.120  0.1261 -0.6178  0.1481
 2350TIP3    H128541   5.856   5.188  15.033  0.1801  0.7536 -0.4934
 2350TIP3    H228542   5.942   5.269  15.127  0.3650 -1.2186  1.1206
 2351TIP3   OH228543   0.391   4.103  12.889 -0.5882 -0.3102  0.2266
 2351TIP3    H128544   0.338   4.172  12.930 -2.1535  0.3013 -2.5614
 2351TIP3    H228545   0.327   4.035  12.866  0.2518 -0.7445 -0.8949
 2352TIP3   OH228546   2.729   6.521   1.881 -0.1843 -0.0879 -0.2631
 2352TIP3    H128547   2.774   6.531   1.798  0.5144  1.2436  0.2608
 2352TIP3    H228548   2.677   6.600   1.890 -0.0494 -0.0997  0.6955
 2353TIP3   OH228549   2.869   2.378  15.449 -0.3627  0.2525 -0.2898
 2353TIP3    H128550   2.865   2.369  15.545 -1.8043  0.6756 -0.2947
 2353TIP3    H228551   2.944   2.436  15.434  1.9250 -2.3204  0.3601
 2354TIP3   OH228552   1.151   4.180   5.144  0.0411 -0.4884 -0.5713
 2354TIP3    H128553   1.082   4.115   5.157  0.3199 -0.7140 -0.2411
 2354TIP3    H228554   1.175   4.171   5.051 -1.9965  1.1800 -1.3455
 2355TIP3   OH228555   6.379   4.522   5.497  0.1276 -0.3186  0.3949
 2355TIP3    H128556   6.323   4.544   5.572 -0.7503  0.8300 -0.5628
 2355TIP3    H228557   6.375   4.599   5.441  2.1278 -0.4954 -0.0505
 2356TIP3   OH228558   4.887   5.445  12.903  0.9026  0.3939 -0.5482
 2356TIP3    H128559   4.936   5.417  12.826  0.2457 -1.0601 -0.4764
 2356TIP3    H228560   4.885   5.368  12.960 -0.4476  0.7591 -0.0459
 2357TIP3   OH228561   5.151   5.135   0.811  0.2195 -0.5884 -0.9061
 2357TIP3    H128562   5.105   5.200   0.758  3.6635  1.4744 -1.6649
 2357TIP3    H228563   5.193   5.078   0.747 -0.3602 -1.7865 -0.2457
 2358TIP3   OH228564   3.804   1.878  17.196 -0.2229  0.4348 -0.7032
 2358TIP3    H128565   3.777   1.931  17.121  0.1597  0.3205 -0.9254
 2358TIP3    H228566   3.773   1.926  17.272 -3.5456 -1.0165 -0.9646
 2359TIP3   OH228567   1.874   2.086  12.106  0.1997 -0.1583 -0.0440
 2359TIP3    H128568   1.944   2.137  12.066  0.7834  0.3398  1.5296
 2359TIP3    H228569   1.917   2.006  12.137  0.4548  0.7704  2.2122
 2360TIP3   OH228570   5.685   0.921   5.089  0.6607 -0.5038 -0.2554
 2360TIP3    H128571   5.650   1.008   5.109  0.0665 -0.8004  0.0187
 2360TIP3    H228572   5.640   0.863   5.149  1.4591 -0.9377 -0.0603
 2361TIP3   OH228573   5.272   6.496   5.374  0.0756 -0.6433  0.4739
 2361TIP3    H128574   5.277   6.587   5.405 -1.8421 -0.8870  1.6568
 2361TIP3    H228575   5.331   6.448   5.432 -0.8895 -0.5304  1.6018
 2362TIP3   OH228576   5.867   3.319  13.266  0.4664 -0.0363  0.1201
 2362TIP3    H128577   5.780   3.336  13.303  0.7417  0.8070  0.4256
 2362TIP3    H228578   5.875   3.224  13.264 -0.9323 -0.1649 -1.0376
 2363TIP3   OH228579   4.151   5.915  16.332  0.3063 -0.2661  0.7467
 2363TIP3    H128580   4.192   5.837  16.370  0.4995 -0.0301  1.0277
 2363TIP3    H228581   4.194   5.988  16.375  0.3520  0.0040  0.2452
 2364TIP3   OH228582   3.107   2.540  16.484  0.1471  0.6952  0.1764
 2364TIP3    H128583   3.184   2.489  16.458  0.8055  1.4699  0.5785
 2364TIP3    H228584   3.115   2.550  16.579 -1.3820 -0.6989  0.5026
 2365TIP3   OH228585   1.018   5.061   4.891 -0.1303 -0.2341  0.5798
 2365TIP3    H128586   0.969   5.027   4.816  0.9755 -0.8453  0.0982
 2365TIP3    H228587   1.070   4.986   4.921  0.6184  0.4252  0.9649
 2366TIP3   OH228588   0.354   0.239  10.718  0.5544 -0.1082 -0.3496
 2366TIP3    H128589   0.414   0.194  10.659  0.9282  0.7896 -0.6635
 2366TIP3    H228590   0.345   0.179  10.792  0.7103 -0.8852 -0.9453
 2367TIP3   OH228591   3.541   6.194   4.184 -0.6301 -0.8723 -0.2945
 2367TIP3    H128592   3.504   6.214   4.270  1.7256 -1.3105  0.9361
 2367TIP3    H228593   3.600   6.120   4.201  1.1554  0.0732 -1.9241
 2368TIP3   OH228594   3.264   6.400  16.591 -0.2677  0.8658  0.5760
 2368TIP3    H128595   3.183   6.368  16.550 -0.4879  0.2983  1.4332
 2368TIP3    H228596   3.282   6.338  16.661  0.5613  1.3606  0.8202
 2369TIP3   OH228597   3.629   1.609  11.732  0.3494 -1.0588  0.0993
 2369TIP3    H128598   3.646   1.558  11.811 -2.1846 -1.1061  0.7190
 2369TIP3    H228599   3.534   1.605  11.721  0.3913  0.8837 -1.6423
 2370TIP3   OH228600   6.764   3.770  16.139  0.1692 -0.0685 -0.6370
 2370TIP3    H128601   6.772   3.724  16.222  0.5933  1.0616 -0.0364
 2370TIP3    H228602   6.706   3.844  16.157  0.3585  0.2570 -1.3151
 2371TIP3   OH228603   5.761   1.764  11.561 -0.0541  0.9668 -0.6310
 2371TIP3    H128604   5.796   1.826  11.624  0.7232 -0.1784  0.0925
 2371TIP3    H228605   5.677   1.803  11.533 -1.4973  0.5465  2.6485
 2372TIP3   OH228606   1.752   6.573   3.943  0.1018  1.2167 -0.3766
 2372TIP3    H128607   1.715   6.491   3.912 -0.8441  1.3485  0.3856
 2372TIP3    H228608   1.844   6.552   3.962 -0.8070 -0.5340  2.8051
 2373TIP3   OH228609   4.962   6.246   3.432 -0.1932  0.0600  0.0123
 2373TIP3    H128610   4.950   6.215   3.522  1.2259 -0.6124  0.0062
 2373TIP3    H228611   5.056   6.236   3.416 -0.4097  0.2348 -1.5250
 2374TIP3   OH228612   4.267   3.018   3.220  0.1527  0.0938  0.1405
 2374TIP3    H128613   4.320   2.940   3.236  2.4081  1.6437  0.7654
 2374TIP3    H228614   4.330   3.090   3.219 -1.7852  1.8915 -0.7937
 2375TIP3   OH228615   1.512   4.901  15.711 -0.5029  0.0447  0.1899
 2375TIP3    H128616   1.572   4.875  15.642 -1.0477  1.2096 -0.7577
 2375TIP3    H228617   1.502   4.823  15.765 -0.5108 -1.0706 -1.3709
 2376TIP3   OH228618   3.592   4.744  11.913 -0.5191 -0.8733 -0.1961
 2376TIP3    H128619   3.537   4.710  11.843 -0.4768  0.4166 -0.8873
 2376TIP3    H228620   3.546   4.823  11.943  0.6037 -0.1522 -0.3327
 2377TIP3   OH228621   0.899   5.520  13.031 -0.4267  0.1702  0.2524
 2377TIP3    H128622   0.840   5.450  13.003  0.7870 -0.3882 -1.0324
 2377TIP3    H228623   0.873   5.595  12.977  0.9164 -0.4803 -1.3960
 2378TIP3   OH228624   5.068   5.648   5.130 -0.0499  0.4427 -0.1792
 2378TIP3    H128625   5.114   5.565   5.145  0.7003  0.8158 -0.3822
 2378TIP3    H228626   4.979   5.621   5.108 -0.0680 -0.2751  0.6665
 2379TIP3   OH228627   3.144   6.405  15.386  0.2423 -0.2699 -0.1629
 2379TIP3    H128628   3.193   6.326  15.408 -1.0587 -1.1316 -0.3266
 2379TIP3    H228629   3.053   6.385  15.408 -0.3572  0.5959 -1.6943
 2380TIP3   OH228630   3.994   0.691  12.258 -0.4843 -0.3588 -0.0624
 2380TIP3    H128631   4.025   0.781  12.272 -0.2829 -0.4806  0.2810
 2380TIP3    H228632   3.922   0.701  12.196 -1.3645  0.1932  1.0025
 2381TIP3   OH228633   4.024   4.746   2.712  0.1259 -0.0434  0.0222
 2381TIP3    H128634   3.996   4.742   2.803  0.5689  0.7191  0.2020
 2381TIP3    H228635   3.980   4.672   2.670  0.8545 -1.1297  1.1047
 2382TIP3   OH228636   5.505   5.542  13.324  0.4954  0.3032 -0.1637
 2382TIP3    H128637   5.471   5.470  13.271  1.6438  0.7078 -1.5053
 2382TIP3    H228638   5.478   5.521  13.414 -1.4385 -0.4381 -0.8773
 2383TIP3   OH228639   2.008   3.158   2.511  0.7210 -0.2576 -0.0817
 2383TIP3    H128640   2.010   3.177   2.417 -0.1063  0.5742  0.0577
 2383TIP3    H228641   1.923   3.190   2.541  1.3458  0.3750  1.1303
 2384TIP3   OH228642   0.103   6.153  16.031  0.1401  0.2403  0.7618
 2384TIP3    H128643   0.186   6.199  16.042  1.4295 -2.0884  1.6922
 2384TIP3    H228644   0.064   6.152  16.119 -0.7990  1.1593  0.3689
 2385TIP3   OH228645   0.659   6.057   6.651  0.1070 -0.6175  0.0311
 2385TIP3    H128646   0.624   6.032   6.566  0.1881 -2.1664  0.4091
 2385TIP3    H228647   0.737   6.002   6.662  0.3324 -0.1434  0.9277
 2386TIP3   OH228648   5.381   0.223   4.455  0.0245 -0.1106  0.2500
 2386TIP3    H128649   5.321   0.149   4.466 -0.0744  0.2301  2.5057
 2386TIP3    H228650   5.405   0.222   4.363 -1.1586 -2.0341 -0.0726
 2387TIP3   OH228651   5.943   2.995   3.998  0.2576  0.4209 -0.3372
 2387TIP3    H128652   5.989   2.977   3.916 -0.2739  0.3974 -0.6334
 2387TIP3    H228653   5.893   3.075   3.981 -0.3516  0.0695 -0.2486
 2388TIP3   OH228654   0.014   5.173  12.607  0.3758 -0.4063 -0.2759
 2388TIP3    H128655  -0.041   5.248  12.584  0.8668  0.1922  0.4451
 2388TIP3    H228656  -0.047   5.101  12.617 -0.1983  0.0791 -0.2011
 2389TIP3   OH228657   5.152   6.393  17.035  0.3047  0.0198 -0.3775
 2389TIP3    H128658   5.242   6.416  17.013  0.8761 -1.8784 -0.2013
 2389TIP3    H228659   5.128   6.328  16.969 -0.5230 -0.3506  0.2785
 2390TIP3   OH228660   1.771   4.291  12.313 -0.6711  0.2058 -0.1348
 2390TIP3    H128661   1.794   4.380  12.342 -1.2516  0.1317  0.5848
 2390TIP3    H228662   1.722   4.254  12.387 -1.1928 -0.4067 -0.7777
 2391TIP3   OH228663   0.767   0.862   2.370 -0.1792  0.2720  0.3005
 2391TIP3    H128664   0.791   0.773   2.344 -0.1409  0.0470  1.0891
 2391TIP3    H228665   0.697   0.850   2.434  0.9968  0.7198  1.7333
 2392TIP3   OH228666   0.444   5.286   4.738 -0.0142  0.3717 -0.1211
 2392TIP3    H128667   0.431   5.195   4.767 -0.1281 -0.0294 -1.3806
 2392TIP3    H228668   0.394   5.338   4.801 -0.5097 -0.4958  0.2235
 2393TIP3   OH228669   4.390   0.423  16.649 -0.5150 -0.7369 -0.4026
 2393TIP3    H128670   4.304   0.454  16.676 -0.1350  0.6624 -0.7338
 2393TIP3    H228671   4.386   0.418  16.554  0.1506  0.5747 -0.5163
 2394TIP3   OH228672   1.835   6.325   5.681 -0.4119  0.1120  0.2564
 2394TIP3    H128673   1.902   6.267   5.716  0.1260 -0.7449 -1.9967
 2394TIP3    H228674   1.857   6.411   5.716  1.4984 -0.2695  0.0800
 2395TIP3   OH228675   0.025   1.908  14.088  0.1184  0.1038 -0.7137
 2395TIP3    H128676   0.115   1.883  14.066  0.8979  1.2008  1.1067
 2395TIP3    H228677   0.025   2.003  14.087 -0.1658  0.2097  2.4061
 2396TIP3   OH228678   1.147   1.137  14.446 -0.1013  0.2979 -0.1476
 2396TIP3    H128679   1.065   1.119  14.491 -0.0952  0.1012 -0.2169
 2396TIP3    H228680   1.192   1.201  14.502 -0.3223  0.4426 -0.1335
 2397TIP3   OH228681   2.965   2.038  13.600 -0.0159 -0.1497 -0.0347
 2397TIP3    H128682   2.990   2.116  13.651 -0.6826 -0.3434  0.5991
 2397TIP3    H228683   2.879   2.014  13.633 -0.3570 -0.4362 -1.0906
 2398TIP3   OH228684   2.738   2.722  13.794  0.3849  0.0916  0.6831
 2398TIP3    H128685   2.674   2.762  13.853 -1.1252  0.9801 -1.4366
 2398TIP3    H228686   2.788   2.795  13.758  0.8254 -0.3697  0.3240
 2399TIP3   OH228687   0.743   5.122  13.626  0.1791 -0.1245 -0.0879
 2399TIP3    H128688   0.733   5.026  13.622 -0.1910 -0.1390  0.9230
 2399TIP3    H228689   0.692   5.148  13.703  1.5027  0.7073  0.5468
 2400TIP3   OH228690   5.318   5.126   4.871 -0.1505 -0.2323 -0.3397
 2400TIP3    H128691   5.276   5.208   4.846 -0.7762 -0.2969  0.4550
 2400TIP3    H228692   5.328   5.079   4.788 -0.2440  0.4327 -0.7364
 2401TIP3   OH228693   3.349   4.224  12.491  0.7909 -0.1367  0.0733
 2401TIP3    H128694   3.444   4.235  12.504  0.7571  0.8824 -0.5216
 2401TIP3    H228695   3.314   4.313  12.490 -0.2389 -0.5193  0.6672
 2402TIP3   OH228696   6.205   4.672   3.052  0.3021  0.0501 -0.2079
 2402TIP3    H128697   6.122   4.626   3.033  0.4198  0.1520 -1.0034
 2402TIP3    H228698   6.217   4.661   3.146 -0.4069 -0.3279 -0.1516
 2403TIP3   OH228699   3.859   2.760   3.025  0.2876 -0.8264  0.3768
 2403TIP3    H128700   3.901   2.837   3.065 -1.7668  0.3789  0.3643
 2403TIP3    H228701   3.931   2.710   2.989  1.7655  0.8054  0.9118
 2404TIP3   OH228702   1.211   0.814  15.745 -0.2770  0.2881 -0.4467
 2404TIP3    H128703   1.291   0.815  15.798 -1.2593 -0.2830  1.1188
 2404TIP3    H228704   1.177   0.904  15.752 -0.3083  0.2619 -0.2454
 2405TIP3   OH228705   3.032   6.655  11.613 -0.1258 -0.2042 -0.0742
 2405TIP3    H128706   3.100   6.644  11.547 -0.1743  0.4770 -0.2461
 2405TIP3    H228707   3.079   6.659  11.696 -0.0172 -0.4398 -0.1231
 2406TIP3   OH228708   1.498   4.521   1.536  0.2172  0.7359 -0.6696
 2406TIP3    H128709   1.430   4.535   1.601  0.5154  0.4813 -0.2990
 2406TIP3    H228710   1.453   4.482   1.461  0.0318  0.1598 -0.2614
 2407TIP3   OH228711   6.154   0.228  17.231  0.4507 -0.1078  0.3679
 2407TIP3    H128712   6.081   0.166  17.228  1.2569 -1.0618 -0.5652
 2407TIP3    H228713   6.183   0.227  17.322 -0.5561  0.1403  0.7067
 2408TIP3   OH228714   0.450   6.617   0.783  0.4711  0.6436  0.4816
 2408TIP3    H128715   0.372   6.636   0.835 -0.3939 -1.6456  0.1733
 2408TIP3    H228716   0.516   6.592   0.848 -0.4837 -1.8179  0.6143
 2409TIP3   OH228717   2.996   1.185   1.162 -0.1991  0.7414 -1.1540
 2409TIP3    H128718   2.918   1.170   1.107 -0.0317  0.8294 -1.4193
 2409TIP3    H228719   3.055   1.114   1.139 -0.6978 -0.0676 -0.0204
 2410TIP3   OH228720   6.785   2.195   3.273  0.1025 -0.0844  0.1456
 2410TIP3    H128721   6.862   2.142   3.291  1.6745  2.0238 -0.0509
 2410TIP3    H228722   6.733   2.190   3.354  1.6617  0.4091  1.2243
 2411TIP3   OH228723   6.805   5.649  10.352  0.2052 -0.3486 -0.6210
 2411TIP3    H128724   6.728   5.655  10.295 -1.1125 -0.1042  1.0938
 2411TIP3    H228725   6.801   5.561  10.388  1.7769 -0.9702 -1.8311
 2412TIP3   OH228726   6.137   0.967  14.229 -0.3198 -0.0511 -0.1819
 2412TIP3    H128727   6.217   1.019  14.219 -1.4975  2.0547  0.6884
 2412TIP3    H228728   6.073   1.011  14.172 -1.3601 -0.5484  0.5689
 2413TIP3   OH228729   3.135   0.257   4.282  0.0738  0.0827  0.1499
 2413TIP3    H128730   3.075   0.240   4.210  0.9557  0.5455 -0.7090
 2413TIP3    H228731   3.131   0.351   4.296  0.6858  0.1343  0.0051
 2414TIP3   OH228732   4.077   6.675  13.499 -0.3354 -0.2991  0.3600
 2414TIP3    H128733   4.069   6.746  13.436  0.7457 -2.4113 -2.3687
 2414TIP3    H228734   3.988   6.658  13.529 -0.6438  1.9248  0.8523
 2415TIP3   OH228735   2.567   4.089   0.980 -0.3350 -0.3247 -0.2278
 2415TIP3    H128736   2.662   4.079   0.981 -0.4150 -1.9908 -2.3413
 2415TIP3    H228737   2.537   4.041   1.058  0.5266 -0.0285  0.2936
 2416TIP3   OH228738   6.556   4.029   2.948 -0.2021  0.3392  0.1719
 2416TIP3    H128739   6.485   4.017   3.011 -0.7870 -1.1126 -0.6923
 2416TIP3    H228740   6.596   4.113   2.971 -0.7928  0.1488  2.0459
 2417TIP3   OH228741   0.763   5.829   0.764  0.2383 -0.5101 -0.2417
 2417TIP3    H128742   0.688   5.772   0.745 -0.4546 -0.3983  1.8698
 2417TIP3    H228743   0.724   5.904   0.808  1.5605 -0.2452  0.4994
 2418TIP3   OH228744   4.624   1.817  15.551  0.1962 -0.0558  0.0153
 2418TIP3    H128745   4.535   1.832  15.584  0.6906 -0.0100  1.3898
 2418TIP3    H228746   4.620   1.843  15.459 -0.6705  2.0217  0.5858
 2419TIP3   OH228747   4.143   0.002  14.935  0.4411 -0.0869  0.3128
 2419TIP3    H128748   4.119  -0.050  15.012  1.7983 -1.8410 -0.3867
 2419TIP3    H228749   4.084   0.078  14.938 -2.4090 -2.1400  0.8051
 2420TIP3   OH228750   5.999   2.482  13.625  0.2171 -0.0250  0.5024
 2420TIP3    H128751   5.970   2.460  13.537 -0.5314  1.1807  0.4192
 2420TIP3    H228752   5.921   2.476  13.679  0.6388 -0.6005  1.0549
 2421TIP3   OH228753   6.298   6.141  11.149 -1.0063 -0.0093 -0.2857
 2421TIP3    H128754   6.351   6.181  11.080  0.7364 -2.2133 -0.3422
 2421TIP3    H228755   6.209   6.138  11.112 -0.2573 -0.5182 -2.1945
 2422TIP3   OH228756   3.293   1.162  14.408 -0.0283  0.4569  0.2940
 2422TIP3    H128757   3.362   1.226  14.422  0.8092 -0.7588  2.1529
 2422TIP3    H228758   3.297   1.105  14.486 -2.4850 -0.2317  0.0041
 2423TIP3   OH228759   3.217   3.297  13.344  0.2882 -0.1843  0.1791
 2423TIP3    H128760   3.173   3.356  13.283 -0.3956  0.3435  1.1562
 2423TIP3    H228761   3.203   3.210  13.307  1.7790  0.2512 -1.5772
 2424TIP3   OH228762   3.187   0.763   6.431 -0.4136  0.7909  0.9252
 2424TIP3    H128763   3.265   0.710   6.417 -0.5432  0.3799  1.7081
 2424TIP3    H228764   3.145   0.766   6.345 -1.0374 -1.4067  1.0794
 2425TIP3   OH228765   6.440   4.793  13.274  0.0055  0.2026  0.2170
 2425TIP3    H128766   6.532   4.779  13.299 -0.1232  0.4219  0.8523
 2425TIP3    H228767   6.444   4.824  13.184  0.5327 -0.1514  0.1117
 2426TIP3   OH228768   0.665   1.173   2.629 -0.3011 -0.1206 -0.0435
 2426TIP3    H128769   0.713   1.154   2.549 -2.2970 -0.4489 -1.2386
 2426TIP3    H228770   0.630   1.089   2.657  0.7281 -0.0756  1.4422
 2427TIP3   OH228771   6.038   5.971  14.648  0.6067  0.9165  0.1130
 2427TIP3    H128772   6.129   6.002  14.653  1.1551 -0.5717  0.0643
 2427TIP3    H228773   6.026   5.922  14.730 -0.3762  1.6294  0.4095
 2428TIP3   OH228774   6.315   0.838  13.574  0.0147  0.2465 -0.5236
 2428TIP3    H128775   6.305   0.794  13.489  0.6259 -2.1033  0.5271
 2428TIP3    H228776   6.394   0.892  13.564  1.4442 -1.7751 -0.8380
 2429TIP3   OH228777   1.251   6.554  14.611  0.4493 -0.2773  0.0872
 2429TIP3    H128778   1.340   6.586  14.596  0.3919 -0.6955 -1.2582
 2429TIP3    H228779   1.259   6.492  14.683  0.8554  1.3828  1.5324
 2430TIP3   OH228780   6.162   0.803   5.870 -0.1722  0.3078 -0.0165
 2430TIP3    H128781   6.204   0.823   5.787  1.3593 -1.2820  0.3117
 2430TIP3    H228782   6.162   0.708   5.875  0.3676  0.3548  2.0392
 2431TIP3   OH228783   5.198   6.158  11.417 -0.2305 -0.1380  0.6881
 2431TIP3    H128784   5.241   6.115  11.343 -0.1821  0.4189  0.3922
 2431TIP3    H228785   5.266   6.214  11.455 -0.6652  0.7144  0.2434
 2432TIP3   OH228786   1.155   5.720  15.417 -0.2371 -0.1098  0.7225
 2432TIP3    H128787   1.168   5.812  15.395 -1.0045  0.1023  1.1221
 2432TIP3    H228788   1.242   5.688  15.439  0.1159  0.3812  0.0754
 2433TIP3   OH228789   2.408   1.958  15.811 -0.5539  0.7988  0.4403
 2433TIP3    H128790   2.342   1.888  15.814 -0.1041  0.3179 -0.4461
 2433TIP3    H228791   2.361   2.033  15.773 -1.7026  1.7854  3.5395
 2434TIP3   OH228792   1.134   4.607   5.355 -0.0420  0.2729  0.2511
 2434TIP3    H128793   1.098   4.585   5.441  1.7964  0.3470  1.0764
 2434TIP3    H228794   1.124   4.526   5.304 -0.7242  0.0829  0.6645
 2435TIP3   OH228795   1.507   3.816  11.437 -0.3900 -0.5070 -0.1535
 2435TIP3    H128796   1.419   3.784  11.417 -0.6055  1.1809 -2.3041
 2435TIP3    H228797   1.564   3.759  11.385 -0.4197 -0.1988 -0.5315
 2436TIP3   OH228798   2.219   4.366  12.131 -0.3479 -0.1613  0.2651
 2436TIP3    H128799   2.242   4.372  12.038  0.9350 -2.1579  0.4062
 2436TIP3    H228800   2.262   4.442  12.170  1.3713 -0.7439 -0.3921
 2437TIP3   OH228801   2.433   0.300  13.875 -0.5701 -0.2723 -0.4085
 2437TIP3    H128802   2.460   0.345  13.955 -0.4363 -1.8776  0.4855
 2437TIP3    H228803   2.513   0.261  13.841 -0.7061  0.0364 -1.1064
 2438TIP3   OH228804   6.654   2.270  13.380 -0.6683  0.1320  0.1012
 2438TIP3    H128805   6.616   2.248  13.466 -0.1552  0.7433  0.4882
 2438TIP3    H228806   6.748   2.270  13.395 -0.5305 -0.6604 -0.6874
 2439TIP3   OH228807   6.437   4.064   2.414  0.5085 -0.2263  0.0115
 2439TIP3    H128808   6.503   4.088   2.349  1.4563 -1.6471  0.3744
 2439TIP3    H228809   6.478   3.991   2.462 -0.1869  0.7217  2.1342
 2440TIP3   OH228810   3.357   4.840   0.968 -0.0017 -0.0948 -0.3022
 2440TIP3    H128811   3.269   4.878   0.961  0.0028  0.3747  1.5601
 2440TIP3    H228812   3.416   4.913   0.953  0.0378 -0.0109  0.2346
 2441TIP3   OH228813   1.361   4.871   1.285 -0.0751 -0.5830  1.1776
 2441TIP3    H128814   1.274   4.832   1.281 -0.0852 -0.5176  0.7014
 2441TIP3    H228815   1.351   4.946   1.343 -0.1417 -1.0648  1.7924
 2442TIP3   OH228816   2.965   5.499  15.694  0.3877  0.0559  0.1484
 2442TIP3    H128817   2.942   5.472  15.606  0.0012 -0.4570  0.4030
 2442TIP3    H228818   2.971   5.418  15.744  1.5158  0.2678  0.3926
 2443TIP3   OH228819   1.403   4.901  14.149 -0.4645 -0.5480 -0.6189
 2443TIP3    H128820   1.377   4.940  14.233  2.8363  2.4637 -0.7266
 2443TIP3    H228821   1.493   4.871  14.164  0.0711 -0.2623 -2.9267
 2444TIP3   OH228822   4.820   6.273   1.516  0.1976 -0.0736  0.1552
 2444TIP3    H128823   4.830   6.360   1.556  1.2934 -0.5628  1.0011
 2444TIP3    H228824   4.907   6.252   1.481 -0.1158 -0.7330 -0.2468
 2445TIP3   OH228825   2.029   4.018  15.853 -0.2338  0.3127  0.0993
 2445TIP3    H128826   2.094   4.040  15.786  0.8091  1.2277  1.3585
 2445TIP3    H228827   2.067   3.945  15.901 -1.2541 -0.7433 -0.6505
 2446TIP3   OH228828   4.512   3.944  12.258  0.4872  0.3266  0.2391
 2446TIP3    H128829   4.561   4.023  12.282  1.1176  0.5853 -1.7030
 2446TIP3    H228830   4.478   3.963  12.170 -1.7583 -0.4905  0.8675
 2447TIP3   OH228831   0.143   2.722   5.251 -0.1001 -0.5535 -0.5590
 2447TIP3    H128832   0.211   2.782   5.220  0.0406  0.0764  0.8872
 2447TIP3    H228833   0.191   2.652   5.296 -0.3675 -0.5976 -0.3386
 2448TIP3   OH228834   3.628   1.840   2.899 -0.2899  0.3963  0.2755
 2448TIP3    H128835   3.582   1.921   2.923 -0.9132 -0.1301  0.8913
 2448TIP3    H228836   3.561   1.784   2.861 -0.2320 -0.4478  1.3369
 2449TIP3   OH228837   2.935   1.135  16.506 -0.1320 -0.2498  0.1685
 2449TIP3    H128838   2.975   1.194  16.569 -0.8561  0.9318 -0.4178
 2449TIP3    H228839   3.003   1.118  16.442 -0.4619  1.6671 -0.7759
 2450TIP3   OH228840   6.268   3.116   2.775 -0.5787 -0.4677 -0.4075
 2450TIP3    H128841   6.293   3.025   2.785 -0.4764 -0.4609 -0.6022
 2450TIP3    H228842   6.221   3.137   2.856  0.8742 -0.2006  0.3914
 2451TIP3   OH228843   1.077   3.714   5.597  0.1535 -0.2227  0.1027
 2451TIP3    H128844   0.982   3.708   5.586  0.2081 -1.1081  0.0528
 2451TIP3    H228845   1.098   3.802   5.566 -0.7400  0.2594  0.8216
 2452TIP3   OH228846   6.235   3.154  15.954  0.0230  0.3346  0.5397
 2452TIP3    H128847   6.225   3.144  15.859 -0.7038  2.2199  0.3772
 2452TIP3    H228848   6.329   3.145  15.969  0.4450  2.2129 -0.6998
 2453TIP3   OH228849   6.179   4.611  14.869 -0.6455 -0.6835  0.2870
 2453TIP3    H128850   6.141   4.524  14.856  1.5838 -1.9148  1.3403
 2453TIP3    H228851   6.220   4.606  14.955  0.2741  1.1375 -0.0052
 2454TIP3   OH228852   6.094   5.861  10.524 -0.8177  0.1367 -0.0765
 2454TIP3    H128853   6.018   5.920  10.520 -1.2802 -0.4183  0.2796
 2454TIP3    H228854   6.170   5.919  10.521 -1.2620  0.7305 -0.0042
 2455TIP3   OH228855   5.627   5.005   3.775  0.3258 -0.4130  0.3298
 2455TIP3    H128856   5.628   4.959   3.858  0.8738 -0.4818  0.2866
 2455TIP3    H228857   5.647   4.937   3.710  2.0230  0.0350  0.3467
 2456TIP3   OH228858   4.077   5.039   2.081 -0.0072  0.8217  0.0764
 2456TIP3    H128859   4.065   5.094   2.158  1.2332 -1.3284  1.9507
 2456TIP3    H228860   4.143   5.083   2.029 -0.0480  1.7702  0.8150
 2457TIP3   OH228861   0.960   2.596   1.356 -0.3513  0.0129 -0.3934
 2457TIP3    H128862   0.942   2.513   1.401 -3.3221  1.2382  0.9598
 2457TIP3    H228863   1.055   2.605   1.359 -0.1801 -1.3306  3.2881
 2458TIP3   OH228864   0.012   4.069  11.475  0.8625  0.8333  0.6414
 2458TIP3    H128865  -0.021   4.020  11.550 -0.2688  1.3510  0.5021
 2458TIP3    H228866   0.036   4.002  11.411  0.3702  0.4314  0.8695
 2459TIP3   OH228867   6.302   3.817   3.227  0.5913 -0.2397 -0.7705
 2459TIP3    H128868   6.386   3.781   3.257 -0.0118 -0.3070  0.9456
 2459TIP3    H228869   6.238   3.781   3.287 -0.6337  0.1624 -1.7995
 2460TIP3   OH228870   0.863   0.490  14.775  0.1213  0.2879 -0.1363
 2460TIP3    H128871   0.920   0.428  14.730 -0.2818  0.0829 -0.3695
 2460TIP3    H228872   0.875   0.471  14.868 -1.9274 -1.9132 -0.2487
 2461TIP3   OH228873   0.032   3.427   5.437  0.4893 -0.3690 -0.6759
 2461TIP3    H128874   0.105   3.395   5.489 -0.4617 -3.3119 -0.9749
 2461TIP3    H228875  -0.044   3.417   5.494 -0.0360  0.0982 -1.2854
 2462TIP3   OH228876   3.841   5.548   0.102  0.6542  0.1761 -0.4294
 2462TIP3    H128877   3.776   5.586   0.043 -0.6667  0.1555  0.9265
 2462TIP3    H228878   3.922   5.547   0.052 -0.6777 -1.1673 -2.7444
 2463TIP3   OH228879   4.984   0.046  17.009 -1.3356  0.1031 -0.4389
 2463TIP3    H128880   5.057   0.104  16.990  0.8698 -1.7828  1.5359
 2463TIP3    H228881   4.919   0.101  17.052 -0.3815  1.5343 -0.7749
 2464TIP3   OH228882   0.877   0.145  11.326 -0.1811  0.3622  0.2740
 2464TIP3    H128883   0.856   0.232  11.292 -0.1876  0.2997  0.1161
 2464TIP3    H228884   0.973   0.140  11.322 -0.2152  0.1086 -0.3575
 2465TIP3   OH228885   3.980   2.509   1.183  0.1062 -0.2820  0.1216
 2465TIP3    H128886   4.042   2.574   1.152 -0.7665  0.1251 -0.8056
 2465TIP3    H228887   3.979   2.520   1.278  0.4128  0.6367  0.0244
 2466TIP3   OH228888   0.047   3.122  11.858 -0.8367  0.0269  0.1867
 2466TIP3    H128889  -0.014   3.092  11.926 -2.3313  0.9676 -0.6859
 2466TIP3    H228890   0.008   3.093  11.776  0.9489 -1.0923 -0.3056
 2467TIP3   OH228891   0.195   6.072  14.715  0.8530 -0.4505  0.0253
 2467TIP3    H128892   0.136   6.000  14.694  1.3578 -0.6572 -0.7105
 2467TIP3    H228893   0.272   6.029  14.752  0.9483 -0.2522  0.0593
 2468TIP3   OH228894   4.241   5.589  13.152 -0.2487  0.0466  0.3994
 2468TIP3    H128895   4.266   5.522  13.216  1.5618  1.1556  0.9148
 2468TIP3    H228896   4.228   5.541  13.071  1.2244 -0.9280  0.7081
 2469TIP3   OH228897   0.542   6.143   1.937  0.6159  0.3264  0.2675
 2469TIP3    H128898   0.556   6.235   1.960 -0.8796  0.9800 -1.2191
 2469TIP3    H228899   0.626   6.116   1.899  2.0864  0.1072  3.3606
 2470TIP3   OH228900   6.630   6.407   1.675 -0.0392  0.0238 -0.6121
 2470TIP3    H128901   6.679   6.456   1.740  1.6741  1.3409 -2.7413
 2470TIP3    H228902   6.697   6.357   1.628 -1.2594 -1.1921 -1.1000
 2471TIP3   OH228903   0.976   6.029   1.484 -0.0263 -0.1556 -0.0978
 2471TIP3    H128904   1.010   5.940   1.473  0.3600 -0.0981  0.6365
 2471TIP3    H228905   0.886   6.024   1.452 -0.1444 -0.9152  0.3367
 2472TIP3   OH228906   6.624   4.568   0.211  0.4227  0.0519  0.4374
 2472TIP3    H128907   6.560   4.575   0.282  0.2304  1.0456  0.1881
 2472TIP3    H228908   6.703   4.535   0.253  0.5043  1.2232  1.2611
 2473TIP3   OH228909   5.355   3.390   2.105  0.0353 -0.0228 -0.0723
 2473TIP3    H128910   5.341   3.399   2.011  1.0886  2.0896 -0.0901
 2473TIP3    H228911   5.295   3.454   2.144 -0.1120 -0.6048  0.6591
 2474TIP3   OH228912   5.111   0.415  17.240  0.5569 -0.1481  0.4690
 2474TIP3    H128913   5.034   0.462  17.207  0.6679  0.3500  0.9013
 2474TIP3    H228914   5.076   0.359  17.309  0.6696  0.5930  1.1480
 2475TIP3   OH228915   4.100   0.731  10.644  0.2747  0.6732  0.3457
 2475TIP3    H128916   4.020   0.681  10.626 -0.6952  1.9907  0.7948
 2475TIP3    H228917   4.136   0.750  10.558 -0.5840  1.1207  0.0744
 2476TIP3   OH228918   2.134   3.567  11.139 -0.3238  0.1638  0.4133
 2476TIP3    H128919   2.124   3.662  11.133  1.3667  0.4178  0.9769
 2476TIP3    H228920   2.052   3.531  11.105 -1.4480  1.8393  1.2337
 2477TIP3   OH228921   0.638   2.210   3.359  0.1869  0.3113  0.3917
 2477TIP3    H128922   0.629   2.118   3.336  1.0092  0.0615  1.0319
 2477TIP3    H228923   0.628   2.256   3.276 -0.1072 -0.3633  0.0471
 2478TIP3   OH228924   0.398   6.166  11.393  0.2625 -0.0890 -0.0164
 2478TIP3    H128925   0.437   6.137  11.310 -0.5914 -0.0608 -0.4450
 2478TIP3    H228926   0.466   6.218  11.435  1.1710 -1.1718 -0.0985
 2479TIP3   OH228927   3.757   4.782  12.332 -0.3023 -0.5303 -0.0118
 2479TIP3    H128928   3.722   4.694  12.349 -1.8378  0.1316  0.3551
 2479TIP3    H228929   3.791   4.778  12.243  0.9010 -1.8700  0.4576
 2480TIP3   OH228930   5.329   5.310  13.267 -0.2857  0.5812  0.3009
 2480TIP3    H128931   5.236   5.329  13.254  0.0011  1.3197 -0.8560
 2480TIP3    H228932   5.330   5.224  13.308 -1.4587  0.2948 -0.2138
 2481TIP3   OH228933   1.586   1.759  16.964 -0.3968 -0.5485  0.2307
 2481TIP3    H128934   1.545   1.689  17.015  0.6972 -0.6941  0.9331
 2481TIP3    H228935   1.599   1.831  17.026  1.0918 -0.7859  0.2345
 2482TIP3   OH228936   5.295   5.662   5.762  0.1296  0.4213  0.1924
 2482TIP3    H128937   5.286   5.757   5.769  1.4734  0.9040 -3.0799
 2482TIP3    H228938   5.210   5.632   5.730 -0.0837  0.5882  0.5978
 2483TIP3   OH228939   4.083   2.255   5.127  0.1809  0.3145  0.4330
 2483TIP3    H128940   4.050   2.342   5.150 -0.5933 -0.0578  0.7487
 2483TIP3    H228941   4.177   2.259   5.148  0.4943  1.5643 -1.0435
 2484TIP3   OH228942   0.345   5.401   3.089  0.4357  0.4833  0.0033
 2484TIP3    H128943   0.329   5.310   3.062  1.3091  0.1621  0.5351
 2484TIP3    H228944   0.440   5.409   3.090  0.3646  1.6553 -0.8369
 2485TIP3   OH228945   2.182   1.874  12.175 -0.5073 -0.2268  0.3989
 2485TIP3    H128946   2.095   1.857  12.139 -0.8192  2.2058 -0.1535
 2485TIP3    H228947   2.167   1.891  12.268 -0.6915  0.4563  0.2532
 2486TIP3   OH228948   0.387   0.747   2.300 -1.2177  0.1870  0.1890
 2486TIP3    H128949   0.389   0.660   2.339  0.6554 -0.3282 -0.9655
 2486TIP3    H228950   0.447   0.742   2.226 -0.4657  2.6779  0.5449
 2487TIP3   OH228951   0.045   2.334  13.139  0.1469 -0.1710  0.1175
 2487TIP3    H128952  -0.048   2.349  13.153  0.7049  2.0190  2.0199
 2487TIP3    H228953   0.054   2.239  13.132 -2.0581 -0.4943  1.1758
 2488TIP3   OH228954   3.887   0.893   5.112 -0.6005  0.6426  0.1190
 2488TIP3    H128955   3.901   0.868   5.204 -1.7549  0.4919  0.2715
 2488TIP3    H228956   3.971   0.930   5.085  0.0476 -0.1396  0.9577
 2489TIP3   OH228957   2.497   5.444   1.978  0.3601 -0.1797 -0.4615
 2489TIP3    H128958   2.408   5.462   1.948  0.1525  1.3807  0.9449
 2489TIP3    H228959   2.493   5.357   2.018 -0.9069  0.4721  0.8973
 2490TIP3   OH228960   0.963   5.658   5.054 -0.1072 -0.2813 -0.0092
 2490TIP3    H128961   1.035   5.712   5.021 -0.2451 -0.9196 -1.4189
 2490TIP3    H228962   0.903   5.720   5.096  0.0709  0.5644 -0.9783
 2491TIP3   OH228963   3.620   6.025  13.846 -0.3570  0.1371  0.0269
 2491TIP3    H128964   3.540   6.069  13.819 -0.7061 -0.7300 -0.3920
 2491TIP3    H228965   3.597   5.982  13.929 -0.0587  0.6302  0.3669
 2492TIP3   OH228966   4.425   4.388   5.586 -0.0327 -0.3585 -0.4953
 2492TIP3    H128967   4.461   4.414   5.501  0.2319  0.5801 -0.1041
 2492TIP3    H228968   4.376   4.464   5.617 -2.5422 -1.6218 -1.0544
 2493TIP3   OH228969   1.131   3.276   4.255 -0.0291  0.4121  0.2523
 2493TIP3    H128970   1.133   3.333   4.178  1.0079 -1.1097 -0.9086
 2493TIP3    H228971   1.157   3.333   4.327  0.1725  1.5941 -0.7147
 2494TIP3   OH228972   3.937   1.141  12.385  0.0245 -0.1821  0.0968
 2494TIP3    H128973   3.920   1.224  12.341  1.7247  0.1116 -0.0875
 2494TIP3    H228974   3.922   1.159  12.477 -0.7597 -0.0058 -0.0595
 2495TIP3   OH228975   1.998   1.132   6.313 -0.5647  0.0210  0.1870
 2495TIP3    H128976   2.002   1.162   6.222 -0.7577 -0.7682 -0.0863
 2495TIP3    H228977   2.061   1.060   6.317 -0.0453  0.5048  0.8564
 2496TIP3   OH228978   1.431   5.839   5.398  0.6288  0.0330  0.6448
 2496TIP3    H128979   1.493   5.767   5.387 -0.4984 -0.8502 -0.2643
 2496TIP3    H228980   1.452   5.900   5.327 -0.5788 -1.0934 -0.7496
 2497TIP3   OH228981   3.198   1.125   0.723 -1.0985 -0.7566 -0.4612
 2497TIP3    H128982   3.230   1.161   0.641 -0.9191  1.1985  0.4187
 2497TIP3    H228983   3.240   1.039   0.730  0.1558 -0.2719 -1.6228
 2498TIP3   OH228984   5.201   5.008  14.166 -0.3355  0.2390  0.1012
 2498TIP3    H128985   5.127   4.955  14.195  0.2791  0.1117  1.4978
 2498TIP3    H228986   5.213   5.074  14.234  1.4100 -0.3283  0.4112
 2499TIP3   OH228987   6.111   6.119  11.436 -0.9692  0.3446  0.0485
 2499TIP3    H128988   6.031   6.072  11.411  1.3547 -2.7808 -2.5741
 2499TIP3    H228989   6.121   6.185  11.368 -0.8069  0.0280 -0.2377
 2500TIP3   OH228990   1.017   5.679  16.694 -0.6964  0.0745  0.3729
 2500TIP3    H128991   1.075   5.608  16.723 -2.4687 -1.4155  0.4388
 2500TIP3    H228992   0.947   5.680  16.758 -0.0268  2.9139  1.1950
 2501TIP3   OH228993   3.907   6.723  16.567 -0.6563  0.3452  0.3163
 2501TIP3    H128994   3.825   6.713  16.519  0.0731  0.3923 -1.0054
 2501TIP3    H228995   3.957   6.787  16.516  0.6371 -0.4981  0.4744
 2502TIP3   OH228996   2.886   4.314   3.411 -0.4335 -0.4321 -0.0588
 2502TIP3    H128997   2.970   4.340   3.449  0.3626 -0.6493 -1.5954
 2502TIP3    H228998   2.897   4.222   3.388  0.1402  0.3115 -3.2416
 2503TIP3   OH228999   2.789   4.850  14.245 -0.8361  0.4291  0.1077
 2503TIP3    H129000   2.779   4.755  14.253 -2.1899  0.4902 -0.5625
 2503TIP3    H229001   2.816   4.879  14.332 -1.0880 -0.4974  0.5116
 2504TIP3   OH229002   5.323   6.551  14.427  0.5437 -0.1777  0.4105
 2504TIP3    H129003   5.334   6.639  14.462  0.5311 -0.2791  0.6690
 2504TIP3    H229004   5.229   6.535  14.432 -0.0179  1.2114 -3.0355
 2505TIP3   OH229005   4.680   0.845  13.847  0.3522  0.0697 -0.2200
 2505TIP3    H129006   4.619   0.873  13.779  2.5492  1.6014 -1.6682
 2505TIP3    H229007   4.692   0.922  13.902  1.5106  0.0258 -0.3918
 2506TIP3   OH229008   2.882   1.476   3.184  0.2945 -0.4329  0.8196
 2506TIP3    H129009   2.961   1.499   3.233 -0.3801 -0.3806  1.9337
 2506TIP3    H229010   2.853   1.394   3.224 -0.5911 -0.0896  0.8897
 2507TIP3   OH229011   0.680   6.694  16.112 -0.4158 -0.0391  0.1978
 2507TIP3    H129012   0.728   6.650  16.041 -2.5249 -0.8287 -0.8182
 2507TIP3    H229013   0.699   6.787  16.099  0.6960 -0.3104 -0.2535
 2508TIP3   OH229014   2.082   6.644   5.635  0.1222 -0.3154 -0.3025
 2508TIP3    H129015   2.143   6.572   5.654 -1.0576 -1.6694 -1.3994
 2508TIP3    H229016   2.075   6.692   5.717  0.3997 -1.8850  0.6902
 2509TIP3   OH229017   5.173   3.191  13.978 -0.2729  0.1306 -0.5732
 2509TIP3    H129018   5.238   3.131  14.014  0.6720  2.8776  2.8628
 2509TIP3    H229019   5.090   3.143  13.987  0.8232 -2.3045 -2.2993
 2510TIP3   OH229020   2.161   2.141  15.401 -0.3910  0.8613 -0.2713
 2510TIP3    H129021   2.199   2.067  15.448  0.2226  1.7841  0.7406
 2510TIP3    H229022   2.208   2.143  15.318  0.3516  0.7324  0.1277
 2511TIP3   OH229023   5.375   2.010  15.697 -0.1892  0.0199 -0.1808
 2511TIP3    H129024   5.293   1.995  15.651 -0.9741  1.9539  0.4780
 2511TIP3    H229025   5.359   1.979  15.786  0.2094 -0.6498 -0.3310
 2512TIP3   OH229026   3.694   0.916   2.982  0.2382  0.3064  0.5824
 2512TIP3    H129027   3.715   0.873   2.899  0.2584  0.2485  0.6181
 2512TIP3    H229028   3.673   1.006   2.957  2.3954  0.8905  0.7490
 2513TIP3   OH229029   3.741   3.140   3.840 -0.6234  0.0779 -0.4499
 2513TIP3    H129030   3.736   3.173   3.751 -1.2084 -0.5910 -0.6650
 2513TIP3    H229031   3.700   3.209   3.893  0.2087  0.7189 -0.6199
 2514TIP3   OH229032   5.713   0.562  13.193 -0.4549  0.1898 -0.3578
 2514TIP3    H129033   5.639   0.605  13.149 -0.3548  0.8921  0.1444
 2514TIP3    H229034   5.686   0.554  13.284  0.6227  1.7575  0.1471
 2515TIP3   OH229035   5.481   3.365  12.296  0.1776 -0.4606  0.5560
 2515TIP3    H129036   5.525   3.285  12.326  2.0904  0.0137 -0.8191
 2515TIP3    H229037   5.502   3.429  12.364  2.1565 -0.1132 -0.2951
 2516TIP3   OH229038   2.961   0.611   5.192 -0.0322  0.2508 -1.0391
 2516TIP3    H129039   3.046   0.584   5.226 -0.3984  0.8934  0.4438
 2516TIP3    H229040   2.979   0.694   5.148  0.1516  0.2661 -0.9372
 2517TIP3   OH229041   3.591   3.705  15.076 -0.1708  0.0585  0.1492
 2517TIP3    H129042   3.657   3.758  15.031  1.1716 -1.0569  0.7165
 2517TIP3    H229043   3.632   3.681  15.159 -2.0249  0.8389  1.3505
 2518TIP3   OH229044   3.815   6.655   1.914  0.0756  0.0924  0.1356
 2518TIP3    H129045   3.836   6.590   1.846  0.0042  0.9491 -0.7371
 2518TIP3    H229046   3.720   6.662   1.910  0.1776  1.2905 -0.8047
 2519TIP3   OH229047   5.332   2.929   2.923  0.2675 -0.4890 -0.3878
 2519TIP3    H129048   5.356   2.881   2.843 -1.1516 -1.2740 -0.3658
 2519TIP3    H229049   5.237   2.941   2.916  0.0099 -1.1987  1.5224
 2520TIP3   OH229050   0.901   2.922  14.202  0.0148  0.3297  0.9140
 2520TIP3    H129051   0.902   2.827  14.190  0.6914  0.4395  0.0593
 2520TIP3    H229052   0.987   2.942  14.241 -0.6687  0.4394  2.4718
 2521TIP3   OH229053   1.796   5.778  12.832 -0.7499 -0.4675  0.2493
 2521TIP3    H129054   1.886   5.775  12.800 -0.8480 -1.4397  0.0595
 2521TIP3    H229055   1.747   5.720  12.774 -0.9106 -2.3556  2.1614
 2522TIP3   OH229056   2.578   0.337   6.247 -0.2390 -0.1700 -0.3474
 2522TIP3    H129057   2.527   0.258   6.227 -1.0621  0.3106 -0.1939
 2522TIP3    H229058   2.547   0.403   6.185  0.5112  0.0188 -0.5393
 2523TIP3   OH229059   0.498   6.185  12.785  0.0998 -0.8077 -0.5491
 2523TIP3    H129060   0.442   6.254  12.749 -0.3697 -1.1188 -0.4322
 2523TIP3    H229061   0.574   6.182  12.727  0.0038 -0.3685 -0.7018
 2524TIP3   OH229062   3.668   2.083   0.423  0.1821  0.6418  0.4953
 2524TIP3    H129063   3.659   1.992   0.396  0.3146  1.0001 -0.8403
 2524TIP3    H229064   3.599   2.096   0.489 -1.0408  0.0627 -0.6276
 2525TIP3   OH229065   6.173   1.162   5.501  0.4315 -0.6341  0.4287
 2525TIP3    H129066   6.225   1.141   5.578 -0.7348  0.1343  1.4657
 2525TIP3    H229067   6.092   1.110   5.511  0.0856 -0.2054 -0.0551
 2526TIP3   OH229068   0.079   2.559  14.590  0.6129  0.0327  0.4723
 2526TIP3    H129069   0.026   2.479  14.597 -0.8284  0.7954 -1.1752
 2526TIP3    H229070   0.166   2.531  14.618  0.3822 -2.3618 -0.9073
 2527TIP3   OH229071   5.467   5.812  15.252  0.1559 -0.7462  0.0576
 2527TIP3    H129072   5.427   5.894  15.223 -0.3791 -1.1451 -0.3833
 2527TIP3    H229073   5.479   5.822  15.346 -0.3757 -0.3497  0.0876
 2528TIP3   OH229074   5.863   5.179  12.843  0.2554 -0.1269 -0.3379
 2528TIP3    H129075   5.834   5.126  12.768  0.6713  0.8704 -1.2261
 2528TIP3    H229076   5.809   5.258  12.838  0.0062 -0.2217  0.6657
 2529TIP3   OH229077   5.596   5.347   2.400  0.5803  0.7721 -0.1916
 2529TIP3    H129078   5.591   5.268   2.347 -0.4348  0.3438  0.5026
 2529TIP3    H229079   5.679   5.387   2.376  1.3752 -0.7848 -0.1778
 2530TIP3   OH229080   6.215   2.297   4.402  0.5899  0.3011 -0.2733
 2530TIP3    H129081   6.307   2.314   4.424  1.4886 -2.8476 -1.0270
 2530TIP3    H229082   6.166   2.364   4.450  3.2167  1.6565  0.7320
 2531TIP3   OH229083   1.004   6.287   2.680 -0.4086  0.1697 -0.4414
 2531TIP3    H129084   1.042   6.365   2.720  0.7374 -0.2657 -0.6370
 2531TIP3    H229085   0.934   6.320   2.624  0.5906  1.1464 -1.1546
 2532TIP3   OH229086   5.896   0.952  13.081  0.0755  0.0327 -0.0604
 2532TIP3    H129087   5.951   1.025  13.052 -1.4120  1.1626 -0.2062
 2532TIP3    H229088   5.944   0.914  13.154  0.7016  1.4730  0.3270
 2533TIP3   OH229089   3.084   2.470  11.514 -0.1086 -0.3686 -0.4968
 2533TIP3    H129090   3.049   2.462  11.603 -0.4228 -0.3157 -0.6138
 2533TIP3    H229091   3.174   2.499  11.526 -0.7872  1.9167 -0.2296
 2534TIP3   OH229092   1.817   0.196  11.388  0.1947 -0.3101 -0.2876
 2534TIP3    H129093   1.855   0.195  11.476  0.9903  0.2723 -0.6055
 2534TIP3    H229094   1.893   0.205  11.329 -0.1985 -2.0544 -1.1184
 2535TIP3   OH229095   3.367   1.681   2.459  0.5438  0.2646 -0.2772
 2535TIP3    H129096   3.426   1.655   2.388  0.1453  0.0840 -0.5423
 2535TIP3    H229097   3.343   1.772   2.438 -0.2222 -0.0533 -0.8224
 2536TIP3   OH229098   1.991   0.175  12.586  0.1206  0.4968 -0.2658
 2536TIP3    H129099   1.939   0.227  12.647  0.1094 -0.0850  0.2239
 2536TIP3    H229100   2.078   0.169  12.626 -0.6982 -2.5669  1.3510
 2537TIP3   OH229101   4.855   3.027  16.666  0.3533 -0.2974  0.2665
 2537TIP3    H129102   4.787   3.026  16.599  2.2667 -0.2150 -1.7782
 2537TIP3    H229103   4.847   2.941  16.708 -1.9147  0.2622  1.1134
 2538TIP3   OH229104   5.557   1.398   2.050  0.0615 -0.3825 -0.1821
 2538TIP3    H129105   5.615   1.367   1.980  0.9973 -0.5206  0.6238
 2538TIP3    H229106   5.583   1.346   2.126 -0.2539  0.4587  0.5079
 2539TIP3   OH229107   6.585   5.757  12.992 -0.5027  0.2735  0.3561
 2539TIP3    H129108   6.577   5.667  12.960 -0.1520  0.3293  0.1056
 2539TIP3    H229109   6.551   5.811  12.921 -1.8796  0.2823  0.9941
 2540TIP3   OH229110   1.951   5.391  16.846  0.3190  0.1636 -0.7945
 2540TIP3    H129111   2.034   5.432  16.871 -0.9624  1.5460  1.5085
 2540TIP3    H229112   1.910   5.368  16.929 -1.7670 -0.1369 -1.8623
 2541TIP3   OH229113   3.455   6.140  11.371  0.0737  0.3902 -0.1106
 2541TIP3    H129114   3.463   6.105  11.460 -1.4841 -0.3519 -0.2330
 2541TIP3    H229115   3.362   6.135  11.352  0.3528  0.8160 -1.6864
 2542TIP3   OH229116   6.097   1.139   3.526  0.1121  0.5546  0.3992
 2542TIP3    H129117   6.144   1.075   3.471 -0.8084 -0.3225  0.6068
 2542TIP3    H229118   6.154   1.216   3.526  0.1754  0.5682 -1.7486
 2543TIP3   OH229119   4.271   6.457   5.309  0.0593 -0.3878 -0.1047
 2543TIP3    H129120   4.289   6.490   5.222 -2.7871 -1.8898 -1.3988
 2543TIP3    H229121   4.331   6.384   5.320  0.4713 -0.1606 -0.7894
 2544TIP3   OH229122   2.839   3.475  11.004  0.1533 -0.1147  0.9065
 2544TIP3    H129123   2.871   3.477  11.094 -0.3974 -1.1599  1.1397
 2544TIP3    H229124   2.883   3.400  10.964 -0.8987 -0.7086  0.8209
 2545TIP3   OH229125   5.166   3.678   0.000 -0.2905 -0.5063  0.4318
 2545TIP3    H129126   5.219   3.731  -0.059 -0.4281 -0.4764  0.3351
 2545TIP3    H229127   5.078   3.716  -0.006 -0.2121 -0.2072  1.0021
 2546TIP3   OH229128   4.679   1.044  16.281 -0.1503  0.5501 -0.1040
 2546TIP3    H129129   4.613   1.039  16.211 -0.8109  1.4286  0.4312
 2546TIP3    H229130   4.657   0.973  16.341 -1.1013  1.3001  0.4648
 2547TIP3   OH229131   1.320   1.132  12.946  0.4049 -0.3043  0.5850
 2547TIP3    H129132   1.337   1.217  12.904 -1.3651  0.6650  1.6843
 2547TIP3    H229133   1.228   1.114  12.926 -0.3703 -0.0284  3.5427
 2548TIP3   OH229134   2.462   0.015   6.475 -0.3607  0.0634 -0.1136
 2548TIP3    H129135   2.536   0.075   6.469 -0.8306  0.5601 -1.1150
 2548TIP3    H229136   2.495  -0.068   6.444  0.0437  0.0244  0.4047
 2549TIP3   OH229137   5.437   6.370   6.681  0.1292 -0.6029  0.8601
 2549TIP3    H129138   5.475   6.325   6.606  0.4244 -0.6444  1.0331
 2549TIP3    H229139   5.451   6.311   6.754  2.4718  0.6392  1.5312
 2550TIP3   OH229140   1.918   2.568  15.028  0.5139  0.6714 -0.0770
 2550TIP3    H129141   2.003   2.524  15.027 -0.2267 -0.8119 -1.2440
 2550TIP3    H229142   1.918   2.623  14.950  0.8750  1.6441  0.5998
 2551TIP3   OH229143   3.225   1.276  14.119 -0.3481  0.1793 -0.3594
 2551TIP3    H129144   3.225   1.337  14.192 -1.4450 -1.3376  0.9920
 2551TIP3    H229145   3.145   1.224  14.131  0.2672 -1.1632 -1.7208
 2552TIP3   OH229146   1.339   3.619   2.216  0.5006  0.2054  0.6158
 2552TIP3    H129147   1.362   3.712   2.211 -0.7115  0.5094  0.4125
 2552TIP3    H229148   1.422   3.573   2.201  0.7917  1.2334 -1.2424
 2553TIP3   OH229149   2.307   1.140   1.155 -0.8222 -0.2748 -0.7048
 2553TIP3    H129150   2.315   1.056   1.110 -2.5567 -1.1472  0.5063
 2553TIP3    H229151   2.366   1.133   1.230 -1.5436 -0.7527 -0.1666
 2554TIP3   OH229152   0.394   5.502   4.030 -0.0026 -0.6407 -0.2921
 2554TIP3    H129153   0.364   5.458   4.110  0.9911  1.6824  1.4921
 2554TIP3    H229154   0.447   5.436   3.986  1.8225 -1.2369  2.4945
 2555TIP3   OH229155   6.362   3.322   0.798  0.5485  0.1070  0.1120
 2555TIP3    H129156   6.338   3.237   0.834 -1.6941  0.3916 -0.5583
 2555TIP3    H229157   6.365   3.380   0.874  0.7537 -0.2918  0.4109
 2556TIP3   OH229158   6.075   2.745   3.877 -0.3902  0.3913 -0.3337
 2556TIP3    H129159   6.006   2.751   3.944  0.7659  0.1527  0.9288
 2556TIP3    H229160   6.037   2.787   3.800 -1.8075  0.5999  0.4372
 2557TIP3   OH229161   2.440   3.626  14.469  0.1094 -0.7297  0.0602
 2557TIP3    H129162   2.505   3.596  14.405 -0.0484 -0.8910 -0.0250
 2557TIP3    H229163   2.417   3.547  14.519 -1.2522 -1.0516 -1.0040
 2558TIP3   OH229164   1.479   1.036   3.943 -0.1037 -0.0927 -0.0579
 2558TIP3    H129165   1.540   1.101   3.908  0.2639 -0.5490 -0.2709
 2558TIP3    H229166   1.395   1.082   3.948  0.4360  0.8104  1.0813
 2559TIP3   OH229167   4.559   1.564  13.516 -0.2381 -0.0734 -0.3652
 2559TIP3    H129168   4.469   1.552  13.488 -0.6687  2.2476 -0.2161
 2559TIP3    H229169   4.607   1.579  13.434 -0.1662 -0.3172 -0.3684
 2560TIP3   OH229170   2.103   3.587   4.860  0.0466  0.2568  0.5133
 2560TIP3    H129171   2.054   3.662   4.894 -1.9556 -1.2161  1.0453
 2560TIP3    H229172   2.040   3.515   4.860  1.6640 -1.2496 -0.7641
 2561TIP3   OH229173   0.235   3.319   3.636 -0.2503 -0.1582  0.0467
 2561TIP3    H129174   0.156   3.340   3.687  0.2431 -1.4262  1.4277
 2561TIP3    H229175   0.205   3.317   3.545 -1.4115  1.1231  0.3627
 2562TIP3   OH229176   5.870   3.063  13.440 -0.1073  0.3896 -0.2565
 2562TIP3    H129177   5.920   2.989  13.473  0.2889  1.3052  1.2685
 2562TIP3    H229178   5.779   3.036  13.451  0.0306  0.0981  0.2076
 2563TIP3   OH229179   4.690   1.170   2.962 -0.3562 -0.1325 -0.4251
 2563TIP3    H129180   4.711   1.078   2.946  1.4872  0.2682 -0.5103
 2563TIP3    H229181   4.678   1.176   3.057 -1.2131 -0.5902 -0.5005
 2564TIP3   OH229182   5.751   5.872   5.996 -0.4823 -0.8123  0.9721
 2564TIP3    H129183   5.671   5.919   6.021 -0.5671 -0.7648  0.6146
 2564TIP3    H229184   5.817   5.940   5.986 -0.4521 -0.8304  1.0461
 2565TIP3   OH229185   3.116   2.578  16.796 -0.8229 -0.1620  0.6832
 2565TIP3    H129186   3.037   2.605  16.842  0.2644  2.0201  1.4599
 2565TIP3    H229187   3.159   2.516  16.855  0.9065  3.1136  3.2460
 2566TIP3   OH229188   3.609   2.879   5.994  0.6078 -0.1819  0.6140
 2566TIP3    H129189   3.567   2.804   6.036  0.2455 -1.4464 -1.8014
 2566TIP3    H229190   3.697   2.848   5.974  0.7108  0.3065  0.3012
 2567TIP3   OH229191   1.754   3.627  14.930  0.1097  0.2769  0.3383
 2567TIP3    H129192   1.727   3.568  15.000 -0.2641  0.9995  0.8138
 2567TIP3    H229193   1.683   3.691  14.924  0.7829  1.0277  0.2498
 2568TIP3   OH229194   2.063   4.535   4.968 -0.5759  0.4350  0.4316
 2568TIP3    H129195   2.022   4.584   4.897  2.6505  0.5359 -1.6117
 2568TIP3    H229196   2.099   4.457   4.925  1.3044  0.3805  1.9680
 2569TIP3   OH229197   4.214   6.298   4.581 -0.4231  0.2541 -0.6420
 2569TIP3    H129198   4.250   6.209   4.585 -0.6543  0.1938  0.1161
 2569TIP3    H229199   4.286   6.354   4.610 -1.2644  0.0320  2.1825
 2570TIP3   OH229200   3.518   2.645   6.108  0.0906  0.1911  0.1701
 2570TIP3    H129201   3.612   2.627   6.111  0.4035  1.7759  0.4747
 2570TIP3    H229202   3.481   2.591   6.178  0.3318 -2.6429 -1.7199
 2571TIP3   OH229203   4.273   6.618   2.567 -0.4082  0.2225 -0.6380
 2571TIP3    H129204   4.209   6.660   2.624  0.6389  0.4404  0.4282
 2571TIP3    H229205   4.221   6.581   2.495 -1.7674 -0.0006  0.4128
 2572TIP3   OH229206   1.274   3.738  13.612  0.2121  0.8171  0.3553
 2572TIP3    H129207   1.230   3.806  13.663  0.6347 -0.0308  1.9147
 2572TIP3    H229208   1.362   3.734  13.649  0.4263 -0.0699 -0.2127
 2573TIP3   OH229209   0.476   5.826  15.228  0.4808  0.4171  0.3856
 2573TIP3    H129210   0.528   5.839  15.307 -0.5792  1.2692  0.9719
 2573TIP3    H229211   0.540   5.814  15.158  1.4540 -1.3258  1.5059
 2574TIP3   OH229212   0.390   0.066  13.393 -0.1196  0.0536 -0.7823
 2574TIP3    H129213   0.436   0.149  13.380  1.6024 -0.9457 -1.3637
 2574TIP3    H229214   0.435   0.025  13.467 -0.7064 -0.5319 -0.7428
 2575TIP3   OH229215   5.271   1.780  16.245 -0.3193  0.4071  0.2982
 2575TIP3    H129216   5.336   1.716  16.217  0.4971  1.5229 -0.4571
 2575TIP3    H229217   5.187   1.741  16.221  0.0946 -0.7618  0.6805
 2576TIP3   OH229218   0.045   6.395  12.149 -0.3354 -0.1293 -0.3329
 2576TIP3    H129219   0.085   6.322  12.102  0.6414 -0.8624  1.5687
 2576TIP3    H229220  -0.018   6.354  12.208  1.1811  0.3882  1.7359
 2577TIP3   OH229221   6.680   2.463   2.130 -0.2264  0.1016  0.8516
 2577TIP3    H129222   6.736   2.479   2.054 -2.2903  1.6214 -0.4383
 2577TIP3    H229223   6.715   2.520   2.199  1.2195 -0.7603  0.8737
 2578TIP3   OH229224   4.910   1.232  14.934  0.0808  0.0900 -0.6659
 2578TIP3    H129225   4.922   1.282  15.015 -1.5759 -0.0179 -0.3167
 2578TIP3    H229226   4.866   1.292  14.875  0.1352 -0.2463 -1.0507
 2579TIP3   OH229227   4.826   1.213  10.676 -0.1951 -0.6933 -0.4687
 2579TIP3    H129228   4.829   1.303  10.643  2.0656 -0.3555  0.4837
 2579TIP3    H229229   4.733   1.190  10.676 -0.8330  1.6859 -0.5862
 2580TIP3   OH229230   6.485   0.639  15.895  0.0467 -0.2525 -0.5685
 2580TIP3    H129231   6.464   0.583  15.821 -2.9725  3.1564 -2.6248
 2580TIP3    H229232   6.535   0.711  15.856 -1.1554  1.3541  0.7536
 2581TIP3   OH229233   3.856   3.946   5.769  0.3887  0.0548  0.3943
 2581TIP3    H129234   3.769   3.931   5.807  0.5340  1.0202  1.1579
 2581TIP3    H229235   3.914   3.889   5.820  0.6625  1.7105  2.0602
 2582TIP3   OH229236   6.753   6.506   1.894 -0.2133 -0.4969 -0.1986
 2582TIP3    H129237   6.814   6.541   1.958  0.6093 -1.6643 -0.3097
 2582TIP3    H229238   6.687   6.460   1.947 -1.0431  0.7848 -0.0781
 2583TIP3   OH229239   4.651   3.186   5.557  0.2368 -0.2783  0.2184
 2583TIP3    H129240   4.558   3.207   5.552  0.6035  1.4953 -0.0686
 2583TIP3    H229241   4.672   3.193   5.650  0.2661  0.3177  0.1740
 2584TIP3   OH229242   1.692   3.084  12.635  0.5338  0.5846 -0.5295
 2584TIP3    H129243   1.756   3.012  12.640  0.5791  0.4071 -2.7178
 2584TIP3    H229244   1.685   3.116  12.725  1.0981 -1.6476  0.3803
 2585TIP3   OH229245   1.754   1.871  14.264  0.1757 -0.7091 -0.4002
 2585TIP3    H129246   1.760   1.780  14.294 -1.1277 -0.5363  0.4813
 2585TIP3    H229247   1.830   1.883  14.208 -0.2770 -2.7017 -1.5169
 2586TIP3   OH229248   0.124   4.686   5.536  0.1920 -0.0781 -0.3122
 2586TIP3    H129249   0.158   4.632   5.607 -0.4955  0.7263  0.6499
 2586TIP3    H229250   0.040   4.718   5.568 -0.2940  0.0338 -1.6273
 2587TIP3   OH229251   3.742   3.519  10.651 -0.0052  0.2522  0.0884
 2587TIP3    H129252   3.658   3.499  10.610  0.0455  0.5785 -0.1856
 2587TIP3    H229253   3.753   3.613  10.638  0.2993  0.2504  0.3176
 2588TIP3   OH229254   3.009   3.113   1.802  0.1121 -0.0435 -0.3612
 2588TIP3    H129255   3.048   3.062   1.873 -2.5662 -0.6965  0.7627
 2588TIP3    H229256   3.060   3.194   1.800 -0.4034  0.5286  3.1758
 2589TIP3   OH229257   5.137   4.047  11.991  0.7330  0.1350  0.3446
 2589TIP3    H129258   5.055   3.999  11.985  1.0853 -0.3994 -0.3702
 2589TIP3    H229259   5.204   3.980  12.002  1.1527  0.5096  0.1293
 2590TIP3   OH229260   1.485   2.311   1.550  0.2032 -0.1195  0.0839
 2590TIP3    H129261   1.570   2.349   1.574 -0.5953  1.9295 -0.0865
 2590TIP3    H229262   1.452   2.273   1.631  1.3677 -1.1823  0.0933
 2591TIP3   OH229263   5.265   2.897  16.611  0.1674 -0.1783 -0.2265
 2591TIP3    H129264   5.216   2.976  16.588  0.0056 -0.2295 -0.0684
 2591TIP3    H229265   5.338   2.927  16.664  1.3497  0.0904 -1.9363
 2592TIP3   OH229266   4.126   2.433   6.138  0.1391  0.1840 -0.0468
 2592TIP3    H129267   4.100   2.356   6.188 -0.5659  1.6837  2.0407
 2592TIP3    H229268   4.152   2.399   6.052 -0.8688 -2.2609  0.5474
 2593TIP3   OH229269   5.234   4.125   1.175  0.1739 -0.1447 -0.2270
 2593TIP3    H129270   5.185   4.160   1.250 -1.3010 -0.0697 -1.1853
 2593TIP3    H229271   5.297   4.194   1.154  1.4020 -0.6305  1.6180
 2594TIP3   OH229272   5.475   2.603  13.305 -1.1320 -0.4038  0.2632
 2594TIP3    H129273   5.431   2.589  13.389 -1.8576 -0.5214 -0.1211
 2594TIP3    H229274   5.407   2.586  13.239 -1.5978  2.8555 -0.3222
 2595TIP3   OH229275   1.119   3.855  15.891 -0.5822  0.1136  0.1347
 2595TIP3    H129276   1.114   3.887  15.981  1.2090  0.5141  0.1224
 2595TIP3    H229277   1.054   3.907  15.843 -1.2731  0.1677  1.0893
 2596TIP3   OH229278   1.860   2.802   3.183  0.0204 -0.3770 -0.1053
 2596TIP3    H129279   1.853   2.834   3.273  1.6803  1.9328 -0.7111
 2596TIP3    H229280   1.778   2.755   3.168 -0.6299 -0.1607  2.3404
 2597TIP3   OH229281   0.541   6.648  12.124 -0.3210 -0.1496  0.1168
 2597TIP3    H129282   0.450   6.646  12.094 -0.2420  1.8031 -0.4228
 2597TIP3    H229283   0.536   6.685  12.212  0.0415  1.6051 -0.5621
 2598TIP3   OH229284   4.921   5.264  16.063  0.4744 -0.0787 -0.3655
 2598TIP3    H129285   4.983   5.335  16.078 -1.4159  1.3452  1.1454
 2598TIP3    H229286   4.908   5.263  15.968  0.5731  1.5666 -0.4239
 2599TIP3   OH229287   4.800   2.126  16.883 -0.1562  0.4938 -0.3215
 2599TIP3    H129288   4.746   2.162  16.813 -1.0395  0.8477  0.5147
 2599TIP3    H229289   4.811   2.198  16.945  2.1467  0.7446 -0.9317
 2600TIP3   OH229290   3.469   1.524  12.213  0.2718  0.1828 -0.1252
 2600TIP3    H129291   3.381   1.501  12.182 -1.0298  1.8824  2.0303
 2600TIP3    H229292   3.511   1.439  12.229 -1.1443 -0.6769 -0.7362
 2601TIP3   OH229293   6.802   3.511   4.317  0.1918 -0.2158 -0.4634
 2601TIP3    H129294   6.798   3.462   4.398 -3.1317  0.2555 -0.1790
 2601TIP3    H229295   6.811   3.444   4.249  0.7246 -0.7986  0.1684
 2602TIP3   OH229296   4.457   2.475   3.716  0.2748 -0.3499 -0.5217
 2602TIP3    H129297   4.471   2.561   3.677 -0.8240  1.7729  3.2531
 2602TIP3    H229298   4.388   2.435   3.663 -0.9034  2.1510 -1.0256
 2603TIP3   OH229299   1.156   5.434  14.052  0.4151  0.5993  0.4198
 2603TIP3    H129300   1.208   5.354  14.046  0.9792  1.0370 -1.0537
 2603TIP3    H229301   1.100   5.431  13.974 -1.0450  0.6527  1.4282
 2604TIP3   OH229302   0.710   6.451  10.766  0.1482 -0.2902  0.1468
 2604TIP3    H129303   0.670   6.364  10.774 -0.7370  0.2515  2.6303
 2604TIP3    H229304   0.638   6.512  10.781  0.6046  0.9657 -2.3015
 2605TIP3   OH229305   1.461   4.626  16.844  0.3934 -0.0084 -0.5188
 2605TIP3    H129306   1.547   4.653  16.811  0.0179 -0.2603 -1.7410
 2605TIP3    H229307   1.457   4.662  16.933  1.7556  0.0070 -0.4472
 2606TIP3   OH229308   1.663   5.743   1.686  0.1469  0.3723 -0.3256
 2606TIP3    H129309   1.704   5.662   1.717 -1.8419 -1.0736 -1.2368
 2606TIP3    H229310   1.694   5.754   1.596  0.0633  0.3625 -0.3562
 2607TIP3   OH229311   4.980   0.420   3.447  0.1269 -0.3263  0.1990
 2607TIP3    H129312   4.948   0.369   3.522  0.4653  0.5303  0.9473
 2607TIP3    H229313   4.983   0.357   3.375 -1.4500 -0.8646  0.5639
 2608TIP3   OH229314   0.950   2.188   4.277  0.8041 -0.5335  0.7684
 2608TIP3    H129315   0.922   2.280   4.274 -0.6570 -0.9730 -0.3819
 2608TIP3    H229316   0.918   2.157   4.362 -3.1812 -1.2142 -0.7807
 2609TIP3   OH229317   4.441   5.078   2.626 -0.0773  0.0582  0.5110
 2609TIP3    H129318   4.524   5.036   2.651 -0.8058 -2.1865 -0.5825
 2609TIP3    H229319   4.392   5.085   2.708  0.0284 -1.3620  0.7117
 2610TIP3   OH229320   5.736   2.785   2.119  0.2290  0.0328  0.6244
 2610TIP3    H129321   5.806   2.804   2.058 -1.5186 -0.6353 -1.7248
 2610TIP3    H229322   5.689   2.867   2.129  0.0169 -0.0563  0.3761
 2611TIP3   OH229323   1.641   0.089   5.845  0.1536 -0.1370 -0.5975
 2611TIP3    H129324   1.546   0.097   5.848  0.2026  0.5229 -0.6415
 2611TIP3    H229325   1.664   0.044   5.926 -0.0892  0.9393  0.0879
 2612TIP3   OH229326   6.618   6.372  14.721  0.5168 -0.3934 -0.9134
 2612TIP3    H129327   6.688   6.386  14.658 -0.0039 -0.3189 -1.4846
 2612TIP3    H229328   6.556   6.315  14.676  0.1993 -0.4400 -0.4234
 2613TIP3   OH229329   2.399   2.407  16.093  0.0083  0.1779  0.6018
 2613TIP3    H129330   2.486   2.385  16.062 -0.4540 -0.8674  0.0033
 2613TIP3    H229331   2.391   2.501  16.074  0.1012 -0.2049 -1.6742
 2614TIP3   OH229332   1.885   4.274  15.620 -0.4957 -0.2678 -0.3857
 2614TIP3    H129333   1.928   4.209  15.564  1.2666 -0.4004  1.0526
 2614TIP3    H229334   1.874   4.229  15.704 -1.8666  0.3760 -0.1986
 2615TIP3   OH229335   5.793   4.417  15.565  0.2990  0.3237  0.3813
 2615TIP3    H129336   5.814   4.472  15.489 -1.1184 -0.8726 -0.9600
 2615TIP3    H229337   5.875   4.373  15.586  0.6267  0.3377 -0.7681
 2616TIP3   OH229338   2.039   1.090  13.775  0.2365 -0.5824 -0.1419
 2616TIP3    H129339   2.127   1.084  13.740 -0.3269 -0.6967 -1.5872
 2616TIP3    H229340   2.024   1.006  13.818  0.2000 -1.2607 -1.4455
 2617TIP3   OH229341   1.886   5.863   0.439  0.1713  0.2748 -0.7331
 2617TIP3    H129342   1.934   5.829   0.515 -0.9992  0.3409  0.0715
 2617TIP3    H229343   1.865   5.954   0.463  0.3519  0.5006 -1.4154
 2618TIP3   OH229344   2.849   0.831   1.155  0.2200  0.3740  0.3496
 2618TIP3    H129345   2.921   0.773   1.181 -0.5355 -0.2743  1.0647
 2618TIP3    H229346   2.839   0.816   1.061 -0.7578 -1.6333  0.7155
 2619TIP3   OH229347   3.238   1.912  11.600 -0.6632  0.5357  0.0408
 2619TIP3    H129348   3.322   1.911  11.646 -0.9045  0.4878  0.4939
 2619TIP3    H229349   3.191   1.987  11.638 -0.0446  1.8642 -1.6633
 2620TIP3   OH229350   2.426   5.434  13.607  0.2431  0.0385 -0.0475
 2620TIP3    H129351   2.416   5.402  13.697 -0.9044 -0.0770 -0.1960
 2620TIP3    H229352   2.399   5.526  13.612 -1.2095 -0.3383 -0.5166
 2621TIP3   OH229353   0.666   0.402  11.806  0.0235 -0.1251  0.2963
 2621TIP3    H129354   0.687   0.308  11.808 -0.1534 -0.1679  0.2139
 2621TIP3    H229355   0.623   0.419  11.890 -0.3655 -0.2224  0.1236
 2622TIP3   OH229356   6.688   0.354  16.060 -0.1760 -0.2710  1.2672
 2622TIP3    H129357   6.780   0.336  16.038 -0.2689 -0.7356  1.2535
 2622TIP3    H229358   6.693   0.425  16.124  0.1750 -0.0450  0.9935
 2623TIP3   OH229359   0.697   0.178   3.122  0.0877 -0.0538 -0.5503
 2623TIP3    H129360   0.722   0.259   3.168  1.0738  0.4811 -1.9548
 2623TIP3    H229361   0.638   0.207   3.053  0.5771 -0.4976 -1.1674
 2624TIP3   OH229362   4.104   2.056  12.846  0.6629  0.4364  0.0988
 2624TIP3    H129363   4.021   2.092  12.814  0.0055 -0.8288  0.3023
 2624TIP3    H229364   4.124   1.984  12.785 -0.1995 -1.5008  1.9709
 2625TIP3   OH229365   2.873   2.532   3.535 -0.4589 -0.0141  0.2193
 2625TIP3    H129366   2.830   2.616   3.554  0.9962  0.5695  1.0916
 2625TIP3    H229367   2.924   2.513   3.614  0.3420 -1.0029 -0.5116
 2626TIP3   OH229368   4.297   3.217   5.080 -0.1389  0.4267  0.2650
 2626TIP3    H129369   4.303   3.312   5.079  0.2739  0.4722  2.4386
 2626TIP3    H229370   4.252   3.197   5.162 -0.6500 -1.2488 -0.3760
 2627TIP3   OH229371   3.813   6.055   1.593  0.2312  0.1680  0.0064
 2627TIP3    H129372   3.813   6.106   1.512  0.4308  0.4913  0.2086
 2627TIP3    H229373   3.904   6.057   1.623  0.2465 -0.3267  0.0055
 2628TIP3   OH229374   5.496   3.434  14.877  0.6607 -0.3788  0.2648
 2628TIP3    H129375   5.479   3.526  14.860  0.1091 -0.5422 -0.0839
 2628TIP3    H229376   5.470   3.389  14.797  1.4889 -0.7816  0.2072
 2629TIP3   OH229377   5.834   6.232   1.016  0.2408 -0.2388  0.5088
 2629TIP3    H129378   5.879   6.176   0.953 -1.2269  0.2381 -1.0608
 2629TIP3    H229379   5.803   6.171   1.084  1.6784 -0.7940  0.6911
 2630TIP3   OH229380   0.232   5.625   5.657 -0.0831 -0.1701 -0.1973
 2630TIP3    H129381   0.157   5.567   5.641 -0.6057  0.2148  0.7794
 2630TIP3    H229382   0.195   5.713   5.656  0.5447  0.0905 -0.7229
 2631TIP3   OH229383   3.826   1.935  15.552  0.0348 -0.1196 -0.6191
 2631TIP3    H129384   3.845   1.861  15.610  3.0849  0.5579 -0.5904
 2631TIP3    H229385   3.840   2.012  15.607 -1.4848  0.5133 -1.0932
 2632TIP3   OH229386   3.406   3.383   2.286  0.6844  0.1158 -0.0165
 2632TIP3    H129387   3.483   3.429   2.317  0.2130  2.3240 -1.8398
 2632TIP3    H229388   3.336   3.407   2.347  0.9042  0.0474  0.2629
 2633TIP3   OH229389   5.627   4.039   1.621  0.6093 -0.0950 -0.4313
 2633TIP3    H129390   5.702   4.062   1.676  0.8703  1.0933 -1.2420
 2633TIP3    H229391   5.577   3.977   1.673  1.1372  0.5802  0.9253
 2634TIP3   OH229392   2.485   6.796  14.237  0.4681  0.2282 -0.4206
 2634TIP3    H129393   2.417   6.737  14.271 -0.1151  1.0451 -0.1299
 2634TIP3    H229394   2.466   6.802  14.144 -0.8233  1.6419 -0.0996
 2635TIP3   OH229395   3.260   6.565   4.977 -0.1070 -0.1020 -0.2562
 2635TIP3    H129396   3.298   6.497   4.920 -0.3356  0.4894 -1.1335
 2635TIP3    H229397   3.255   6.643   4.922 -0.8439  0.3447  0.4173
 2636TIP3   OH229398   2.421   4.422   6.066  0.2413 -0.2534  0.3521
 2636TIP3    H129399   2.449   4.482   6.135  2.1323 -0.7461  0.0453
 2636TIP3    H229400   2.475   4.344   6.078  0.2088 -0.5669 -1.3482
 2637TIP3   OH229401   3.602   6.485   4.500  0.0161  0.2406  0.4139
 2637TIP3    H129402   3.516   6.474   4.459 -0.0273  0.5363  0.4221
 2637TIP3    H229403   3.651   6.539   4.439  0.9873 -1.7868 -0.6961
 2638TIP3   OH229404   1.178   0.078   3.190 -0.6687  0.0872  0.7111
 2638TIP3    H129405   1.161   0.172   3.195 -0.5703  0.1037  0.7223
 2638TIP3    H229406   1.160   0.045   3.278 -0.2919  0.1606  0.8146
 2639TIP3   OH229407   6.048   3.915   2.111 -0.4941 -0.0478  0.6713
 2639TIP3    H129408   6.002   3.835   2.086  0.5825  0.1548 -2.4201
 2639TIP3    H229409   6.118   3.885   2.169 -1.5596 -0.9748  1.5170
 2640TIP3   OH229410   3.299   6.246   4.609 -0.2912 -0.4280 -0.4505
 2640TIP3    H129411   3.245   6.200   4.545 -0.1597 -1.2025 -0.0191
 2640TIP3    H229412   3.389   6.225   4.585 -0.2308 -2.8072  1.3850
 2641TIP3   OH229413   1.581   4.112  13.392  0.3864  0.1856  0.3671
 2641TIP3    H129414   1.589   4.140  13.301 -1.1823 -1.2250 -0.2432
 2641TIP3    H229415   1.487   4.100  13.406  0.5339  0.8142  2.3375
 2642TIP3   OH229416   1.515   6.422   5.143  0.3148  0.6515 -0.6133
 2642TIP3    H129417   1.468   6.396   5.064 -0.1111 -0.0884 -0.1287
 2642TIP3    H229418   1.607   6.403   5.124 -0.0538 -2.1427  0.0244
 2643TIP3   OH229419   0.594   2.928  14.033  0.4754  0.4194 -0.4551
 2643TIP3    H129420   0.603   2.950  13.940  0.4588  2.6810  0.0188
 2643TIP3    H229421   0.500   2.924  14.048  0.4721  0.6114 -0.4228
 2644TIP3   OH229422   6.139   6.419  13.066  0.3123  0.3578 -0.3727
 2644TIP3    H129423   6.085   6.493  13.036 -0.9108 -0.0864  0.6312
 2644TIP3    H229424   6.228   6.454  13.068  0.1407  1.0551 -2.3026
 2645TIP3   OH229425   2.276   6.184  16.815  0.2926  0.4423  0.4064
 2645TIP3    H129426   2.207   6.188  16.881 -1.5063  1.8703 -1.4115
 2645TIP3    H229427   2.354   6.219  16.858 -0.2997 -0.4353  2.2730
 2646TIP3   OH229428   1.013   0.957  13.862 -0.3798  0.2551  0.0249
 2646TIP3    H129429   1.080   0.957  13.930  0.2926 -0.1672 -0.6108
 2646TIP3    H229430   0.997   0.864  13.845 -0.2773  0.3526 -0.6374
 2647TIP3   OH229431   4.444   4.977  16.142 -0.3695  0.2673 -0.3320
 2647TIP3    H129432   4.441   5.038  16.215 -1.9672  0.1386 -0.2603
 2647TIP3    H229433   4.498   4.904  16.174 -0.0704  0.7461  0.2757
 2648TIP3   OH229434   3.931   5.157  10.993  0.1165  0.5877 -0.0159
 2648TIP3    H129435   4.015   5.117  10.969 -0.3593 -0.4446 -0.0296
 2648TIP3    H229436   3.946   5.251  10.987  2.3425  0.6381  3.3090
 2649TIP3   OH229437   0.992   0.247   5.114  0.1025  0.6707 -0.0282
 2649TIP3    H129438   1.034   0.182   5.058 -1.3020 -0.9598  0.7091
 2649TIP3    H229439   0.957   0.313   5.053  3.5513  2.1271 -0.6669
 2650TIP3   OH229440   2.294   1.245   4.711  0.0234 -0.1603  0.2375
 2650TIP3    H129441   2.356   1.310   4.744  0.2653  0.5085 -1.4554
 2650TIP3    H229442   2.292   1.259   4.616 -3.0466  0.1480  0.2376
 2651TIP3   OH229443   4.400   5.125  12.240  0.3255 -0.4742  0.7309
 2651TIP3    H129444   4.318   5.170  12.255  1.7452  2.4205  0.5602
 2651TIP3    H229445   4.389   5.083  12.155 -1.6879 -2.1272  1.7192
 2652TIP3   OH229446   4.346   4.036  11.615  0.4287  0.1823 -0.1456
 2652TIP3    H129447   4.417   4.066  11.558  2.1174 -1.5250  0.9163
 2652TIP3    H229448   4.341   4.102  11.685  0.0517  0.9841 -0.9143
 2653TIP3   OH229449   1.965   4.295   1.372  0.0254  0.2572  0.0185
 2653TIP3    H129450   1.964   4.281   1.277 -0.3374  0.5040 -0.0180
 2653TIP3    H229451   1.939   4.387   1.383  0.4666  0.3457  0.3387
 2654TIP3   OH229452   3.836   0.644  16.823  0.0248 -1.0742 -0.4112
 2654TIP3    H129453   3.872   0.726  16.856 -0.8229 -1.7504  2.4504
 2654TIP3    H229454   3.836   0.585  16.899 -3.6270 -2.2501 -1.1086
 2655TIP3   OH229455   0.060   3.773   0.046 -0.0449  0.1235  0.5678
 2655TIP3    H129456  -0.022   3.724   0.050  0.4028 -0.5748  1.7395
 2655TIP3    H229457   0.040   3.856   0.091 -1.2494  1.8090 -2.7624
 2656TIP3   OH229458   5.978   6.030   2.838 -0.1147  0.0996  0.3153
 2656TIP3    H129459   5.884   6.022   2.820 -0.0336 -2.4557  0.7728
 2656TIP3    H229460   6.020   6.010   2.754  0.0552 -0.5483  0.5556
 2657TIP3   OH229461   6.089   0.642   0.408 -0.0974 -0.3593  0.1294
 2657TIP3    H129462   6.112   0.582   0.336  1.4642  0.4521 -0.0896
 2657TIP3    H229463   6.038   0.711   0.366  0.3331 -0.1816 -0.1095
 2658TIP3   OH229464   0.979   5.880   2.603 -0.1113 -0.4263  0.5811
 2658TIP3    H129465   0.958   5.930   2.524 -0.0034  0.4078  1.0729
 2658TIP3    H229466   0.927   5.921   2.672 -1.1183 -1.9031  0.7313
 2659TIP3   OH229467   3.649   0.173   5.098 -0.3562 -0.7257 -0.5983
 2659TIP3    H129468   3.695   0.090   5.088  0.6584 -0.1244 -1.1251
 2659TIP3    H229469   3.613   0.191   5.011  1.1024  0.3181 -1.0194
 2660TIP3   OH229470   2.800   0.911   1.527  0.0526  0.7488 -0.9668
 2660TIP3    H129471   2.797   0.935   1.620 -3.1913  0.4219 -0.8807
 2660TIP3    H229472   2.783   0.993   1.481  1.2107  0.8232 -1.2787
 2661TIP3   OH229473   4.400   5.818   1.762 -0.1704  1.0332  0.1795
 2661TIP3    H129474   4.308   5.808   1.784 -0.0607  2.5298  1.4790
 2661TIP3    H229475   4.410   5.911   1.742  1.1065  0.9478  0.3442
 2662TIP3   OH229476   1.293   3.604  14.382  0.6491 -0.4267  0.3749
 2662TIP3    H129477   1.382   3.635  14.370  1.0794 -1.1459  1.5959
 2662TIP3    H229478   1.280   3.603  14.477 -0.0768 -1.8960  0.2843
 2663TIP3   OH229479   3.306   3.866  17.187  0.5954  0.1351  0.6466
 2663TIP3    H129480   3.337   3.952  17.158 -1.7755  1.8392  2.7072
 2663TIP3    H229481   3.382   3.825  17.228  1.9895  0.8445 -1.1103
 2664TIP3   OH229482   6.013   2.814  12.003  0.2317  0.9242  0.2361
 2664TIP3    H129483   6.044   2.768  12.081  0.3847 -0.3054 -0.5413
 2664TIP3    H229484   5.919   2.825  12.018  0.0578 -0.2812  0.1261
 2665TIP3   OH229485   4.419   3.135  17.068  0.3191  0.1423  0.2418
 2665TIP3    H129486   4.440   3.071  17.135 -1.5802 -0.6848  0.1099
 2665TIP3    H229487   4.457   3.100  16.988  2.0413  0.8182  0.7143
 2666TIP3   OH229488   2.981   5.686   2.020  0.4654  0.3419 -0.6331
 2666TIP3    H129489   3.063   5.691   1.972  0.5427 -0.0823 -0.5430
 2666TIP3    H229490   2.929   5.619   1.975  0.6916 -0.3404  0.0967
 2667TIP3   OH229491   4.164   2.352   3.645  0.1474  0.0463  0.6241
 2667TIP3    H129492   4.137   2.443   3.644  0.9785  0.3156  1.4819
 2667TIP3    H229493   4.102   2.309   3.704 -1.8575 -0.5221 -1.7034
 2668TIP3   OH229494   3.279   3.960  12.961 -0.0437  0.0715  0.0671
 2668TIP3    H129495   3.189   3.932  12.978 -0.6455  2.0666  0.5488
 2668TIP3    H229496   3.279   3.985  12.869 -0.0245  0.1470  0.0872
 2669TIP3   OH229497   2.973   4.206  16.865  0.1381 -0.2471  0.0658
 2669TIP3    H129498   3.009   4.294  16.854  0.8467 -0.5516 -0.1182
 2669TIP3    H229499   2.980   4.167  16.779  2.1324 -1.3204  0.6505
 2670TIP3   OH229500   4.885   0.656  12.251  0.4120  0.1145  0.1592
 2670TIP3    H129501   4.852   0.736  12.211  0.2522  1.4646  2.7923
 2670TIP3    H229502   4.963   0.683  12.300  1.6095 -1.7667 -0.5642
 2671TIP3   OH229503   1.853   5.493  15.749  0.5857  0.0614  0.3900
 2671TIP3    H129504   1.846   5.585  15.725  2.3461 -0.2915 -1.8853
 2671TIP3    H229505   1.775   5.475  15.801 -0.7784  2.3623 -0.7035
 2672TIP3   OH229506   3.851   3.413   5.052  0.4672 -0.2074 -0.2089
 2672TIP3    H129507   3.865   3.369   4.968 -1.3941  0.5545 -0.9872
 2672TIP3    H229508   3.863   3.506   5.034  0.7710 -0.0907  0.5431
 2673TIP3   OH229509   0.480   6.270  14.863 -0.4985  0.3090 -0.3079
 2673TIP3    H129510   0.461   6.177  14.877 -0.3236  0.4159  0.7693
 2673TIP3    H229511   0.397   6.308  14.833 -0.7594 -0.0733 -0.0801
 2674TIP3   OH229512   0.590   4.629  12.232  0.2257  0.5462  0.5125
 2674TIP3    H129513   0.678   4.612  12.265 -0.3024 -0.0498  1.6931
 2674TIP3    H229514   0.539   4.553  12.259 -0.8766  1.3326  0.7398
 2675TIP3   OH229515   5.682   3.878  16.628  0.4937  0.2790  0.4290
 2675TIP3    H129516   5.634   3.818  16.685 -1.4846  1.6695  0.3348
 2675TIP3    H229517   5.730   3.821  16.568 -1.3629 -1.2413  0.2786
 2676TIP3   OH229518   5.686   5.269  17.033  0.0394 -0.1663 -0.5336
 2676TIP3    H129519   5.751   5.297  16.969  0.3562  1.8655  0.5897
 2676TIP3    H229520   5.719   5.186  17.066  1.4330  0.2289 -0.8640
 2677TIP3   OH229521   6.600   1.209  13.701  0.7577  0.2586  0.5793
 2677TIP3    H129522   6.602   1.241  13.791 -0.8917 -0.9042  1.0730
 2677TIP3    H229523   6.686   1.167  13.690  0.5830 -0.5587  2.0070
 2678TIP3   OH229524   0.956   4.026  15.513  0.5349  0.1818  0.4136
 2678TIP3    H129525   0.955   4.028  15.608 -0.5964 -0.6993  0.4460
 2678TIP3    H229526   0.903   3.949  15.490  1.9244 -0.4579 -0.9010
 2679TIP3   OH229527   6.203   5.722  16.127 -0.4637 -0.7211 -0.0880
 2679TIP3    H129528   6.148   5.783  16.079 -0.5174 -2.2761 -2.1490
 2679TIP3    H229529   6.148   5.646  16.141  0.5116 -1.5044 -0.3592
 2680TIP3   OH229530   0.451   3.108   0.146  0.0157 -0.1674  0.2897
 2680TIP3    H129531   0.468   3.068   0.231  0.1039 -0.5461  0.0925
 2680TIP3    H229532   0.468   3.202   0.160 -1.8974  0.0839  1.2080
 2681TIP3   OH229533   1.348   5.303  15.467 -0.4590  0.0811  0.2235
 2681TIP3    H129534   1.336   5.365  15.395  2.2176  2.4765  1.6207
 2681TIP3    H229535   1.412   5.346  15.525 -0.8421 -2.6627  2.9299
 2682TIP3   OH229536   0.828   5.906   3.084 -0.4770  0.4028  0.7295
 2682TIP3    H129537   0.872   5.968   3.026  0.6287 -0.1268  0.9710
 2682TIP3    H229538   0.735   5.926   3.075 -0.2617  0.9399 -0.5302
 2683TIP3   OH229539   1.682   2.899  14.972  0.2670 -0.0771  0.1998
 2683TIP3    H129540   1.637   2.827  15.016  0.6624 -0.0390  0.6710
 2683TIP3    H229541   1.685   2.873  14.880 -0.7938 -0.0423  0.1459
 2684TIP3   OH229542   2.858   1.890   0.032  0.1546 -0.3643 -0.7290
 2684TIP3    H129543   2.801   1.814   0.032 -2.2152  1.2423  1.3332
 2684TIP3    H229544   2.864   1.916   0.124  2.2448  1.0277 -1.1680
 2685TIP3   OH229545   2.360   4.289   0.956 -0.1861  0.2099 -0.0386
 2685TIP3    H129546   2.317   4.285   1.041  0.6405 -0.8617  0.3505
 2685TIP3    H229547   2.433   4.227   0.963 -1.3205 -1.5137 -2.1952
 2686TIP3   OH229548   1.693   6.354   0.300  0.1850 -0.2043 -0.4104
 2686TIP3    H129549   1.784   6.363   0.271  0.5364  0.6989  0.8709
 2686TIP3    H229550   1.649   6.430   0.263 -0.0223 -0.5631 -0.9076
 2687TIP3   OH229551   2.642   1.128   4.274  0.1970 -0.2529 -0.0384
 2687TIP3    H129552   2.651   1.183   4.196 -4.8393 -1.0921 -1.5823
 2687TIP3    H229553   2.644   1.190   4.347  1.1379  1.0450 -1.1131
 2688TIP3   OH229554   2.346   0.973   3.255 -0.1900 -0.4614  0.5647
 2688TIP3    H129555   2.276   0.958   3.192  0.4985  1.2893 -0.6984
 2688TIP3    H229556   2.422   0.927   3.219  0.4334  1.2455 -0.3922
 2689TIP3   OH229557   6.010   2.061   0.283 -0.3681 -0.3445 -0.1545
 2689TIP3    H129558   5.944   2.013   0.234 -1.2073  1.2398 -0.6452
 2689TIP3    H229559   5.983   2.051   0.375 -0.6198 -0.6892 -0.2653
 2690TIP3   OH229560   5.531   0.189  12.269 -0.0270  1.2622  0.1441
 2690TIP3    H129561   5.452   0.209  12.319 -0.3356  0.6427 -0.0778
 2690TIP3    H229562   5.528   0.094  12.257  1.6687  0.9582  1.6604
 2691TIP3   OH229563   3.690   3.640   4.132 -0.1287 -0.0560  0.2314
 2691TIP3    H129564   3.731   3.727   4.136 -0.5118  0.1194  0.3631
 2691TIP3    H229565   3.747   3.590   4.074  0.3578  0.1434  0.5200
 2692TIP3   OH229566   0.920   3.288  11.820 -0.3835  0.3539  0.6679
 2692TIP3    H129567   1.003   3.241  11.814 -0.5921  0.1297 -0.9527
 2692TIP3    H229568   0.923   3.352  11.748 -1.2168  1.0104  1.1894
 2693TIP3   OH229569   5.363   4.468   1.327  0.8464 -0.2155  0.6699
 2693TIP3    H129570   5.373   4.419   1.246  1.2456 -1.8312  1.6344
 2693TIP3    H229571   5.393   4.408   1.395  0.1836  0.9452  2.0552
 2694TIP3   OH229572   3.114   2.138   4.795  0.8431  0.3754 -0.3013
 2694TIP3    H129573   3.107   2.045   4.817 -0.6435  0.5434  0.0753
 2694TIP3    H229574   3.094   2.142   4.701  1.3975  0.2626 -0.4242
 2695TIP3   OH229575   0.394   1.773   4.189 -0.0446  0.3551 -0.0667
 2695TIP3    H129576   0.427   1.824   4.263 -1.5863  1.1458  0.1278
 2695TIP3    H229577   0.469   1.722   4.159  0.9154  0.9140  1.2882
 2696TIP3   OH229578   5.277   3.359   3.347  0.2357 -0.1106 -0.1838
 2696TIP3    H129579   5.255   3.395   3.432  0.5806 -0.3756  0.0213
 2696TIP3    H229580   5.246   3.424   3.284  0.8952  0.5727  0.1834
 2697TIP3   OH229581   2.503   4.219  15.120  0.0041 -0.1111 -0.0050
 2697TIP3    H129582   2.450   4.286  15.077  0.2556  1.2067  1.6183
 2697TIP3    H229583   2.489   4.140  15.068 -0.7374  1.0567 -1.6679
 2698TIP3   OH229584   0.820   3.186  15.762 -0.4983  0.0118 -0.1580
 2698TIP3    H129585   0.844   3.128  15.689  0.4566 -0.1925  0.3126
 2698TIP3    H229586   0.724   3.187  15.760 -0.4880 -0.0846 -1.3425
 2699TIP3   OH229587   5.603   0.849   2.829  0.0956 -0.8767 -0.3687
 2699TIP3    H129588   5.619   0.938   2.862  3.3131 -1.6505  0.4355
 2699TIP3    H229589   5.641   0.848   2.741  2.1847 -1.9841  0.4738
 2700TIP3   OH229590   4.310   4.577  11.524  0.1334 -0.2587 -0.4331
 2700TIP3    H129591   4.269   4.642  11.581  0.0097  1.5052 -2.4186
 2700TIP3    H229592   4.248   4.503  11.524 -1.9344  1.3730 -1.4657
 2701TIP3   OH229593   3.813   2.178   6.123 -0.0566  0.8000 -0.1907
 2701TIP3    H129594   3.785   2.268   6.134  0.1892  0.6993  1.6305
 2701TIP3    H229595   3.735   2.126   6.141 -0.2995  0.6224 -1.6210
 2702TIP3   OH229596   4.281   1.623  14.730  0.5650  0.1898  0.0799
 2702TIP3    H129597   4.304   1.667  14.648 -0.2747  0.8162  0.1776
 2702TIP3    H229598   4.296   1.689  14.798  0.6528 -0.1288  0.3728
 2703TIP3   OH229599   1.603   6.691  12.303  0.5338  0.5160  0.0783
 2703TIP3    H129600   1.621   6.635  12.379  0.1655 -1.3226 -1.1303
 2703TIP3    H229601   1.522   6.657  12.266 -0.8466  3.1899  0.4386
 2704TIP3   OH229602   0.620   3.612  11.782  0.4010  0.2398  0.1559
 2704TIP3    H129603   0.576   3.530  11.804 -0.5439  0.8915  0.8157
 2704TIP3    H229604   0.621   3.615  11.687 -0.2559 -0.1828  0.1303
 2705TIP3   OH229605   4.722   3.655  13.478  0.2951  0.6987 -0.1193
 2705TIP3    H129606   4.657   3.724  13.485 -0.5272 -0.0296 -0.4710
 2705TIP3    H229607   4.789   3.691  13.420 -0.8662  0.6542 -1.5368
 2706TIP3   OH229608   6.214   3.246  14.608 -0.4418 -0.3029  0.4649
 2706TIP3    H129609   6.298   3.284  14.632 -0.0923  0.3001 -1.5216
 2706TIP3    H229610   6.149   3.305  14.647  0.0868  0.6484 -0.0571
 2707TIP3   OH229611   0.562   5.264   2.243  0.6091  0.3089 -0.6737
 2707TIP3    H129612   0.493   5.289   2.182  0.9565  2.0908 -0.3837
 2707TIP3    H229613   0.537   5.177   2.272 -0.7615  0.3391 -1.6382
 2708TIP3   OH229614   6.800   0.214  13.507 -0.6536 -0.2605  0.1967
 2708TIP3    H129615   6.840   0.218  13.594 -0.2571  0.5877 -0.0179
 2708TIP3    H229616   6.834   0.133  13.469 -1.0191 -0.7632  0.9097
 2709TIP3   OH229617   3.778   5.088  15.584  0.4076 -0.0427  0.2134
 2709TIP3    H129618   3.848   5.151  15.605 -0.5559  1.9795 -2.1335
 2709TIP3    H229619   3.701   5.123  15.629  0.4394 -1.2367  1.2623
 2710TIP3   OH229620   1.473   0.287  11.864 -0.1672  0.4860 -0.3637
 2710TIP3    H129621   1.416   0.296  11.941 -1.8019 -0.3141 -1.4260
 2710TIP3    H229622   1.470   0.372  11.822 -1.7011  0.1002 -1.1167
 2711TIP3   OH229623   5.334   1.334   4.684 -0.3055  0.1231 -0.1231
 2711TIP3    H129624   5.241   1.315   4.681 -0.1590 -0.7780  0.4564
 2711TIP3    H229625   5.356   1.362   4.595 -1.1776  0.6287 -0.1860
 2712TIP3   OH229626   6.149   1.805  14.709 -0.2607  0.8074  0.0964
 2712TIP3    H129627   6.123   1.713  14.698  0.0244  0.7128  0.1952
 2712TIP3    H229628   6.176   1.811  14.801  0.3558  0.8295 -0.0858
 2713TIP3   OH229629   1.708   0.423  13.053 -0.3433  0.2192 -0.0427
 2713TIP3    H129630   1.724   0.502  13.001 -1.5549 -1.3623 -3.0712
 2713TIP3    H229631   1.625   0.440  13.097 -0.3416  0.8386 -0.2646
 2714TIP3   OH229632   6.206   4.780  16.225  0.2951  0.2398  0.9321
 2714TIP3    H129633   6.120   4.754  16.194  0.2989  1.9941 -0.7959
 2714TIP3    H229634   6.213   4.744  16.313 -2.4565  0.6214  1.3706
 2715TIP3   OH229635   4.890   3.774  12.983  0.1129 -0.1841 -0.3411
 2715TIP3    H129636   4.833   3.757  12.908  0.3002 -1.6542 -0.1854
 2715TIP3    H229637   4.832   3.808  13.051 -0.0336  1.3080 -1.1818
 2716TIP3   OH229638   1.454   0.603  11.834  0.0626  0.6494  0.5327
 2716TIP3    H129639   1.542   0.580  11.866 -0.1902  0.5813  1.1971
 2716TIP3    H229640   1.460   0.696  11.812  0.7012  0.3163 -0.8257
 2717TIP3   OH229641   3.169   2.205  12.982 -0.4649  0.0441  0.2729
 2717TIP3    H129642   3.086   2.199  13.029 -0.7053 -0.3280 -0.1863
 2717TIP3    H229643   3.191   2.298  12.983  0.9734 -0.1785  3.5507
 2718TIP3   OH229644   1.524   4.470  15.531 -0.2826  0.6927 -0.5395
 2718TIP3    H129645   1.474   4.457  15.450  0.7289  0.3312 -1.1164
 2718TIP3    H229646   1.545   4.382  15.560 -0.7524  0.8129  0.2146
 2719TIP3   OH229647   2.132   4.411   1.122  0.8566 -0.4401 -0.0615
 2719TIP3    H129648   2.189   4.395   1.197  1.2173 -0.6551 -0.3774
 2719TIP3    H229649   2.142   4.504   1.102  0.9595 -0.4403 -0.0070
 2720TIP3   OH229650   2.486   3.734   1.689 -0.2401  0.5774  0.1758
 2720TIP3    H129651   2.432   3.809   1.663 -0.3098  0.4965  0.0864
 2720TIP3    H229652   2.496   3.683   1.608 -3.0142 -1.3285  0.8770
 2721TIP3   OH229653   3.355   5.781  13.831  0.8516 -0.6012 -0.2423
 2721TIP3    H129654   3.304   5.838  13.889  2.1634  1.3926 -0.9430
 2721TIP3    H229655   3.395   5.717  13.891 -0.2398 -0.5073  0.6378
 2722TIP3   OH229656   2.511   2.828  12.458 -0.4761 -0.5949  0.4193
 2722TIP3    H129657   2.518   2.906  12.403  0.3961 -0.5061  0.6397
 2722TIP3    H229658   2.420   2.826  12.485 -0.7734 -0.2882 -0.5114
 2723TIP3   OH229659   4.718   1.414  14.851 -0.1595 -0.7834  0.4523
 2723TIP3    H129660   4.671   1.344  14.805  0.0158  0.0970 -1.1402
 2723TIP3    H229661   4.648   1.469  14.888 -0.3947 -0.1668 -0.8500
 2724TIP3   OH229662   0.627   5.472   2.549  0.1402 -0.0894 -0.1015
 2724TIP3    H129663   0.712   5.460   2.593 -0.1686 -1.2955  0.2114
 2724TIP3    H229664   0.648   5.517   2.467  0.8622  1.2413  0.7675
 2725TIP3   OH229665   2.397   3.026  14.703 -0.1419 -0.1450 -0.0440
 2725TIP3    H129666   2.402   3.113  14.744  0.2102  0.0099 -0.4053
 2725TIP3    H229667   2.481   2.985  14.723  0.3627  0.2414 -1.2720
 2726TIP3   OH229668   2.768   2.661  14.545 -0.0206  0.2193  0.4246
 2726TIP3    H129669   2.747   2.751  14.569  1.2439  0.3779  1.0228
 2726TIP3    H229670   2.838   2.669  14.479 -0.9442 -0.3063 -0.6537
 2727TIP3   OH229671   1.389   0.520   1.469 -0.2197 -0.0580 -0.1899
 2727TIP3    H129672   1.332   0.478   1.405 -0.9742  1.4485 -0.5438
 2727TIP3    H229673   1.362   0.483   1.553 -2.1336  0.9963 -0.2823
 2728TIP3   OH229674   6.259   3.131  14.352 -0.0592  0.3284  0.0848
 2728TIP3    H129675   6.230   3.174  14.432  0.4916  0.1752  0.3773
 2728TIP3    H229676   6.355   3.133  14.358  0.0627  2.0922 -1.5244
 2729TIP3   OH229677   2.097   5.273   1.928  0.1680  0.3491 -0.0790
 2729TIP3    H129678   2.187   5.303   1.918  0.3579  0.6806  2.1478
 2729TIP3    H229679   2.063   5.322   2.002 -0.3962 -2.9148  2.0416
 2730TIP3   OH229680   6.578   5.664   0.210 -0.3292  0.2479  0.5949
 2730TIP3    H129681   6.623   5.657   0.294  1.2788  1.1654 -0.1297
 2730TIP3    H229682   6.649   5.678   0.147 -1.5092 -0.2798 -0.8915
 2731TIP3   OH229683   3.080   6.782   5.143 -0.8163 -0.5626  0.3539
 2731TIP3    H129684   3.154   6.779   5.084 -0.5232  0.1352  0.6748
 2731TIP3    H229685   3.008   6.740   5.095 -0.2130 -1.2719  0.0583
 2732TIP3   OH229686   5.733   0.991  12.282 -0.0611 -0.3274  0.2627
 2732TIP3    H129687   5.702   0.986  12.372 -0.9934  0.8344  0.0314
 2732TIP3    H229688   5.828   1.004  12.291 -0.2404  0.5327  1.1109
 2733TIP3   OH229689   5.873   5.086  14.877 -0.1563  0.1376 -0.6257
 2733TIP3    H129690   5.929   5.138  14.819  2.0322 -0.4740  0.8252
 2733TIP3    H229691   5.889   4.996  14.850  1.3684 -0.2065  1.2195
 2734TIP3   OH229692   2.765   3.474   0.362 -1.7499  0.0455 -0.4801
 2734TIP3    H129693   2.731   3.418   0.292  0.8801  1.6130 -3.3143
 2734TIP3    H229694   2.846   3.431   0.389 -0.6686  1.4151 -1.3748
 2735TIP3   OH229695   4.252   5.262   3.988 -0.8512  0.0234 -0.2501
 2735TIP3    H129696   4.303   5.250   4.067 -0.5242  2.9383  0.0865
 2735TIP3    H229697   4.168   5.220   4.007  0.2544 -2.0660  0.3608
 2736TIP3   OH229698   1.237   3.886   0.380  0.3484  0.3783  0.4231
 2736TIP3    H129699   1.171   3.955   0.374 -0.5823 -0.4268  1.1793
 2736TIP3    H229700   1.221   3.844   0.465  1.9887  0.3184  0.7463
 2737TIP3   OH229701   1.540   2.046  14.296 -0.1969  0.0765  0.0084
 2737TIP3    H129702   1.481   1.974  14.315 -0.6298 -0.4501 -2.8897
 2737TIP3    H229703   1.626   2.005  14.285 -0.0769  0.2658  0.2361
 2738TIP3   OH229704   5.979   5.018   1.075  0.2654  0.5512  0.1307
 2738TIP3    H129705   5.996   5.051   0.986  1.2023  1.9403  0.7898
 2738TIP3    H229706   5.987   5.095   1.131 -0.9306 -0.1881  1.3722
 2739TIP3   OH229707   3.380   0.313  15.723 -0.2621  0.0203  0.7374
 2739TIP3    H129708   3.349   0.403  15.712 -0.8571 -0.2234  0.3723
 2739TIP3    H229709   3.468   0.313  15.685 -0.0105  0.5941  1.2989
 2740TIP3   OH229710   2.266   3.235  13.115  0.4839  0.7154 -0.1019
 2740TIP3    H129711   2.256   3.257  13.208  0.3817  2.1468 -0.4335
 2740TIP3    H229712   2.177   3.234  13.081  0.6678  3.3572 -0.8424
 2741TIP3   OH229713   4.908   3.498  16.873  0.6331 -0.5352  0.3051
 2741TIP3    H129714   4.892   3.491  16.967  1.7075  0.2462  0.5788
 2741TIP3    H229715   4.866   3.580  16.847  0.3384 -0.7491  0.1018
 2742TIP3   OH229716   1.649   5.172  15.549  0.2540 -0.1127 -0.2485
 2742TIP3    H129717   1.574   5.117  15.570  0.2366  0.0600  0.1306
 2742TIP3    H229718   1.695   5.183  15.632 -1.1756  2.6527  0.2944
 2743TIP3   OH229719   2.060   1.348  14.215  0.4892 -0.5441 -0.6606
 2743TIP3    H129720   2.009   1.280  14.261 -3.1762  3.4916  2.0355
 2743TIP3    H229721   2.020   1.353  14.129 -2.0049  0.6522  0.4686
 2744TIP3   OH229722   0.247   6.153   0.783  0.0085 -0.4196  0.5876
 2744TIP3    H129723   0.268   6.247   0.784  0.5465 -0.5364  0.9276
 2744TIP3    H229724   0.197   6.138   0.863  0.8665 -0.6226  1.0946
 2745TIP3   OH229725   5.342   3.841  15.118 -0.2126  0.9179  0.5676
 2745TIP3    H129726   5.390   3.865  15.039  0.3355  1.4418  1.0506
 2745TIP3    H229727   5.252   3.827  15.088  0.1475  0.2843 -0.2892
 2746TIP3   OH229728   6.088   1.249  14.064 -0.6149  0.1205 -0.2001
 2746TIP3    H129729   6.180   1.246  14.088 -0.3237  1.9054 -0.9050
 2746TIP3    H229730   6.087   1.275  13.972 -1.7955  1.7263  0.1961
 2747TIP3   OH229731   5.401   4.928  16.550  0.2808 -0.1378 -0.2212
 2747TIP3    H129732   5.313   4.919  16.588 -0.1682  1.8444 -0.6640
 2747TIP3    H229733   5.411   5.022  16.537  3.2079 -0.0994  1.4957
 2748TIP3   OH229734   5.252   1.562   0.993  0.0917 -0.0844  0.7816
 2748TIP3    H129735   5.269   1.483   0.941  0.6317  0.2753  0.4040
 2748TIP3    H229736   5.261   1.634   0.931  0.9239  0.3633  1.3951
 2749TIP3   OH229737   5.956   5.238  16.301 -0.1792 -0.5131  0.4025
 2749TIP3    H129738   6.045   5.260  16.327  0.3102  0.0327 -1.5170
 2749TIP3    H229739   5.960   5.231  16.205 -2.0333 -1.2602  0.3284
 2750TIP3   OH229740   0.868   6.073  15.324  0.1657  0.2576 -0.4633
 2750TIP3    H129741   0.925   6.001  15.296 -0.1346  0.5935 -2.0263
 2750TIP3    H229742   0.789   6.064  15.270 -2.0221 -1.1067  2.6583
 2751TIP3   OH229743   3.891   2.970   6.629 -0.0840 -0.2923 -0.0193
 2751TIP3    H129744   3.830   3.039   6.654 -1.1739  0.5124 -4.1537
 2751TIP3    H229745   3.970   3.016   6.601 -0.5425 -0.6694 -2.0901
 2752TIP3   OH229746   2.859   4.006  12.255 -0.0112 -0.1505  0.0566
 2752TIP3    H129747   2.898   4.034  12.172 -0.4058 -0.4704 -0.2433
 2752TIP3    H229748   2.925   3.950  12.295  0.7292  1.0628  0.5944
 2753TIP3   OH229749   2.329   3.997  16.153  0.0015  0.1865  0.0000
 2753TIP3    H129750   2.398   3.967  16.094  0.7920  0.6659  0.6655
 2753TIP3    H229751   2.315   3.924  16.213 -0.6660 -0.2273 -0.6430
 2754TIP3   OH229752   6.113   2.800   4.552 -0.2078 -0.1015 -0.0948
 2754TIP3    H129753   6.028   2.762   4.575  0.7234 -2.6755 -0.5763
 2754TIP3    H229754   6.094   2.857   4.478 -1.3908 -1.5745 -0.9903
 2755TIP3   OH229755   4.338   3.438   0.364 -0.4883  1.2037 -0.2013
 2755TIP3    H129756   4.411   3.406   0.310  1.0663  1.2431  1.7637
 2755TIP3    H229757   4.370   3.520   0.402 -0.8708  0.3992  2.0056
 2756TIP3   OH229758   0.495   1.877   6.307 -0.6132  0.1062  0.3127
 2756TIP3    H129759   0.544   1.828   6.240  0.9275  0.5977  1.0485
 2756TIP3    H229760   0.494   1.819   6.383  1.8789  1.4107  1.4473
 2757TIP3   OH229761   3.422   2.374  17.134 -0.1174 -0.3736 -0.1894
 2757TIP3    H129762   3.360   2.364  17.206  1.0124  0.7585  1.0134
 2757TIP3    H229763   3.464   2.459  17.151  1.6619 -1.0450 -0.9966
 2758TIP3   OH229764   4.166   2.350  14.553 -0.3439  0.0437  0.1018
 2758TIP3    H129765   4.209   2.429  14.522 -0.0393 -0.4102 -0.6533
 2758TIP3    H229766   4.145   2.369  14.644  0.5229  0.6573  0.1870
 2759TIP3   OH229767   5.502   3.648  12.181  0.2060 -0.4655  0.1845
 2759TIP3    H129768   5.585   3.680  12.145 -1.7999  2.3999 -2.3669
 2759TIP3    H229769   5.461   3.601  12.109 -0.4629 -1.8925  1.4259
 2760TIP3   OH229770   4.396   6.478   2.957 -0.0731  0.0438  0.0810
 2760TIP3    H129771   4.313   6.456   3.000 -0.8005  0.1193 -1.2141
 2760TIP3    H229772   4.455   6.407   2.981 -0.2099  0.4567  1.7737
 2761TIP3   OH229773   4.659   3.628  12.487 -0.8038  0.0893 -0.0363
 2761TIP3    H129774   4.592   3.633  12.555 -0.7202 -0.1471  0.0663
 2761TIP3    H229775   4.611   3.599  12.409 -0.6251 -1.3254  0.3431
 2762TIP3   OH229776   0.892   3.260  17.199  0.0540  0.5263 -0.6564
 2762TIP3    H129777   0.933   3.254  17.113  0.3716 -0.2335 -0.4639
 2762TIP3    H229778   0.812   3.209  17.191  1.9000 -2.8567  0.5011
 2763TIP3   OH229779   1.042   3.590   1.559 -0.2962  0.0628 -0.3177
 2763TIP3    H129780   1.031   3.684   1.574  0.4001  0.3978 -1.7303
 2763TIP3    H229781   1.105   3.585   1.487 -0.6663 -1.4850 -0.5538
 2764TIP3   OH229782   0.699   5.777  12.309  0.2402 -0.5411 -0.4751
 2764TIP3    H129783   0.698   5.872  12.315 -1.3687 -0.3675 -2.3761
 2764TIP3    H229784   0.657   5.748  12.390  2.0168  0.2333  0.7929
 2765TIP3   OH229785   4.832   0.686   3.328 -0.3427  0.4264 -0.2399
 2765TIP3    H129786   4.875   0.606   3.296 -0.9239  0.1466 -0.3383
 2765TIP3    H229787   4.821   0.740   3.250 -0.5843  0.3014 -0.2925
 2766TIP3   OH229788   1.284   4.832   0.409  0.1191 -0.1041  0.0451
 2766TIP3    H129789   1.302   4.761   0.471  1.9570  1.5462  1.5452
 2766TIP3    H229790   1.332   4.807   0.330  1.5805 -0.1391  0.8898
 2767TIP3   OH229791   1.458   1.267   0.739 -0.3349  0.0502 -0.0828
 2767TIP3    H129792   1.445   1.183   0.783 -1.9694 -0.8288 -2.1030
 2767TIP3    H229793   1.456   1.331   0.809  1.8110 -1.5819  1.6505
 2768TIP3   OH229794   0.228   3.096  13.058  0.3545  0.2637 -0.2898
 2768TIP3    H129795   0.184   3.025  13.011 -0.1185  0.7638 -0.6117
 2768TIP3    H229796   0.247   3.059  13.145  1.1644 -0.6442 -0.8281
 2769TIP3   OH229797   0.139   4.944  11.363  0.8150 -0.0371 -0.3971
 2769TIP3    H129798   0.188   4.877  11.409  1.6176 -0.4133 -1.7432
 2769TIP3    H229799   0.169   4.938  11.272 -0.9962  0.3888 -1.0800
 2770TIP3   OH229800   2.908   0.763   5.423 -0.0695 -0.6891 -0.2123
 2770TIP3    H129801   2.900   0.698   5.354 -1.7661 -2.5455  1.6012
 2770TIP3    H229802   2.832   0.748   5.479 -0.1172  2.3847  0.7255
 2771TIP3   OH229803   1.991   2.547   0.392  0.3541  0.8262 -0.5866
 2771TIP3    H129804   1.934   2.622   0.410 -1.8256 -0.4584 -1.6236
 2771TIP3    H229805   2.029   2.524   0.477 -3.9221 -0.7017  1.1750
 2772TIP3   OH229806   0.271   1.281   0.164  0.7609 -0.2945  0.3810
 2772TIP3    H129807   0.208   1.249   0.230 -2.1762 -1.2997 -2.6221
 2772TIP3    H229808   0.240   1.369   0.142  2.3299  0.4456  0.9702
 2773TIP3   OH229809   4.009   4.809   3.978 -0.2845 -0.0128  0.3350
 2773TIP3    H129810   3.992   4.903   3.988  0.6291  0.2579 -0.5503
 2773TIP3    H229811   4.092   4.804   3.932 -0.5256 -1.2631 -0.0077
 2774TIP3   OH229812   1.261   6.467   1.216  0.1384 -0.2982  0.1081
 2774TIP3    H129813   1.328   6.437   1.277  1.2051  0.8088 -0.4797
 2774TIP3    H229814   1.198   6.514   1.270 -0.1741 -1.3215  0.6638
 2775TIP3   OH229815   0.327   4.535  15.341 -0.7110  0.0229  0.4730
 2775TIP3    H129816   0.370   4.485  15.410 -0.2663 -0.0787  0.1280
 2775TIP3    H229817   0.399   4.578  15.293 -0.9293 -0.6839 -0.5240
 2776TIP3   OH229818   2.269   4.981   2.415 -0.3866 -0.2520 -0.5761
 2776TIP3    H129819   2.363   4.965   2.425 -0.3789 -0.0819 -0.3667
 2776TIP3    H229820   2.233   4.969   2.503 -0.5646 -0.3389 -0.6601
 2777TIP3   OH229821   0.936   2.605   0.681  0.2455  0.5508  0.6602
 2777TIP3    H129822   0.972   2.673   0.738  0.0335  0.8296  0.4621
 2777TIP3    H229823   0.949   2.639   0.592 -1.2809  1.0556  0.6036
 2778TIP3   OH229824   3.491   1.609  12.481  0.1859 -0.4642  0.1048
 2778TIP3    H129825   3.444   1.526  12.483 -1.6227  0.4995  2.1651
 2778TIP3    H229826   3.519   1.618  12.390 -1.0719 -2.5128 -0.5637
 2779TIP3   OH229827   3.650   4.672  13.522 -0.7968 -0.0815 -0.1199
 2779TIP3    H129828   3.565   4.705  13.491 -1.4517 -0.7352  0.9123
 2779TIP3    H229829   3.635   4.579  13.537 -0.7286  0.2603  2.6689
 2780TIP3   OH229830   2.839   0.965   5.099 -0.0514  0.0154  0.3202
 2780TIP3    H129831   2.839   1.057   5.124 -0.6104  0.3413 -0.8051
 2780TIP3    H229832   2.780   0.923   5.162  0.5634  0.3240  1.1271
 2781TIP3   OH229833   6.307   5.592   5.701 -0.5260  0.0151  0.0988
 2781TIP3    H129834   6.306   5.503   5.737  1.0857 -0.4545 -0.8786
 2781TIP3    H229835   6.314   5.579   5.607 -1.4692  1.2004 -0.1470
 2782TIP3   OH229836   0.959   4.261   0.616 -0.6407 -0.3155  0.0349
 2782TIP3    H129837   0.946   4.305   0.532  0.8633 -1.6155 -0.9312
 2782TIP3    H229838   1.016   4.321   0.665 -0.8484  0.0713 -0.1901
 2783TIP3   OH229839   6.147   3.172   5.855  0.2620  0.0173  0.2674
 2783TIP3    H129840   6.158   3.149   5.947  1.3493  0.0648  0.1638
 2783TIP3    H229841   6.199   3.107   5.808 -0.8230 -0.4098 -0.3654
 2784TIP3   OH229842   6.317   1.355  15.919  0.0237  0.4514  0.2576
 2784TIP3    H129843   6.329   1.317  16.006  0.0947 -0.7453 -0.2570
 2784TIP3    H229844   6.266   1.289  15.871  0.7477  0.6983 -0.8808
 2785TIP3   OH229845   2.157   0.468   4.015 -0.4841 -0.0312  0.1972
 2785TIP3    H129846   2.136   0.527   4.087 -1.7276 -0.4348  0.2003
 2785TIP3    H229847   2.252   0.465   4.013 -0.3967  1.6834  0.4218
 2786TIP3   OH229848   6.507   6.702   4.124 -0.3239  0.5027  0.2104
 2786TIP3    H129849   6.498   6.719   4.030  1.1972  1.5540  0.2323
 2786TIP3    H229850   6.462   6.775   4.166  0.4194  0.9306  0.2837
 2787TIP3   OH229851   5.909   2.216   3.747 -0.1734  0.0453  0.0009
 2787TIP3    H129852   5.941   2.210   3.837  1.0035  1.8202 -0.2422
 2787TIP3    H229853   5.822   2.255   3.755  0.0707  0.5201  0.3491
 2788TIP3   OH229854   0.496   4.898  14.298 -0.5287  0.0029 -0.1067
 2788TIP3    H129855   0.563   4.880  14.364 -0.8342  1.2162  0.5627
 2788TIP3    H229856   0.537   4.961  14.239 -0.7118 -0.0688 -0.3125
 2789TIP3   OH229857   6.423   4.879  14.955  0.3994  0.5360  0.2875
 2789TIP3    H129858   6.389   4.868  14.867  0.2943 -1.6021  0.5550
 2789TIP3    H229859   6.515   4.852  14.948  0.4811  0.6845  0.7641
 2790TIP3   OH229860   4.451   2.557  13.827 -0.0876  0.5107  0.0628
 2790TIP3    H129861   4.404   2.585  13.905 -0.4744 -0.8965  0.3545
 2790TIP3    H229862   4.383   2.528  13.767  0.3401 -0.9344  0.2362
 2791TIP3   OH229863   3.871   4.430  11.134  0.1645 -0.0943  0.6007
 2791TIP3    H129864   3.831   4.343  11.130 -0.2708  0.1095  0.5356
 2791TIP3    H229865   3.831   4.472  11.211  0.8412 -0.1783  1.0137
 2792TIP3   OH229866   4.346   2.218  12.935  0.2302  0.1749 -0.0404
 2792TIP3    H129867   4.260   2.256  12.916  0.5489  0.6818 -0.5286
 2792TIP3    H229868   4.342   2.192  13.027 -0.4017  0.3110 -0.0269
 2793TIP3   OH229869   2.470   0.645   5.283 -0.3212  0.2372 -0.5308
 2793TIP3    H129870   2.429   0.604   5.207  0.6543 -0.0525 -0.9139
 2793TIP3    H229871   2.412   0.623   5.356 -0.0602 -1.4631 -0.7994
 2794TIP3   OH229872   2.318   5.199  12.512 -0.0931  0.2275  0.8549
 2794TIP3    H129873   2.364   5.121  12.541 -0.4123 -0.1028  0.4813
 2794TIP3    H229874   2.386   5.253  12.471 -0.2979 -0.9872 -1.1975
 2795TIP3   OH229875   5.567   2.608   2.277 -0.2715 -0.5240  0.0921
 2795TIP3    H129876   5.634   2.545   2.303 -0.1699 -0.3517  0.2508
 2795TIP3    H229877   5.608   2.660   2.208 -0.5071 -0.9156 -0.3481
 2796TIP3   OH229878   3.767   2.671   6.201  0.0176  0.0347 -0.2752
 2796TIP3    H129879   3.758   2.735   6.272 -0.9084 -1.2731  0.8240
 2796TIP3    H229880   3.855   2.687   6.167  0.1103  1.3602  0.4882
 2797TIP3   OH229881   1.074   3.866  11.347 -1.0541  0.0413 -0.4199
 2797TIP3    H129882   1.090   3.910  11.264  1.4290 -1.8252 -1.0576
 2797TIP3    H229883   1.086   3.934  11.413  1.0685  0.7455 -1.4327
 2798TIP3   OH229884   5.194   4.354   6.062 -0.0172  0.3541  0.4365
 2798TIP3    H129885   5.147   4.306   6.131  1.6780 -0.4666  1.1066
 2798TIP3    H229886   5.131   4.417   6.029 -1.5537 -0.6549  1.2967
 2799TIP3   OH229887   1.485   4.953  12.444 -0.0127 -0.8801 -0.1706
 2799TIP3    H129888   1.576   4.980  12.456  0.2196 -1.6020 -0.2591
 2799TIP3    H229889   1.439   4.990  12.520  0.5823 -1.5045  0.5086
 2800TIP3   OH229890   0.548   4.125   4.851  0.6510  0.1440 -0.7177
 2800TIP3    H129891   0.561   4.030   4.849  0.8563  0.1729 -0.7267
 2800TIP3    H229892   0.516   4.146   4.764 -0.1894 -0.0326 -0.4603
 2801TIP3   OH229893   1.858   3.593   6.031 -0.4652  0.0037  0.4669
 2801TIP3    H129894   1.876   3.520   5.971 -0.2424  0.6552 -0.2809
 2801TIP3    H229895   1.942   3.640   6.037 -0.1724 -0.6570  2.1602
 2802TIP3   OH229896   5.266   1.726   0.775 -0.2576 -0.2256  0.5560
 2802TIP3    H129897   5.330   1.776   0.827  0.7471  0.1190 -0.9221
 2802TIP3    H229898   5.214   1.794   0.731  1.8595 -0.2684 -2.3782
 2803TIP3   OH229899   0.653   1.688   3.787 -0.2260  0.6592 -0.2030
 2803TIP3    H129900   0.713   1.709   3.858 -0.8229  0.2208  0.4494
 2803TIP3    H229901   0.567   1.715   3.820 -0.9050 -1.8271  0.3170
 2804TIP3   OH229902   0.899   1.114   1.362 -0.0564 -0.4088  0.3507
 2804TIP3    H129903   0.833   1.180   1.339 -1.0448 -0.7172  2.1211
 2804TIP3    H229904   0.934   1.144   1.446  0.4839 -1.4269  0.5001
 2805TIP3   OH229905   3.409   2.533  13.112  0.4097  0.2334  0.1712
 2805TIP3    H129906   3.354   2.497  13.043  0.8868 -2.4766  1.0888
 2805TIP3    H229907   3.396   2.628  13.107 -1.6483 -0.0890 -1.8327
 2806TIP3   OH229908   1.748   2.384  14.984  0.1490 -0.0706 -0.6159
 2806TIP3    H129909   1.817   2.449  14.974  0.2744  0.2194  1.7569
 2806TIP3    H229910   1.789   2.301  14.960  0.9155  0.2891 -0.5627
 2807TIP3   OH229911   4.059   1.285  13.483  0.0069 -0.2721  0.5532
 2807TIP3    H129912   4.146   1.269  13.521  0.1263  0.7130  0.7329
 2807TIP3    H229913   4.071   1.269  13.390  0.5882  0.5621  0.4688
 2808TIP3   OH229914   6.137   6.609   4.249  0.5484  0.0761  0.1154
 2808TIP3    H129915   6.083   6.536   4.218  0.7196 -1.2482  2.6849
 2808TIP3    H229916   6.095   6.687   4.213 -0.6870 -1.1402 -1.2513
 2809TIP3   OH229917   2.464   3.145  16.243 -0.4840 -0.3792  0.0030
 2809TIP3    H129918   2.521   3.095  16.302  0.3647  0.2775 -0.2465
 2809TIP3    H229919   2.397   3.082  16.215  0.4221 -1.3144 -0.1124
 2810TIP3   OH229920   3.222   1.972   2.713 -0.0649 -0.1197  0.0125
 2810TIP3    H129921   3.202   2.063   2.693  0.2816 -0.2988 -1.3081
 2810TIP3    H229922   3.211   1.927   2.629  0.9553 -1.0714  0.3598
 2811TIP3   OH229923   6.202   0.335   4.380 -0.5099  0.0721  0.2045
 2811TIP3    H129924   6.256   0.268   4.422  2.2648  1.6847 -0.5441
 2811TIP3    H229925   6.132   0.352   4.444 -0.0207 -1.9284  1.3602
 2812TIP3   OH229926   6.474   0.318   3.590 -0.0181 -0.2038 -0.1852
 2812TIP3    H129927   6.406   0.254   3.610 -0.2631 -0.0405 -0.4785
 2812TIP3    H229928   6.438   0.369   3.517  0.4331 -0.1434 -0.3725
 2813TIP3   OH229929   1.902   4.505  12.926 -0.4892 -0.1399 -0.0093
 2813TIP3    H129930   1.891   4.593  12.961 -1.3262  0.0843 -0.7697
 2813TIP3    H229931   1.820   4.460  12.946  0.6862 -1.4800  2.2449
 2814TIP3   OH229932   5.784   1.970  11.770  0.2583 -0.2483  0.3341
 2814TIP3    H129933   5.873   2.006  11.774  0.3718 -0.4437 -0.2284
 2814TIP3    H229934   5.778   1.912  11.846  0.5218 -0.0358  0.5207
 2815TIP3   OH229935   1.311   2.054  16.360 -0.2932  1.0302  0.4732
 2815TIP3    H129936   1.308   1.979  16.419 -2.0471  1.2614  0.7148
 2815TIP3    H229937   1.401   2.054  16.326  0.2518 -0.1088  1.8249
 2816TIP3   OH229938   3.960   5.802  13.515 -0.1192  0.4061  0.2682
 2816TIP3    H129939   3.991   5.748  13.442  1.1484  1.1756  0.2108
 2816TIP3    H229940   4.011   5.771  13.590 -1.0199 -0.0055  0.7195
 2817TIP3   OH229941   6.735   2.797  11.558  0.1096 -0.9052  0.8583
 2817TIP3    H129942   6.767   2.843  11.480 -0.1304 -0.1763  1.1792
 2817TIP3    H229943   6.688   2.721  11.524 -0.7947 -0.0990  0.2336
 2818TIP3   OH229944   5.572   2.721   1.565 -0.0245  0.0110  0.4109
 2818TIP3    H129945   5.591   2.711   1.658  1.8916  1.1933  0.2128
 2818TIP3    H229946   5.496   2.779   1.562  0.6611  0.9964  1.2662
 2819TIP3   OH229947   3.411   5.148  13.459 -0.3141 -0.0038  0.1154
 2819TIP3    H129948   3.360   5.134  13.538 -0.8447 -0.4867 -0.3050
 2819TIP3    H229949   3.367   5.095  13.392  1.1444 -1.0405 -0.0900
 2820TIP3   OH229950   5.201   0.244  10.959  0.1443  0.0120  0.5000
 2820TIP3    H129951   5.196   0.237  10.864 -0.2053 -0.8670  0.5713
 2820TIP3    H229952   5.275   0.303  10.975 -0.3427  0.8839 -0.3237
 2821TIP3   OH229953   5.640   0.468  11.573 -0.4889 -0.0426 -0.0166
 2821TIP3    H129954   5.729   0.503  11.579 -0.6209  0.2627  0.2002
 2821TIP3    H229955   5.591   0.517  11.639 -0.9413  0.1518 -0.5014
 2822TIP3   OH229956   0.845   6.015   2.783 -0.0455  0.9117 -0.4746
 2822TIP3    H129957   0.753   6.022   2.809  0.7597  1.0918  2.7139
 2822TIP3    H229958   0.881   6.101   2.800  1.6598 -0.2919  2.9817
 2823TIP3   OH229959   4.034   2.790  13.444 -0.2278 -0.3548 -0.5588
 2823TIP3    H129960   4.124   2.823  13.440 -0.0877 -0.5361  0.6887
 2823TIP3    H229961   3.981   2.867  13.462 -0.3263 -0.2552 -1.2501
 2824TIP3   OH229962   6.803   2.908  16.543 -0.1848 -0.1157  0.2908
 2824TIP3    H129963   6.764   2.888  16.628 -0.1961  0.1847  0.3532
 2824TIP3    H229964   6.800   3.003  16.536 -1.0418 -0.1859 -0.4493
 2825TIP3   OH229965   4.935   1.488  12.771  0.2424 -0.8434  0.0673
 2825TIP3    H129966   5.024   1.517  12.750 -0.4058  0.9171 -0.4182
 2825TIP3    H229967   4.947   1.421  12.839  1.9377 -0.7918 -0.1337
 2826TIP3   OH229968   1.814   0.197  12.141  0.3381  0.5123 -0.6804
 2826TIP3    H129969   1.746   0.149  12.093  0.2767 -0.0887 -0.0171
 2826TIP3    H229970   1.867   0.128  12.182 -0.3852  0.9749  1.1701
 2827TIP3   OH229971   1.777   1.993  12.475 -0.4090 -0.5680 -0.0356
 2827TIP3    H129972   1.797   1.907  12.512 -0.6871 -0.3383  0.6657
 2827TIP3    H229973   1.745   1.973  12.386 -0.2820 -1.1730  0.0453
 2828TIP3   OH229974   0.927   0.606  16.686  0.0857  0.0002  0.4359
 2828TIP3    H129975   0.885   0.576  16.605  0.2156 -0.3518  0.4953
 2828TIP3    H229976   0.896   0.545  16.753  0.2477  0.0835  0.5878
 2829TIP3   OH229977   2.195   5.965  14.628  0.0392 -0.2655  0.1937
 2829TIP3    H129978   2.169   5.979  14.537  1.7851  1.6662 -0.0734
 2829TIP3    H229979   2.113   5.972  14.678 -0.8672 -0.8973 -1.1536
 2830TIP3   OH229980   6.526   1.669   5.834 -0.1664  0.0784 -0.1722
 2830TIP3    H129981   6.592   1.605   5.861 -0.8129 -0.0484  1.1249
 2830TIP3    H229982   6.511   1.723   5.911 -1.6050  0.0940 -0.4398
 2831TIP3   OH229983   3.270   5.670   5.780  0.2436  0.1085  0.5699
 2831TIP3    H129984   3.237   5.625   5.702 -0.1347 -1.3504  1.5305
 2831TIP3    H229985   3.364   5.653   5.780  0.1645 -0.3620  0.7011
 2832TIP3   OH229986   2.214   4.701  14.024 -0.3292  0.1122  0.6077
 2832TIP3    H129987   2.293   4.649  14.041  1.3557  2.0101 -0.8973
 2832TIP3    H229988   2.218   4.720  13.930 -2.3784  0.6389  0.5789
 2833TIP3   OH229989   0.076   5.665  14.973  0.4040 -0.1875 -0.1942
 2833TIP3    H129990   0.166   5.688  14.997  0.8138  1.6907 -2.9520
 2833TIP3    H229991   0.085   5.615  14.892 -1.0186 -1.7621  0.5616
 2834TIP3   OH229992   1.436   0.890  16.641  0.1698 -0.3930  0.2465
 2834TIP3    H129993   1.366   0.943  16.602 -1.2071 -0.2708  2.6293
 2834TIP3    H229994   1.461   0.939  16.720  2.7664 -0.6084 -0.3588
 2835TIP3   OH229995   3.276   5.447  16.313 -0.0507  0.2454 -0.5385
 2835TIP3    H129996   3.251   5.418  16.225  0.0790 -1.3540 -0.0854
 2835TIP3    H229997   3.268   5.368  16.367  0.9215  0.9412  0.6667
 2836TIP3   OH229998   4.706   1.737  16.185  0.6855 -0.4712 -0.2250
 2836TIP3    H129999   4.777   1.800  16.179  2.0641 -1.6729  1.8705
 2836TIP3    H230000   4.633   1.786  16.223  1.1423  0.2744 -0.3023
 2837TIP3   OH230001   5.156   1.887   3.186  0.2851  0.0469  0.4675
 2837TIP3    H130002   5.156   1.976   3.150  2.0513  0.3384  1.0857
 2837TIP3    H230003   5.081   1.884   3.244 -0.7040  0.6167 -0.7308
 2838TIP3   OH230004   0.005   5.967  12.995  0.1575  0.0397  0.2972
 2838TIP3    H130005   0.100   5.960  12.998  0.1699  0.3258  0.6632
 2838TIP3    H230006  -0.024   5.882  12.963  0.4489 -0.6708  1.8078
 2839TIP3   OH230007   3.526   3.650  14.611 -0.2764 -0.0154 -0.0367
 2839TIP3    H130008   3.608   3.640  14.660 -0.1070 -0.5052 -0.4206
 2839TIP3    H230009   3.458   3.615  14.669 -0.5778  2.4325  1.2676
 2840TIP3   OH230010   2.997   2.203   5.049  0.4626  0.2190 -0.6344
 2840TIP3    H130011   3.025   2.170   4.963 -1.2760  0.0975 -1.1990
 2840TIP3    H230012   2.911   2.164   5.062  0.5663  0.5033  1.0426
 2841TIP3   OH230013   3.688   0.865   3.258 -0.7555 -0.2701  0.3730
 2841TIP3    H130014   3.694   0.878   3.164 -0.1953 -0.4441  0.3819
 2841TIP3    H230015   3.771   0.897   3.293 -0.4521 -1.3142  0.6699
 2842TIP3   OH230016   4.679   4.629  15.587  0.0876 -0.0112  0.2924
 2842TIP3    H130017   4.664   4.722  15.601 -0.7923 -0.2441  1.0128
 2842TIP3    H230018   4.742   4.604  15.654 -0.9720 -0.2649  1.2341
 2843TIP3   OH230019   5.323   6.409   4.412  0.1490  0.3361  0.4112
 2843TIP3    H130020   5.368   6.478   4.362  1.2496 -0.7841 -0.1976
 2843TIP3    H230021   5.231   6.420   4.390  0.4489  0.8094 -0.6864
 2844TIP3   OH230022   4.903   2.044   5.257  0.3519 -0.0399  0.1574
 2844TIP3    H130023   4.914   1.987   5.333  2.5186  0.2804  0.1327
 2844TIP3    H230024   4.882   1.984   5.185  1.6345 -0.7390  0.3338
 2845TIP3   OH230025   4.609   5.011   5.677  0.9686 -0.0887  0.2838
 2845TIP3    H130026   4.601   5.104   5.700  0.1452  0.0620 -0.5641
 2845TIP3    H230027   4.573   4.965   5.753  0.4661  0.3142  0.2910
 2846TIP3   OH230028   4.144   4.656  14.662  0.4177 -1.1174  0.4955
 2846TIP3    H130029   4.148   4.744  14.700  1.3354 -1.4009  1.0761
 2846TIP3    H230030   4.103   4.603  14.730 -0.5084 -1.0750 -0.0100
 2847TIP3   OH230031   5.484   4.125  10.739  0.3752 -0.0220  0.1981
 2847TIP3    H130032   5.419   4.075  10.787  1.5345 -0.3885  1.4649
 2847TIP3    H230033   5.444   4.211  10.725 -0.2730 -0.1537  1.1855
 2848TIP3   OH230034   1.523   3.097   2.695 -0.8452  0.0549 -0.7957
 2848TIP3    H130035   1.518   3.003   2.679 -0.1491  0.0691 -1.1367
 2848TIP3    H230036   1.433   3.129   2.684 -1.2351 -0.6847  0.1130
 2849TIP3   OH230037   0.650   0.512   0.161  0.3123 -0.1656 -0.7629
 2849TIP3    H130038   0.745   0.524   0.156  0.2844  0.1474 -0.6042
 2849TIP3    H230039   0.639   0.436   0.218  0.4507  0.4758  0.1561
 2850TIP3   OH230040   2.251   2.822   5.349  0.6827 -1.1459 -0.0873
 2850TIP3    H130041   2.257   2.894   5.413  1.6861 -1.8351  0.6234
 2850TIP3    H230042   2.285   2.746   5.396 -1.5744 -2.4200 -0.3723
 2851TIP3   OH230043   5.746   4.644   1.333 -0.2530  0.5330 -0.7473
 2851TIP3    H130044   5.738   4.550   1.351 -0.2277  0.6255 -0.2356
 2851TIP3    H230045   5.743   4.650   1.237  0.4832 -0.0567 -0.8219
 2852TIP3   OH230046   5.430   5.539   4.248  0.3486  0.8885  0.1062
 2852TIP3    H130047   5.487   5.529   4.172  0.2781  2.3685 -0.1664
 2852TIP3    H230048   5.349   5.494   4.223  1.3241 -1.1663  0.4725
 2853TIP3   OH230049   0.135   2.927   1.735  0.0959 -0.1483 -0.2989
 2853TIP3    H130050   0.107   2.980   1.661  1.2769  0.2114 -0.5055
 2853TIP3    H230051   0.191   2.985   1.786 -0.5661 -0.4412  0.8044
 2854TIP3   OH230052   0.396   1.893  12.353  0.2845 -0.3968  0.6288
 2854TIP3    H130053   0.372   1.985  12.340 -2.2941 -1.4355 -5.3672
 2854TIP3    H230054   0.323   1.857  12.404 -1.2404  0.1545 -1.0301
 2855TIP3   OH230055   4.602   1.253  16.448 -0.0313  0.5018 -0.2564
 2855TIP3    H130056   4.694   1.270  16.429  0.3006  1.6371  1.9957
 2855TIP3    H230057   4.593   1.158  16.442  0.7745  0.5085 -2.3582
 2856TIP3   OH230058   4.192   3.011  16.529  0.0478  0.0609  0.0904
 2856TIP3    H130059   4.279   3.038  16.501  0.6304 -0.6662  1.1610
 2856TIP3    H230060   4.163   3.081  16.588 -0.0039  0.1928 -0.0912
 2857TIP3   OH230061   2.940   0.444   2.910 -0.1930  0.3394  0.3239
 2857TIP3    H130062   2.930   0.409   2.822 -3.6489 -1.0144  1.0915
 2857TIP3    H230063   2.923   0.538   2.901  0.1162  0.3221 -0.5119
 2858TIP3   OH230064   5.559   1.925   2.254 -0.3298  0.0582 -0.1048
 2858TIP3    H130065   5.642   1.920   2.208 -0.0757 -1.3710  0.4732
 2858TIP3    H230066   5.564   2.007   2.303  0.3551  0.4247 -0.7730
 2859TIP3   OH230067   2.425   0.117   5.231  0.1852  0.1538  0.2123
 2859TIP3    H130068   2.423   0.120   5.136  1.6563  0.7658  0.1801
 2859TIP3    H230069   2.495   0.176   5.256 -1.5511  1.6894  1.7997
 2860TIP3   OH230070   0.579   4.849   0.493  0.1385 -0.2827  0.1292
 2860TIP3    H130071   0.549   4.843   0.403 -0.2224 -1.2018  0.2964
 2860TIP3    H230072   0.499   4.845   0.545  0.2682  1.1332  0.4790
 2861TIP3   OH230073   5.846   0.203   0.657 -0.1564 -0.3133  0.8836
 2861TIP3    H130074   5.863   0.150   0.735 -0.9280 -1.2296  0.4468
 2861TIP3    H230075   5.793   0.146   0.601 -1.6045  1.1565  0.6953
 2862TIP3   OH230076   3.134   6.724  15.348  0.3232 -0.2599  0.0780
 2862TIP3    H130077   3.103   6.792  15.288 -0.8159 -0.0932  0.8209
 2862TIP3    H230078   3.085   6.646  15.322  0.5986 -0.4476  0.1253
 2863TIP3   OH230079   2.493   5.797  10.989  0.3851  0.0456 -0.4641
 2863TIP3    H130080   2.485   5.839  10.903  0.2808  1.5869  0.2751
 2863TIP3    H230081   2.440   5.717  10.981 -0.8102  0.8927 -1.3884
 2864TIP3   OH230082   3.218   2.487   2.580 -0.1008 -0.3157 -0.0679
 2864TIP3    H130083   3.160   2.513   2.652  0.6856 -1.2882  0.9564
 2864TIP3    H230084   3.298   2.538   2.594  0.0974 -0.5929 -0.1936
 2865TIP3   OH230085   0.295   1.346  13.763 -0.5661 -0.0269 -0.8758
 2865TIP3    H130086   0.267   1.427  13.806 -1.7073 -1.3765  1.1298
 2865TIP3    H230087   0.213   1.303  13.738  0.0109 -0.6956 -1.6416
 2866TIP3   OH230088   1.054   2.553   1.709  0.4319 -0.1243 -0.0953
 2866TIP3    H130089   1.118   2.552   1.780 -1.0214 -1.4331  1.2508
 2866TIP3    H230090   1.073   2.474   1.659  1.3607  0.7217 -1.1356
 2867TIP3   OH230091   1.251   3.290   3.685  0.6985 -0.0267 -0.2115
 2867TIP3    H130092   1.336   3.257   3.713  0.3595 -0.0874  0.7729
 2867TIP3    H230093   1.206   3.312   3.766  0.0560  0.7106 -0.7588
 2868TIP3   OH230094   1.544   5.604   0.230  0.2411  0.4786 -0.2227
 2868TIP3    H130095   1.489   5.674   0.265  1.1907  0.7769  0.7232
 2868TIP3    H230096   1.494   5.524   0.247  0.1594  0.7257  0.8144
 2869TIP3   OH230097   3.932   3.977  16.316 -0.4238  0.3755 -0.1670
 2869TIP3    H130098   3.982   3.905  16.278 -0.5561  0.2929 -0.1880
 2869TIP3    H230099   3.897   4.024  16.240 -0.8541  0.0922 -0.1460
 2870TIP3   OH230100   3.875   3.748   5.245  0.3064  0.0377  0.5968
 2870TIP3    H130101   3.906   3.837   5.223  1.1950 -0.3746  0.1058
 2870TIP3    H230102   3.956   3.700   5.264 -0.1085 -0.8729  0.0812
 2871TIP3   OH230103   1.288   2.078   0.525  0.4428  0.3985  0.5434
 2871TIP3    H130104   1.331   2.083   0.440  0.1136  0.3235  0.3718
 2871TIP3    H230105   1.253   2.165   0.540 -2.8870 -0.5022 -1.1859
 2872TIP3   OH230106   5.264   4.621  17.124  0.6728 -0.4232 -0.2649
 2872TIP3    H130107   5.310   4.701  17.148  1.1264 -0.6756 -0.2884
 2872TIP3    H230108   5.258   4.625  17.028 -0.8209  0.4089 -0.1595
 2873TIP3   OH230109   0.784   2.502  15.268 -0.1852 -0.3167 -0.4174
 2873TIP3    H130110   0.696   2.491  15.304 -0.4544  0.9969 -0.6188
 2873TIP3    H230111   0.792   2.596  15.254  1.5258 -0.3314  0.2759
 2874TIP3   OH230112   4.054   3.038  13.185 -0.0769  0.4041 -0.0115
 2874TIP3    H130113   4.129   3.001  13.137 -0.6691 -0.9942  0.0900
 2874TIP3    H230114   4.046   2.983  13.263 -0.1165  1.6682  0.8978
 2875TIP3   OH230115   2.051   1.701   2.522 -0.0584 -1.0263  0.3484
 2875TIP3    H130116   1.988   1.655   2.577 -2.1563  0.4059 -0.7293
 2875TIP3    H230117   2.040   1.793   2.546  0.3076 -0.5723 -1.1498
 2876TIP3   OH230118   3.065   2.566   2.796  0.3858 -0.0775  0.3246
 2876TIP3    H130119   3.001   2.618   2.748  1.0251 -0.4186 -0.9390
 2876TIP3    H230120   3.017   2.487   2.823 -0.2552  0.5859  1.1982
 2877TIP3   OH230121   4.630   4.976  11.587 -0.2051 -0.2026 -0.0687
 2877TIP3    H130122   4.564   4.911  11.609 -0.9817  0.3733 -0.6426
 2877TIP3    H230123   4.595   5.058  11.621  0.3134  0.0706 -0.1833
 2878TIP3   OH230124   1.320   2.633  16.055  0.0956  0.7778  0.0840
 2878TIP3    H130125   1.396   2.649  15.999  0.2833 -0.3040 -0.0007
 2878TIP3    H230126   1.281   2.553  16.020  0.3797 -0.0844  1.6564
 2879TIP3   OH230127   3.401   1.150  12.512  0.2047  0.1393 -0.3890
 2879TIP3    H130128   3.453   1.169  12.434 -1.4912  1.9452 -1.1924
 2879TIP3    H230129   3.413   1.227  12.568 -0.2654 -0.1667  0.1425
 2880TIP3   OH230130   0.803   3.269   0.236 -0.3821  0.1007 -0.7590
 2880TIP3    H130131   0.726   3.277   0.292  0.4499 -0.5652  0.5163
 2880TIP3    H230132   0.772   3.295   0.149 -1.5730  1.6525  0.0825
 2881TIP3   OH230133   3.855   6.321   2.546  0.1458  0.5060 -0.2174
 2881TIP3    H130134   3.870   6.385   2.616 -1.1238  0.0841  0.4865
 2881TIP3    H230135   3.934   6.268   2.545  0.6505  1.2285  0.1206
 2882TIP3   OH230136   6.688   4.254  13.993  0.2295 -0.1292 -0.4749
 2882TIP3    H130137   6.668   4.164  14.020 -1.7289  0.3494 -0.1220
 2882TIP3    H230138   6.615   4.277  13.936  0.4745  1.3839 -0.1976
 2883TIP3   OH230139   3.908   2.922   1.365 -0.1927 -0.2277  0.1421
 2883TIP3    H130140   3.962   2.905   1.288 -1.3823  0.6740 -0.9291
 2883TIP3    H230141   3.901   3.018   1.369 -0.9016 -0.2960  0.8291
 2884TIP3   OH230142   3.940   1.587  14.480  0.3321 -1.1958 -0.5313
 2884TIP3    H130143   3.916   1.629  14.397  0.2089 -1.1546 -0.4759
 2884TIP3    H230144   3.856   1.565  14.520  0.3801 -0.4892 -0.0449
 2885TIP3   OH230145   4.710   6.029   2.429  0.0380 -0.5329 -0.6943
 2885TIP3    H130146   4.734   6.095   2.363  1.3746  0.8308  1.0343
 2885TIP3    H230147   4.650   5.970   2.384 -0.2672  1.1860 -2.6795
 2886TIP3   OH230148   2.004   1.826  11.834  0.5428  0.2767 -0.2131
 2886TIP3    H130149   2.059   1.877  11.774  0.5916 -0.4951 -0.8506
 2886TIP3    H230150   1.920   1.818  11.788 -0.2025  1.6488  0.8612
 2887TIP3   OH230151   2.947   3.948   5.628  0.5237  0.3248  0.5015
 2887TIP3    H130152   3.015   3.993   5.577  0.5251  1.4853  1.4715
 2887TIP3    H230153   2.995   3.911   5.702  0.0900  1.3369  1.3075
 2888TIP3   OH230154   0.493   0.162  16.398 -0.0588 -0.5998 -0.3841
 2888TIP3    H130155   0.514   0.083  16.348 -2.1871 -0.5654 -1.4501
 2888TIP3    H230156   0.406   0.146  16.433 -1.6843  2.1635 -2.7231
 2889TIP3   OH230157   5.203   3.715  11.714  0.1322  0.1038  0.1275
 2889TIP3    H130158   5.131   3.712  11.651  0.6409 -3.3739 -0.4830
 2889TIP3    H230159   5.164   3.681  11.795  0.9450 -1.4972 -0.1203
 2890TIP3   OH230160   1.430   4.907  11.499  0.0091  0.1612 -0.1919
 2890TIP3    H130161   1.458   4.961  11.425  0.0489 -1.2498 -1.2536
 2890TIP3    H230162   1.495   4.836  11.503 -0.5262 -0.2998  0.6062
 2891TIP3   OH230163   2.299   4.136   6.284  0.4868  0.2096 -0.1806
 2891TIP3    H130164   2.392   4.132   6.305  0.5482  0.1424 -0.4534
 2891TIP3    H230165   2.264   4.052   6.315  0.8612 -0.5289 -1.6455
 2892TIP3   OH230166   4.004   1.388   5.528  0.1905 -0.3107 -0.1946
 2892TIP3    H130167   3.981   1.359   5.616 -1.5411 -1.4951 -0.9886
 2892TIP3    H230168   4.004   1.483   5.533  1.4102 -0.3453  1.3597
 2893TIP3   OH230169   6.203   5.847   4.711 -0.0419  0.0415  0.3844
 2893TIP3    H130170   6.141   5.913   4.742  0.4170  0.9271 -0.5194
 2893TIP3    H230171   6.150   5.769   4.696 -0.8321  0.5872  0.2627
 2894TIP3   OH230172   4.331   6.032   4.637 -0.0541  0.1730  0.2519
 2894TIP3    H130173   4.275   5.991   4.571 -0.1544  1.3033 -0.3949
 2894TIP3    H230174   4.414   6.047   4.592  0.5455 -0.8362  0.9918
 2895TIP3   OH230175   2.997   3.972   0.515 -0.8026 -0.2347  0.1834
 2895TIP3    H130176   3.058   3.919   0.463  0.2699  2.3545 -1.4310
 2895TIP3    H230177   3.027   3.962   0.605  0.9684 -0.3459 -0.3845
 2896TIP3   OH230178   1.281   2.272   4.070 -0.4919 -0.4393  0.5530
 2896TIP3    H130179   1.199   2.317   4.051 -0.6220 -0.6539  0.6037
 2896TIP3    H230180   1.301   2.222   3.991 -0.6087 -0.6861  0.6769
 2897TIP3   OH230181   1.327   5.379   6.778  0.3877  0.0294  0.0595
 2897TIP3    H130182   1.257   5.319   6.752  0.0789  0.3350  0.1785
 2897TIP3    H230183   1.399   5.322   6.804  1.1212 -0.3152 -2.4797
 2898TIP3   OH230184   0.154   6.224  16.441  0.2943  0.1189  0.4529
 2898TIP3    H130185   0.238   6.235  16.397  0.0310  0.2952 -0.0132
 2898TIP3    H230186   0.094   6.283  16.394 -0.0664  0.0633  0.8349
 2899TIP3   OH230187   6.023   5.124  12.491  0.0261 -1.2323 -0.0928
 2899TIP3    H130188   6.012   5.075  12.572  0.5000  1.3296  1.6656
 2899TIP3    H230189   6.050   5.059  12.426 -0.6599 -3.4314  1.7091
 2900TIP3   OH230190   2.541   2.193   6.294 -0.5872 -0.2971 -0.4596
 2900TIP3    H130191   2.570   2.234   6.212  0.3955  0.6752  0.3451
 2900TIP3    H230192   2.454   2.229   6.310 -0.8648 -0.6372 -1.1599
 2901TIP3   OH230193   1.370   2.406  11.909 -0.3930  0.1466 -0.2534
 2901TIP3    H130194   1.280   2.381  11.931 -0.4854  1.2037  0.6841
 2901TIP3    H230195   1.405   2.331  11.861 -0.5887 -1.8811  2.5073
 2902TIP3   OH230196   2.121   0.965  14.280  0.1705 -0.3029  0.3216
 2902TIP3    H130197   2.164   1.000  14.202 -0.0281 -0.8540 -0.0468
 2902TIP3    H230198   2.122   1.037  14.343 -0.9602  0.6316 -0.6914
 2903TIP3   OH230199   3.846   4.111   2.688 -0.2494 -0.0810 -0.6980
 2903TIP3    H130200   3.797   4.119   2.607 -0.0937 -0.0093 -0.7849
 2903TIP3    H230201   3.800   4.167   2.750  0.3915  0.9049 -1.0901
 2904TIP3   OH230202   6.445   4.526   2.217  0.1669  0.0398 -0.8261
 2904TIP3    H130203   6.528   4.516   2.171  0.0380 -1.1906 -0.8230
 2904TIP3    H230204   6.466   4.510   2.309 -0.2251 -1.2228 -0.9434
 2905TIP3   OH230205   3.970   4.025   5.174  0.3994  0.5415  0.0990
 2905TIP3    H130206   3.896   4.065   5.221  0.3409 -1.0318  1.4636
 2905TIP3    H230207   3.955   4.047   5.082 -2.7596 -1.0814  0.0837
 2906TIP3   OH230208   1.259   3.422  15.719  0.4111 -0.0356 -0.1692
 2906TIP3    H130209   1.182   3.403  15.773  0.6942 -0.6395  0.0280
 2906TIP3    H230210   1.265   3.348  15.659 -0.7813  1.3159 -2.0773
 2907TIP3   OH230211   5.284   1.441   3.480 -0.2188  0.7332 -0.2803
 2907TIP3    H130212   5.300   1.371   3.543  0.5738  0.8630 -0.3293
 2907TIP3    H230213   5.371   1.473   3.457 -0.5509  1.3726 -0.6698
 2908TIP3   OH230214   3.332   6.351  14.027  0.3047 -0.0276  0.2726
 2908TIP3    H130215   3.384   6.332  14.105 -0.1143  0.7993  0.7634
 2908TIP3    H230216   3.292   6.436  14.045 -0.1777 -0.0507 -0.6474
 2909TIP3   OH230217   2.293   3.000   5.569  0.0811  0.0691  0.6474
 2909TIP3    H130218   2.378   2.957   5.575 -0.2699 -0.6014  0.8321
 2909TIP3    H230219   2.312   3.092   5.587  0.8087 -0.0293  0.4073
 2910TIP3   OH230220   3.990   4.664  15.733 -0.0864 -0.3633 -0.2555
 2910TIP3    H130221   3.929   4.708  15.673 -0.5071 -0.7247 -0.0971
 2910TIP3    H230222   4.010   4.581  15.690  3.1804  1.2006 -2.1177
 2911TIP3   OH230223   1.074   5.500   0.708 -0.0537  0.2447 -0.3479
 2911TIP3    H130224   1.159   5.531   0.675  0.0448  0.7765  0.3775
 2911TIP3    H230225   1.011   5.567   0.679 -0.4605 -0.7727 -1.9722
 2912TIP3   OH230226   6.380   6.141  11.427 -0.6981 -0.1189  0.3873
 2912TIP3    H130227   6.292   6.120  11.458 -0.5877 -0.8539  0.2075
 2912TIP3    H230228   6.379   6.118  11.334 -0.2888 -0.2013  0.4030
 2913TIP3   OH230229   0.909   0.072  14.350  0.2307 -0.7501 -0.1369
 2913TIP3    H130230   0.944   0.003  14.406  2.5130 -0.3797 -1.0127
 2913TIP3    H230231   0.919   0.039  14.261 -1.3154 -0.4300 -0.4584
 2914TIP3   OH230232   3.330   0.698  11.429 -0.4052  0.4737 -0.3931
 2914TIP3    H130233   3.240   0.728  11.441 -0.6135 -0.0010 -0.7003
 2914TIP3    H230234   3.321   0.604  11.411  0.2603  0.1188  1.0045
 2915TIP3   OH230235   6.064   5.327   5.674 -0.5261 -0.0414  0.2326
 2915TIP3    H130236   6.098   5.364   5.755 -1.1851 -0.4187  0.6866
 2915TIP3    H230237   6.048   5.235   5.694  0.2730 -0.3927 -0.6308
 2916TIP3   OH230238   0.512   6.452  15.917  0.4491  0.1076 -0.3488
 2916TIP3    H130239   0.597   6.494  15.923  0.6484 -0.0173 -1.9855
 2916TIP3    H230240   0.454   6.519  15.881 -0.5127  0.6287  1.9680
 2917TIP3   OH230241   3.250   5.087   2.405  0.1062  0.1088  0.1859
 2917TIP3    H130242   3.240   5.008   2.352  1.4267 -1.7146  2.4583
 2917TIP3    H230243   3.266   5.157   2.341 -3.6123 -0.8465 -2.0824
 2918TIP3   OH230244   2.995   6.780  14.696  0.0381 -0.0008 -0.0939
 2918TIP3    H130245   3.038   6.736  14.769  0.5020  1.2258  0.4147
 2918TIP3    H230246   2.901   6.771  14.714  0.1418 -0.0974  0.4127
 2919TIP3   OH230247   4.324   3.365   5.674 -0.0871  0.4678 -0.6116
 2919TIP3    H130248   4.412   3.359   5.710  0.9847  0.4802 -3.0076
 2919TIP3    H230249   4.313   3.284   5.624 -0.5111  1.4290 -2.1594
 2920TIP3   OH230250   5.301   6.608  15.869  0.0124  0.6742 -0.0159
 2920TIP3    H130251   5.283   6.524  15.911  2.4962  0.5971  1.0354
 2920TIP3    H230252   5.250   6.671  15.921 -0.3685  0.0521  0.3798
 2921TIP3   OH230253   1.981   3.918  11.628  0.2324  0.4635 -0.7435
 2921TIP3    H130254   2.066   3.906  11.586 -0.0855 -2.4543 -0.7795
 2921TIP3    H230255   1.993   3.882  11.716 -1.1853 -1.0413 -1.1177
 2922TIP3   OH230256   3.754   6.318  11.234  0.4431  0.5559  0.0645
 2922TIP3    H130257   3.810   6.359  11.168  0.0771  0.0204 -0.5830
 2922TIP3    H230258   3.740   6.387  11.299 -0.8078  1.7247 -1.3800
 2923TIP3   OH230259   6.341   1.510  14.523 -0.2688 -0.8654 -0.0014
 2923TIP3    H130260   6.401   1.525  14.597  1.1890 -1.8035 -0.9494
 2923TIP3    H230261   6.314   1.419  14.533 -2.6413 -0.1139  1.1436
 2924TIP3   OH230262   6.144   0.940  10.217 -0.2711  0.1130 -0.3578
 2924TIP3    H130263   6.148   0.855  10.261 -0.0589  0.3263  0.0391
 2924TIP3    H230264   6.052   0.949  10.189 -1.4111  1.5921  3.3017
 2925TIP3   OH230265   0.079   0.603   2.077  0.6167 -0.3347  0.1740
 2925TIP3    H130266   0.055   0.621   2.168  1.6556 -0.1570  0.4332
 2925TIP3    H230267   0.054   0.512   2.063 -0.6870 -0.0042  0.2325
 2926TIP3   OH230268   5.201   3.884   3.424 -0.3732 -0.6501  0.4743
 2926TIP3    H130269   5.170   3.965   3.466 -0.6525 -0.4096 -0.1706
 2926TIP3    H230270   5.181   3.897   3.331  0.6407 -0.9773  0.2016
 2927TIP3   OH230271   3.895   5.910   3.262  0.4495 -0.4304  0.4747
 2927TIP3    H130272   3.880   5.996   3.302  0.3551 -0.4439  0.4679
 2927TIP3    H230273   3.819   5.858   3.287 -1.1575  0.4459 -2.2175
 2928TIP3   OH230274   0.952   2.722   6.564  0.5303 -0.1042 -0.6560
 2928TIP3    H130275   0.920   2.666   6.493 -0.9798  0.9992 -0.8881
 2928TIP3    H230276   1.047   2.715   6.558  0.4422 -0.2419 -2.6296
 2929TIP3   OH230277   0.811   5.130   2.903  0.5215 -0.1667  0.1610
 2929TIP3    H130278   0.824   5.040   2.934  0.9543 -1.1212 -2.4388
 2929TIP3    H230279   0.721   5.151   2.927  0.0879 -1.7029  0.0340
 2930TIP3   OH230280   3.607   3.736  13.917 -0.5325 -0.2550  0.4706
 2930TIP3    H130281   3.670   3.700  13.979  1.2842  0.8770 -0.6437
 2930TIP3    H230282   3.645   3.721  13.831 -0.4401  2.7278 -0.1259
 2931TIP3   OH230283   1.155   0.219  15.326  0.1113 -0.5193  0.0508
 2931TIP3    H130284   1.232   0.171  15.296  0.5292  0.5795 -0.6800
 2931TIP3    H230285   1.189   0.285  15.386  0.4132  2.7211 -3.2918
 2932TIP3   OH230286   3.603   2.894   2.737 -0.3473 -0.3787  0.6567
 2932TIP3    H130287   3.632   2.865   2.650 -1.4981  1.3934 -0.4113
 2932TIP3    H230288   3.507   2.891   2.732 -0.5243  2.2944  0.8230
 2933TIP3   OH230289   5.445   0.673   4.555 -0.4609 -0.3085 -0.2841
 2933TIP3    H130290   5.496   0.593   4.568  1.1429  0.5420 -1.0340
 2933TIP3    H230291   5.383   0.674   4.627 -1.0168 -2.5741 -0.6377
 2934TIP3   OH230292   5.573   2.282  11.331 -0.3022  0.1619  0.1145
 2934TIP3    H130293   5.622   2.326  11.401  0.8534  0.3516 -0.7927
 2934TIP3    H230294   5.494   2.336  11.320  0.1714  0.9126  0.3359
 2935TIP3   OH230295   0.530   2.547  11.258 -0.2390 -0.2732 -0.6277
 2935TIP3    H130296   0.610   2.582  11.219  1.5823  0.4290  3.2161
 2935TIP3    H230297   0.548   2.453  11.270 -0.0970 -0.1699 -0.0153
 2936TIP3   OH230298   0.242   6.795   3.382  0.2697 -0.6160  0.2332
 2936TIP3    H130299   0.181   6.843   3.438  0.7714 -0.5084  0.6911
 2936TIP3    H230300   0.267   6.719   3.434  1.1001 -0.2728  0.3440
 2937TIP3   OH230301   1.046   4.625  17.112  0.2811 -0.2763 -0.1293
 2937TIP3    H130302   1.055   4.529  17.117  1.0715 -0.1404  1.8024
 2937TIP3    H230303   0.957   4.642  17.144  0.5593 -0.2934  0.6591
 2938TIP3   OH230304   4.452   2.028  11.039  0.3956  0.0883 -0.2243
 2938TIP3    H130305   4.384   1.966  11.014  0.5132 -0.4160  0.6686
 2938TIP3    H230306   4.445   2.033  11.135  0.9321  0.8236 -0.2187
 2939TIP3   OH230307   5.447   5.129   0.211 -0.2879 -0.2185  0.0215
 2939TIP3    H130308   5.431   5.139   0.117 -0.0259 -0.9790 -0.1130
 2939TIP3    H230309   5.379   5.068   0.240 -1.5787  1.4898  0.7199
 2940TIP3   OH230310   3.548   1.152   2.619 -0.5750 -0.4040  0.1086
 2940TIP3    H130311   3.601   1.086   2.663 -1.4376 -1.4126 -0.3234
 2940TIP3    H230312   3.560   1.231   2.671  2.1971 -0.2560 -0.5509
 2941TIP3   OH230313   4.435   3.311  14.026 -0.0018  0.1949  0.2581
 2941TIP3    H130314   4.404   3.356  14.104 -0.8171 -0.2220  0.1912
 2941TIP3    H230315   4.359   3.262  13.994  0.6289 -0.5749 -0.1298
 2942TIP3   OH230316   3.276   2.127  14.447 -0.3755 -0.2362 -0.5820
 2942TIP3    H130317   3.272   2.078  14.365  0.0225  1.1845 -1.4897
 2942TIP3    H230318   3.204   2.190  14.442  0.2836  0.5591 -0.3198
 2943TIP3   OH230319   1.682   4.133  13.734 -0.1255 -0.5467  0.1163
 2943TIP3    H130320   1.625   4.125  13.658 -1.1122 -1.8888  0.9534
 2943TIP3    H230321   1.686   4.228  13.751  1.4270 -0.0522 -2.5004
 2944TIP3   OH230322   3.396   5.313  13.222 -0.0555  0.3680  0.0824
 2944TIP3    H130323   3.304   5.315  13.245  0.1765  2.2318  0.9667
 2944TIP3    H230324   3.439   5.272  13.297 -0.1216 -0.4012 -0.2841
 2945TIP3   OH230325   2.760   6.557   6.469  0.5734  0.8058 -0.3817
 2945TIP3    H130326   2.785   6.647   6.446  1.2897  0.2719 -1.7847
 2945TIP3    H230327   2.667   6.552   6.446  0.3312  1.3945  0.4121
 2946TIP3   OH230328   6.051   1.598  16.808  0.0777  0.3419 -0.2012
 2946TIP3    H130329   6.040   1.507  16.838 -0.4096  0.6725  0.6347
 2946TIP3    H230330   6.129   1.595  16.751  1.4807 -0.1697  1.6509
 2947TIP3   OH230331   0.516   1.904  11.210  0.1768 -0.4099  0.6117
 2947TIP3    H130332   0.507   1.991  11.170 -1.6532 -0.1400  1.5279
 2947TIP3    H230333   0.480   1.844  11.144  0.3426 -0.3586  0.4717
 2948TIP3   OH230334   0.145   1.801  14.929  0.4479 -0.6771 -0.1718
 2948TIP3    H130335   0.225   1.796  14.981  1.4454  1.9072 -1.2848
 2948TIP3    H230336   0.162   1.745  14.853  0.7762 -0.9766  0.1225
 2949TIP3   OH230337   1.781   6.640  13.993 -0.5851 -0.6406  0.0897
 2949TIP3    H130338   1.864   6.646  13.945  0.4050  2.2469  1.8987
 2949TIP3    H230339   1.727   6.583  13.939  0.6548  1.6912 -4.0969
 2950TIP3   OH230340   2.915   4.907  13.882  0.2773 -0.1405  0.2970
 2950TIP3    H130341   2.991   4.849  13.880  0.3295 -0.0485 -0.7436
 2950TIP3    H230342   2.941   4.983  13.831 -1.1961 -0.9911 -1.8630
 2951TIP3   OH230343   3.303   4.742  12.031 -0.2705  0.0406 -0.2461
 2951TIP3    H130344   3.301   4.837  12.024 -1.7463 -0.0059 -0.7180
 2951TIP3    H230345   3.343   4.725  12.117  1.6663  1.0218 -0.9044
 2952TIP3   OH230346   4.380   6.819   0.046  0.0660 -0.1474  0.0449
 2952TIP3    H130347   4.389   6.847   0.137  0.0175 -1.9650  0.6424
 2952TIP3    H230348   4.343   6.731   0.052  3.5885 -1.9101 -1.5701
 2953TIP3   OH230349   5.794   6.499   3.563  0.3997 -0.1545  0.0374
 2953TIP3    H130350   5.829   6.475   3.477 -1.3550 -1.8395 -0.2682
 2953TIP3    H230351   5.797   6.594   3.564 -1.6952  0.0594 -2.8906
 2954TIP3   OH230352   3.069   2.046  14.054  0.1603 -0.0270 -0.0572
 2954TIP3    H130353   3.065   2.012  14.144 -0.4530  2.0068  0.7397
 2954TIP3    H230354   2.983   2.084  14.039  0.0354 -0.8940 -1.7881
 2955TIP3   OH230355   4.186   2.891   5.301 -0.2618  0.2540 -0.2700
 2955TIP3    H130356   4.251   2.959   5.287  0.6755 -0.3616  0.9145
 2955TIP3    H230357   4.159   2.902   5.392 -1.0756 -0.1303 -0.4589
 2956TIP3   OH230358   1.014   2.099   5.460  0.3653  0.7749 -0.0906
 2956TIP3    H130359   1.009   2.069   5.551 -0.5825 -1.4283 -0.8179
 2956TIP3    H230360   0.949   2.170   5.455  0.7018  1.1899  1.0206
 2957TIP3   OH230361   3.102   3.329  13.591  0.1405 -0.4318  0.0351
 2957TIP3    H130362   3.146   3.410  13.620  1.3692 -1.3222  0.7583
 2957TIP3    H230363   3.152   3.302  13.514  0.4144 -1.0790  0.4390
 2958TIP3   OH230364   1.723   0.635  11.665  0.2215  0.2512 -0.0576
 2958TIP3    H130365   1.716   0.707  11.603  1.0994  0.9163  0.5899
 2958TIP3    H230366   1.718   0.677  11.751  0.4763 -0.4827  0.3215
 2959TIP3   OH230367   2.320   4.269  14.110  0.6291 -0.0590 -0.1974
 2959TIP3    H130368   2.414   4.253  14.100  0.9917  0.3686  2.0256
 2959TIP3    H230369   2.287   4.189  14.150  1.0231  1.4529  3.5720
 2960TIP3   OH230370   1.923   6.429   6.682 -0.0717  0.7026  0.1830
 2960TIP3    H130371   1.943   6.358   6.621  1.0133  0.1703  1.1111
 2960TIP3    H230372   1.946   6.394   6.768 -0.1883  1.9350  0.7389
 2961TIP3   OH230373   4.719   3.247   6.130 -0.2949 -0.5605 -0.0783
 2961TIP3    H130374   4.792   3.186   6.126 -1.4150 -1.9530 -0.0981
 2961TIP3    H230375   4.759   3.334   6.120  1.3023 -1.2943 -0.3197
 2962TIP3   OH230376   2.176   3.113  16.692 -0.0920  0.2207 -0.0516
 2962TIP3    H130377   2.220   3.156  16.618 -0.0413  0.7878  0.3081
 2962TIP3    H230378   2.111   3.177  16.722  0.1330  0.1341  0.6291
 2963TIP3   OH230379   1.912   1.009   0.447  0.3366 -0.1345  0.2381
 2963TIP3    H130380   1.962   1.000   0.366 -1.3917 -2.2825 -0.7018
 2963TIP3    H230381   1.855   1.084   0.431  1.2369  0.5585  0.1989
 2964TIP3   OH230382   6.433   2.134  13.911 -0.5984 -0.0731  0.4505
 2964TIP3    H130383   6.526   2.119  13.897 -0.4785  1.8279 -1.1672
 2964TIP3    H230384   6.429   2.214  13.964 -1.2530  1.2583 -1.4773
 2965TIP3   OH230385   4.249   3.583  16.624 -0.4117  0.0840 -0.0051
 2965TIP3    H130386   4.222   3.668  16.588  1.3613  0.3748 -0.7784
 2965TIP3    H230387   4.308   3.605  16.696  0.0294 -0.4854 -0.1850
 2966TIP3   OH230388   2.286   0.504   5.501 -0.0698 -0.0828  0.0222
 2966TIP3    H130389   2.326   0.417   5.500  1.2245  0.4912 -0.2735
 2966TIP3    H230390   2.237   0.509   5.419  1.3326  0.1074 -0.8365
 2967TIP3   OH230391   5.627   0.859   2.347  0.7170 -0.5805 -0.3783
 2967TIP3    H130392   5.539   0.827   2.325  0.6777 -2.2230  1.7804
 2967TIP3    H230393   5.686   0.799   2.303  0.6818 -1.4280  0.6876
 2968TIP3   OH230394   5.402   1.803  13.266 -0.4026  0.3562 -0.1256
 2968TIP3    H130395   5.427   1.740  13.334 -0.8040  0.5952  0.2476
 2968TIP3    H230396   5.349   1.868  13.312  1.0210  1.6598 -0.2307
 2969TIP3   OH230397   3.982   2.200  17.219 -0.2727  0.1652 -0.0705
 2969TIP3    H130398   3.897   2.196  17.263 -1.2569 -0.7691 -1.9604
 2969TIP3    H230399   4.031   2.127  17.257 -0.2336  0.7675  1.1041
 2970TIP3   OH230400   0.833   3.452   1.256  0.2804 -0.3395 -0.1604
 2970TIP3    H130401   0.838   3.533   1.307 -2.2806 -1.2256  1.6859
 2970TIP3    H230402   0.898   3.394   1.296 -0.3590 -0.3638  0.8802
 2971TIP3   OH230403   6.760   1.477   4.070  0.6956  0.2153 -0.0247
 2971TIP3    H130404   6.693   1.415   4.101 -0.2301  0.6874 -1.0015
 2971TIP3    H230405   6.813   1.427   4.008 -0.7603  0.6279 -1.7029
 2972TIP3   OH230406   5.522   2.195   0.979 -0.1241  0.4462  0.2191
 2972TIP3    H130407   5.447   2.179   0.921 -0.4847  1.0952  0.4992
 2972TIP3    H230408   5.595   2.153   0.934 -0.2527  1.5219 -1.0777
 2973TIP3   OH230409   0.082   3.470   2.802 -0.3901 -0.4783  0.3148
 2973TIP3    H130410   0.094   3.467   2.897  0.4602 -0.0462  0.2269
 2973TIP3    H230411   0.156   3.421   2.767  0.0892  0.5721 -0.1692
 2974TIP3   OH230412   2.372   1.635   4.628  0.6767 -0.0836  0.4290
 2974TIP3    H130413   2.366   1.706   4.692 -0.0563 -0.0770  0.3628
 2974TIP3    H230414   2.379   1.679   4.544 -1.7051 -0.0190  0.1866
 2975TIP3   OH230415   3.773   2.320   0.715  0.0896 -0.1331  0.1126
 2975TIP3    H130416   3.748   2.238   0.758  2.6600 -1.2511 -0.3539
 2975TIP3    H230417   3.793   2.295   0.625 -1.1758  1.4430 -0.6568
 2976TIP3   OH230418   3.627   0.621  14.082  0.2057  0.2494 -0.2197
 2976TIP3    H130419   3.532   0.609  14.089  0.4341 -1.4579  0.4212
 2976TIP3    H230420   3.658   0.621  14.172  0.9544 -0.7136 -0.4584
 2977TIP3   OH230421   0.058   2.560   3.098 -0.0050  0.3198 -0.1505
 2977TIP3    H130422   0.105   2.541   3.017  0.2248  2.0761 -0.4621
 2977TIP3    H230423  -0.033   2.570   3.072 -0.2694 -1.1047  0.1477
 2978TIP3   OH230424   5.722   0.544  15.417  0.0521  0.0618  0.0554
 2978TIP3    H130425   5.670   0.471  15.450  1.9247 -1.6041 -0.4901
 2978TIP3    H230426   5.703   0.547  15.324 -0.2800  0.5122  0.1342
 2979TIP3   OH230427   0.540   1.420   3.851  0.5464  0.2401  0.2813
 2979TIP3    H130428   0.543   1.409   3.946  0.9116  1.4670  0.4278
 2979TIP3    H230429   0.570   1.510   3.836 -3.7603  1.7917 -0.6509
 2980TIP3   OH230430   1.092   3.952   5.969  0.2528  0.2133  0.3283
 2980TIP3    H130431   1.027   3.927   6.035  1.1280 -0.3194  1.0098
 2980TIP3    H230432   1.148   3.874   5.960  1.0552  0.8104  0.0619
 2981TIP3   OH230433   2.366   4.660   0.497  0.1828  0.3291 -0.2377
 2981TIP3    H130434   2.349   4.631   0.407 -0.1662 -0.9110  0.2056
 2981TIP3    H230435   2.375   4.579   0.547 -0.1985  1.0015  0.9585
 2982TIP3   OH230436   5.148   1.074   3.292  0.4636  0.0015 -0.3199
 2982TIP3    H130437   5.087   1.030   3.351 -0.5725 -0.9884 -2.0202
 2982TIP3    H230438   5.107   1.158   3.273  1.5182  0.9617  1.4571
 2983TIP3   OH230439   1.504   6.529  14.426 -0.1238  0.2866  0.3797
 2983TIP3    H130440   1.544   6.450  14.462  0.1310 -0.1154 -0.7233
 2983TIP3    H230441   1.568   6.598  14.443 -1.0812  0.6340  2.8521
 2984TIP3   OH230442   0.980   6.724  15.130  0.9586  0.3984 -0.5223
 2984TIP3    H130443   0.887   6.706  15.121  0.6361  2.3655 -1.9180
 2984TIP3    H230444   1.024   6.643  15.104 -0.2781 -1.4685  2.6267
 2985TIP3   OH230445   1.287   3.678  11.064 -0.2259 -0.1639 -1.1245
 2985TIP3    H130446   1.198   3.694  11.034 -1.1955  0.0987  1.6473
 2985TIP3    H230447   1.279   3.606  11.127  1.3847  0.2929 -0.3393
 2986TIP3   OH230448   4.841   5.805  14.485 -0.2019  0.2232  0.2314
 2986TIP3    H130449   4.800   5.723  14.514  1.7022 -1.5784 -1.7806
 2986TIP3    H230450   4.781   5.839  14.419 -0.8922  0.3409  0.9051
 2987TIP3   OH230451   1.477   4.850   1.559  0.2132  0.2823  0.2148
 2987TIP3    H130452   1.382   4.843   1.564  0.1934 -0.4404 -0.9672
 2987TIP3    H230453   1.500   4.818   1.472  1.5927 -0.1090  0.6881
 2988TIP3   OH230454   1.816   2.720  12.161 -0.4644  0.8637  0.1050
 2988TIP3    H130455   1.734   2.678  12.186 -0.0500 -2.5579 -3.3077
 2988TIP3    H230456   1.798   2.758  12.075  1.5225 -0.4367 -0.9742
 2989TIP3   OH230457   2.847   3.040  11.988 -0.6570  0.3982 -0.4938
 2989TIP3    H130458   2.831   3.012  12.078  2.0412  1.0186  0.2656
 2989TIP3    H230459   2.868   2.960  11.941 -1.8213  0.1054 -0.5478
 2990TIP3   OH230460   5.778   2.369  16.677  0.4815  0.4985  0.2155
 2990TIP3    H130461   5.706   2.428  16.656  1.0261  0.5882 -1.5521
 2990TIP3    H230462   5.821   2.410  16.752 -1.0688  0.6208  1.0772
 2991TIP3   OH230463   5.827   5.733   2.809  0.3630 -0.1335  0.6347
 2991TIP3    H130464   5.743   5.753   2.850  0.0896  0.4395 -0.1890
 2991TIP3    H230465   5.891   5.744   2.879  0.1658  2.9480  0.4459
 2992TIP3   OH230466   4.706   4.447  12.682  0.5493  0.1405 -0.1853
 2992TIP3    H130467   4.794   4.476  12.705  1.2061 -0.6197 -1.5807
 2992TIP3    H230468   4.653   4.527  12.684  0.9017  0.3868  2.1135
 2993TIP3   OH230469   1.930   2.189   2.496 -0.3471 -0.0225  0.1122
 2993TIP3    H130470   1.907   2.275   2.461 -0.2032 -0.0874 -0.1418
 2993TIP3    H230471   1.936   2.132   2.419  1.1242  0.0913  0.0991
 2994TIP3   OH230472   0.009   2.430  14.283  0.1573  0.2371  0.2567
 2994TIP3    H130473   0.009   2.518  14.247  2.3679  0.9917  1.8729
 2994TIP3    H230474  -0.062   2.430  14.346 -0.1017  0.7334 -0.0272
 2995TIP3   OH230475   6.298   2.248   5.445  0.3361  0.7966  0.2833
 2995TIP3    H130476   6.319   2.270   5.536  0.7013  2.8388 -0.2418
 2995TIP3    H230477   6.376   2.274   5.396  0.8505 -1.9022 -0.4593
 2996TIP3   OH230478   4.491   1.039  13.038 -0.1856  0.1825  0.3136
 2996TIP3    H130479   4.554   0.967  13.033 -1.2654 -0.7830  0.1925
 2996TIP3    H230480   4.503   1.087  12.956  1.6796  1.1471  1.1036
 2997TIP3   OH230481   5.670   3.052   3.529  0.3214  0.0789 -0.4706
 2997TIP3    H130482   5.750   3.045   3.477  0.3480  0.1573 -0.4399
 2997TIP3    H230483   5.624   3.127   3.491 -0.1099 -0.4375 -0.9965
 2998TIP3   OH230484   0.356   0.903  11.219 -0.0493  0.0982  0.0109
 2998TIP3    H130485   0.377   0.821  11.263  0.5092 -0.2870 -0.9274
 2998TIP3    H230486   0.276   0.883  11.168 -0.6584  0.5206  0.7860
 2999TIP3   OH230487   3.858   2.576   2.553  0.4455  0.0353  0.2180
 2999TIP3    H130488   3.797   2.505   2.535  0.7759 -0.6876  1.7172
 2999TIP3    H230489   3.850   2.591   2.648  1.8030  0.6501  0.2631
 3000TIP3   OH230490   1.064   5.089   3.246 -0.4669 -0.0449  0.3886
 3000TIP3    H130491   1.111   5.059   3.167 -0.9413  1.0626 -0.3357
 3000TIP3    H230492   1.056   5.010   3.300 -0.1065 -0.8291 -0.6603
 3001TIP3   OH230493   4.895   5.237  15.792 -0.5945  0.0648 -0.2350
 3001TIP3    H130494   4.961   5.298  15.758 -1.8755  1.4542 -0.3228
 3001TIP3    H230495   4.881   5.176  15.720  1.3541 -0.9379  0.1668
 3002TIP3   OH230496   6.286   1.566   2.745 -0.2797  0.1932  0.2713
 3002TIP3    H130497   6.210   1.569   2.803  1.3173  1.0378  2.4436
 3002TIP3    H230498   6.328   1.482   2.765  0.3093  0.5131  0.3884
 3003TIP3   OH230499   3.697   1.008   4.928 -0.3133  0.2991  0.8022
 3003TIP3    H130500   3.735   0.945   4.990  0.6226  0.2066  0.1536
 3003TIP3    H230501   3.758   1.082   4.929 -1.0545  0.9207  1.0611
 3004TIP3   OH230502   1.027   1.648  13.856 -0.1358 -0.2942  0.1615
 3004TIP3    H130503   1.045   1.676  13.767  0.0603  1.0751  0.6028
 3004TIP3    H230504   1.113   1.628  13.893 -0.1707 -0.3651  0.2061
 3005TIP3   OH230505   1.702   3.112  14.087 -0.0922  0.2037  0.2314
 3005TIP3    H130506   1.746   3.038  14.046 -0.5872 -0.0293  0.1141
 3005TIP3    H230507   1.748   3.189  14.052  0.5015 -0.0463  0.4471
 3006TIP3   OH230508   0.833   1.661   3.094  0.5083  0.0472  0.6427
 3006TIP3    H130509   0.744   1.660   3.129  0.7193 -1.1211  1.1856
 3006TIP3    H230510   0.879   1.726   3.146  0.5522 -0.9509  1.8936
 3007TIP3   OH230511   3.289   4.508  11.697  0.8688  0.1001 -0.1637
 3007TIP3    H130512   3.356   4.524  11.764  0.5487 -0.1282  0.2143
 3007TIP3    H230513   3.232   4.584  11.700  0.0827 -0.4988  0.7556
 3008TIP3   OH230514   6.519   0.007  12.062  0.1062 -0.0805 -0.5080
 3008TIP3    H130515   6.460   0.063  12.112  2.2043  1.1625  0.7724
 3008TIP3    H230516   6.557  -0.052  12.128 -0.8697 -1.9647 -1.5688
 3009TIP3   OH230517   5.149   3.436   5.120 -0.3547 -0.4116  0.3115
 3009TIP3    H130518   5.170   3.527   5.143 -2.0063 -0.0087  0.3134
 3009TIP3    H230519   5.156   3.433   5.025  1.7261 -0.8492  0.4247
 3010TIP3   OH230520   4.127   4.004  12.714  0.6002  0.2857  0.0784
 3010TIP3    H130521   4.191   4.062  12.672 -1.1931  1.7903 -0.7279
 3010TIP3    H230522   4.159   3.916  12.696  0.9627  0.9126 -2.8541
 3011TIP3   OH230523   4.330   2.673  12.340  0.3588  0.0646  0.1308
 3011TIP3    H130524   4.278   2.626  12.406  0.5799  0.1703  0.3822
 3011TIP3    H230525   4.420   2.648  12.358  0.3282 -0.8728 -0.9121
 3012TIP3   OH230526   2.069   0.927   4.527 -0.4313 -0.0035  0.1108
 3012TIP3    H130527   1.994   0.965   4.481 -2.5451 -0.3517  2.9725
 3012TIP3    H230528   2.130   0.901   4.458 -3.0541  0.0479 -2.3813
 3013TIP3   OH230529   0.227   3.438  12.485 -0.2629 -0.2426  0.2734
 3013TIP3    H130530   0.307   3.408  12.530  0.3220 -0.4245 -0.8492
 3013TIP3    H230531   0.252   3.441  12.393 -1.1960  0.9153  0.0430
 3014TIP3   OH230532   3.030   0.404   5.006  0.0756  0.2091  0.2998
 3014TIP3    H130533   3.100   0.468   4.990 -0.5527  0.6872 -0.6277
 3014TIP3    H230534   2.977   0.443   5.075 -1.4647  1.7174 -1.6000
 3015TIP3   OH230535   6.365   3.487  15.300  0.2668 -0.1199 -0.3276
 3015TIP3    H130536   6.296   3.521  15.242  1.0100  1.5271 -0.2963
 3015TIP3    H230537   6.446   3.519  15.261  0.8611 -0.0385  0.9334
 3016TIP3   OH230538   0.261   6.173   5.041  0.7030  0.4732 -0.0163
 3016TIP3    H130539   0.208   6.251   5.021 -0.3919 -0.1426  0.3729
 3016TIP3    H230540   0.274   6.130   4.957 -0.5988 -0.0745  0.0283
 3017TIP3   OH230541   5.294   0.137  16.322 -0.1802 -0.0905  0.5604
 3017TIP3    H130542   5.294   0.048  16.286 -1.7580 -0.0777  0.4360
 3017TIP3    H230543   5.201   0.157  16.334  0.1661  1.4639  0.7905
 3018TIP3   OH230544   1.206   4.614  12.211  0.2832 -0.2264  0.4458
 3018TIP3    H130545   1.120   4.596  12.248 -0.5120  0.8277 -0.7794
 3018TIP3    H230546   1.255   4.656  12.281  0.2733 -1.9895  1.5605
 3019TIP3   OH230547   0.809   4.953   0.975 -0.1227  0.0575 -0.0156
 3019TIP3    H130548   0.860   4.955   1.056 -0.6023  0.8993  0.2731
 3019TIP3    H230549   0.808   5.044   0.945 -2.3747  0.2887  0.5736
 3020TIP3   OH230550   3.431   5.563  13.475 -0.9005  0.0330 -0.5996
 3020TIP3    H130551   3.422   5.650  13.436 -0.4223 -0.2467 -1.3666
 3020TIP3    H230552   3.366   5.510  13.430  1.0538 -0.8124 -2.6505
 3021TIP3   OH230553   5.281   3.406  13.832 -0.0491 -0.2249  0.5394
 3021TIP3    H130554   5.215   3.472  13.810 -0.3714 -0.2675  1.3380
 3021TIP3    H230555   5.251   3.370  13.915  1.9520  1.0919  1.9129
 3022TIP3   OH230556   1.204   5.891  12.440 -0.4483  0.2798  0.4336
 3022TIP3    H130557   1.283   5.841  12.459 -0.0524  0.4402 -0.6949
 3022TIP3    H230558   1.135   5.826  12.432 -0.0127 -0.0639 -0.6338
 3023TIP3   OH230559   4.917   4.503   3.021 -0.2472 -0.5825  0.7326
 3023TIP3    H130560   4.871   4.586   3.004 -1.9995 -1.5917  0.2418
 3023TIP3    H230561   4.890   4.479   3.110  0.0007 -0.7785  0.7558
 3024TIP3   OH230562   4.485   0.851   1.071 -0.2980  0.1203  0.2054
 3024TIP3    H130563   4.445   0.829   1.155 -0.3357 -0.9931 -0.0949
 3024TIP3    H230564   4.437   0.800   1.006 -0.7537  1.5249 -0.6045
 3025TIP3   OH230565   0.417   0.127  14.105  0.4602  0.2834  0.5457
 3025TIP3    H130566   0.352   0.057  14.110 -0.1025  0.7907  0.4306
 3025TIP3    H230567   0.461   0.113  14.021 -0.8769  1.1140 -0.3341
 3026TIP3   OH230568   0.892   0.142  13.148  0.3829  0.1289  0.3257
 3026TIP3    H130569   0.987   0.152  13.148  0.5405 -1.1792  0.0972
 3026TIP3    H230570   0.868   0.140  13.241  1.1674 -4.0147  0.6117
 3027TIP3   OH230571   0.952   6.366   0.759  0.1543  0.0746  0.8434
 3027TIP3    H130572   0.919   6.413   0.836 -0.1078  0.8745  0.2516
 3027TIP3    H230573   0.880   6.370   0.695  0.9841  0.8936 -0.0629
 3028TIP3   OH230574   1.573   5.180   2.697 -0.4070 -0.3736  0.2146
 3028TIP3    H130575   1.652   5.217   2.655 -1.3022  0.5446 -0.7317
 3028TIP3    H230576   1.534   5.124   2.630 -2.1869  1.5819 -0.5015
 3029TIP3   OH230577   6.080   1.305  10.658 -0.0371 -0.6508  0.0885
 3029TIP3    H130578   6.109   1.363  10.588 -0.2753 -1.9156 -1.0973
 3029TIP3    H230579   5.988   1.288  10.639 -0.1657 -0.8407  0.8447
 3030TIP3   OH230580   2.256   1.200  15.001 -0.2753  0.1426 -0.3548
 3030TIP3    H130581   2.208   1.283  15.004 -0.3321  0.2051  4.6126
 3030TIP3    H230582   2.206   1.141  15.058  1.5158 -2.2781 -1.1322
 3031TIP3   OH230583   5.416   5.690  16.393  0.0924  0.6822 -0.6161
 3031TIP3    H130584   5.395   5.757  16.459  0.3555 -0.3174  0.5236
 3031TIP3    H230585   5.489   5.642  16.431  0.2085  0.0335 -1.6331
 3032TIP3   OH230586   6.763   0.531  12.985  0.1692  0.5673 -0.1039
 3032TIP3    H130587   6.853   0.505  12.964  0.2329 -0.6792  1.5020
 3032TIP3    H230588   6.709   0.459  12.952 -0.0427  0.3752  0.6302
 3033TIP3   OH230589   6.084   1.216   4.165 -0.2426  0.3062 -0.0426
 3033TIP3    H130590   6.101   1.122   4.167  1.2622  0.5563  0.5355
 3033TIP3    H230591   6.000   1.225   4.120 -0.2160 -1.2774 -0.4554
 3034TIP3   OH230592   5.875   1.890   4.954  0.0562  0.2738  0.0969
 3034TIP3    H130593   5.914   1.861   4.872 -1.2360  1.5442 -1.0522
 3034TIP3    H230594   5.892   1.820   5.016  0.4682 -1.0528 -1.4507
 3035TIP3   OH230595   6.446   2.495  13.414  0.0382 -0.3023  0.2766
 3035TIP3    H130596   6.379   2.436  13.448  2.5935 -2.2817  2.2947
 3035TIP3    H230597   6.504   2.440  13.361  1.4295  0.7782  0.5926
 3036TIP3   OH230598   5.446   4.407   4.509 -0.1386 -0.3696 -0.1064
 3036TIP3    H130599   5.420   4.363   4.590 -1.1052 -0.4639 -0.4632
 3036TIP3    H230600   5.395   4.488   4.508  1.4165  0.6652  0.4071
 3037TIP3   OH230601   0.803   4.611  15.481  0.0563 -0.3068  0.2128
 3037TIP3    H130602   0.866   4.616  15.552  2.9052 -2.2945 -1.9238
 3037TIP3    H230603   0.855   4.626  15.402 -2.5974  0.0821 -1.6049
 3038TIP3   OH230604   4.929   4.027  16.920 -0.0116 -0.1193 -0.0158
 3038TIP3    H130605   4.968   4.108  16.888  0.2924 -0.1678  0.2398
 3038TIP3    H230606   4.847   4.019  16.870 -0.8114  1.1281  1.0490
 3039TIP3   OH230607   4.838   1.448  10.553 -0.0876  0.3730  0.1368
 3039TIP3    H130608   4.927   1.483  10.562  0.4466 -1.2312  1.8280
 3039TIP3    H230609   4.789   1.492  10.622 -0.3431  0.5190 -0.1409
 3040TIP3   OH230610   1.546   1.357  11.395  0.2002  0.3497 -0.0786
 3040TIP3    H130611   1.510   1.441  11.365 -0.6666  0.2372  0.6063
 3040TIP3    H230612   1.490   1.291  11.355 -2.2221  0.2155  3.1075
 3041TIP3   OH230613   3.240   1.159   4.407  0.1792 -0.2040  0.0526
 3041TIP3    H130614   3.250   1.098   4.481 -0.3450 -0.0081  0.2857
 3041TIP3    H230615   3.270   1.243   4.442 -1.1890  0.1576  0.4306
 3042TIP3   OH230616   6.634   6.403   0.432 -0.5798  0.2132  0.2511
 3042TIP3    H130617   6.695   6.463   0.475  0.2073  1.0611 -1.9345
 3042TIP3    H230618   6.684   6.322   0.422  0.1624  0.8415 -1.3490
 3043TIP3   OH230619   6.100   4.831   3.432 -0.4084 -0.1008 -0.4731
 3043TIP3    H130620   6.129   4.893   3.500 -2.6846  0.1827  0.3480
 3043TIP3    H230621   6.085   4.886   3.355 -2.1498  0.4054  0.1726
 3044TIP3   OH230622   2.810   6.463  13.366 -0.4376 -0.1613 -0.6640
 3044TIP3    H130623   2.812   6.497  13.455 -0.0129 -0.5297 -0.5251
 3044TIP3    H230624   2.745   6.393  13.368 -0.4390 -0.1592 -0.6454
 3045TIP3   OH230625   4.189   0.706  11.575  0.2592 -0.2017 -0.4739
 3045TIP3    H130626   4.126   0.643  11.539  0.9432 -0.0469 -1.9944
 3045TIP3    H230627   4.273   0.680  11.538  0.3840  2.3794 -2.2548
 3046TIP3   OH230628   5.340   5.048  16.026  0.1336  0.4858 -0.1433
 3046TIP3    H130629   5.247   5.045  16.002 -0.1255 -0.9643  0.8861
 3046TIP3    H230630   5.375   4.964  15.996  0.7293  0.3538  0.8676
 3047TIP3   OH230631   2.214   3.438   3.007 -0.2195 -0.0162 -0.1305
 3047TIP3    H130632   2.139   3.495   3.017 -0.5150 -0.3659 -0.3217
 3047TIP3    H230633   2.255   3.437   3.094 -2.0752 -2.0820  0.8341
 3048TIP3   OH230634   6.399   3.773  16.956 -0.0743  0.2391  0.2192
 3048TIP3    H130635   6.471   3.745  16.900  1.2147  0.9711  1.4610
 3048TIP3    H230636   6.371   3.693  17.000 -0.9891 -0.3136 -1.2552
 3049TIP3   OH230637   2.120   2.115  16.303  0.1972 -0.0010 -0.0295
 3049TIP3    H130638   2.130   2.190  16.244 -1.1134  0.1781 -0.0504
 3049TIP3    H230639   2.132   2.152  16.390  0.1110  0.1270 -0.0709
 3050TIP3   OH230640   1.736   6.815  15.445  0.5166 -0.2579  0.4751
 3050TIP3    H130641   1.759   6.888  15.503  1.2185 -0.7775  0.8770
 3050TIP3    H230642   1.661   6.773  15.488  0.6023 -0.2330  0.6488
 3051TIP3   OH230643   6.290   4.191  14.124  0.2407  0.1898 -0.0641
 3051TIP3    H130644   6.378   4.156  14.140 -0.7796 -1.2563  3.0020
 3051TIP3    H230645   6.234   4.114  14.119 -1.3568  1.1414  1.8285
 3052TIP3   OH230646   4.630   2.527  16.225  0.3513  0.1301  0.5557
 3052TIP3    H130647   4.599   2.561  16.141  0.2070 -0.7614  0.2354
 3052TIP3    H230648   4.683   2.597  16.261 -1.0446  1.2350  0.5521
 3053TIP3   OH230649   5.222   3.516  15.406  0.1436 -0.3999 -0.0687
 3053TIP3    H130650   5.241   3.553  15.319  1.3085  2.9622  1.4242
 3053TIP3    H230651   5.303   3.474  15.433 -0.1900 -1.3656 -0.5378
 3054TIP3   OH230652   1.442   6.334   0.447  0.0832  0.0358 -0.0026
 3054TIP3    H130653   1.519   6.331   0.390  1.4400 -1.1651  1.7651
 3054TIP3    H230654   1.448   6.419   0.491  0.2318  0.0747 -0.0983
 3055TIP3   OH230655   2.161   5.171  14.139  0.2277 -0.2692 -0.1027
 3055TIP3    H130656   2.251   5.198  14.117 -0.3816  0.2390 -2.1651
 3055TIP3    H230657   2.172   5.110  14.212  2.1334  0.8841  0.6591
 3056TIP3   OH230658   1.601   5.830   0.023  0.2829  0.4879 -0.0520
 3056TIP3    H130659   1.540   5.838   0.096 -1.6314 -0.1475 -1.4899
 3056TIP3    H230660   1.675   5.780   0.058 -1.9136 -2.5045  0.7285
 3057TIP3   OH230661   6.705   4.102   1.974 -0.5395 -0.0186  0.0344
 3057TIP3    H130662   6.632   4.158   2.000 -1.2639 -0.4882 -0.9193
 3057TIP3    H230663   6.784   4.149   2.003 -1.2137  0.3615  1.3250
 3058TIP3   OH230664   1.457   3.482   0.441 -0.3149  0.1017  0.2551
 3058TIP3    H130665   1.518   3.423   0.486 -1.4200  0.5003  2.3781
 3058TIP3    H230666   1.375   3.432   0.437 -0.4198  0.3376 -0.7562
 3059TIP3   OH230667   1.134   0.862   2.324 -0.3646  0.2893  0.5021
 3059TIP3    H130668   1.048   0.881   2.288  0.3833  0.2247 -1.4947
 3059TIP3    H230669   1.184   0.828   2.249  1.1301 -0.5330  1.7929
 3060TIP3   OH230670   4.609   3.300  13.146  0.8662  0.4698  0.8293
 3060TIP3    H130671   4.574   3.371  13.200  3.6853  0.6385  2.6557
 3060TIP3    H230672   4.539   3.235  13.145 -0.7265  2.0753  1.4529
 3061TIP3   OH230673   1.304   6.371  11.691  0.1929 -0.0908 -0.9611
 3061TIP3    H130674   1.398   6.390  11.696  0.0598  0.2997  1.1908
 3061TIP3    H230675   1.285   6.368  11.598  2.4026 -0.4946 -1.4610
 3062TIP3   OH230676   0.928   5.120   2.646  0.3616 -0.1410 -0.3491
 3062TIP3    H130677   0.877   5.162   2.716  0.2569 -1.8845  0.6694
 3062TIP3    H230678   0.991   5.064   2.692 -2.2889 -4.5349 -1.4851
 3063TIP3   OH230679   4.080   3.589   0.783  0.1639  0.5425 -0.3351
 3063TIP3    H130680   4.040   3.588   0.697  0.6858  2.5269 -0.6455
 3063TIP3    H230681   4.170   3.617   0.767  0.3757  0.5572  0.8085
 3064TIP3   OH230682   3.186   4.851  10.560  0.2769 -0.4658  0.0040
 3064TIP3    H130683   3.247   4.835  10.632  1.2786  1.4385 -0.3735
 3064TIP3    H230684   3.100   4.852  10.602  0.7033 -0.9443  0.9166
 3065TIP3   OH230685   2.603   0.525   0.254 -0.5687  0.3371  0.0519
 3065TIP3    H130686   2.601   0.574   0.336 -1.4015 -2.4968  1.8516
 3065TIP3    H230687   2.580   0.436   0.278  0.7385 -0.9953 -3.0530
 3066TIP3   OH230688   5.580   2.601  11.077  0.0537  0.0252 -0.2418
 3066TIP3    H130689   5.558   2.583  11.168 -0.1012 -0.2926 -0.3428
 3066TIP3    H230690   5.562   2.694  11.066 -0.1016  0.0246  0.0019
 3067TIP3   OH230691   2.435   0.474   4.379 -0.4235  0.3118  0.3925
 3067TIP3    H130692   2.394   0.391   4.354 -3.1318  1.5541  0.3266
 3067TIP3    H230693   2.480   0.504   4.300 -3.1189  0.9105 -1.0429
 3068TIP3   OH230694   1.803   0.943  15.660 -0.4575 -0.1471 -0.0585
 3068TIP3    H130695   1.786   0.963  15.753 -0.4363  0.9923 -0.2865
 3068TIP3    H230696   1.717   0.919  15.626 -0.4003 -0.9414  0.3396
 3069TIP3   OH230697   1.785   4.979  16.838  0.1693 -0.1171 -0.0337
 3069TIP3    H130698   1.780   4.900  16.783  1.1528 -0.3353  0.1624
 3069TIP3    H230699   1.739   5.046  16.788  0.0305 -0.6114 -0.5822
 3070TIP3   OH230700   3.191   2.232  16.192 -0.1807 -0.1373 -0.4872
 3070TIP3    H130701   3.260   2.186  16.145  2.9720  1.8086  1.8629
 3070TIP3    H230702   3.180   2.314  16.143 -0.6672 -0.3282 -0.7037
 3071TIP3   OH230703   2.757   0.602   1.827  0.3287  0.5049 -0.0516
 3071TIP3    H130704   2.683   0.598   1.887 -0.5182 -1.2992 -1.1133
 3071TIP3    H230705   2.780   0.510   1.811  0.6913  0.9231 -2.2503
 3072TIP3   OH230706   3.481   2.190   0.584 -0.0075 -0.2766 -0.0924
 3072TIP3    H130707   3.499   2.226   0.671  1.3464 -0.1759 -0.3871
 3072TIP3    H230708   3.492   2.264   0.525  1.5370 -0.8446 -0.5746
 3073TIP3   OH230709   3.216   3.537   4.719 -0.3660 -0.0240 -0.1731
 3073TIP3    H130710   3.298   3.519   4.674 -0.5716  0.7295 -0.8579
 3073TIP3    H230711   3.151   3.542   4.649 -0.8676  0.1453  0.3009
 3074TIP3   OH230712   5.430   6.551  13.456 -0.2538 -0.6935 -0.0253
 3074TIP3    H130713   5.344   6.592  13.460 -0.0205 -0.1890 -0.0407
 3074TIP3    H230714   5.414   6.459  13.477 -0.4870 -0.1555  2.5473
 3075TIP3   OH230715   2.014   1.456  15.384  0.4358 -0.1917 -0.6692
 3075TIP3    H130716   2.017   1.513  15.307  0.6901  1.2885  0.3933
 3075TIP3    H230717   2.080   1.493  15.444  1.2677 -2.1655 -0.3027
 3076TIP3   OH230718   6.238   1.261   0.320 -0.7096  0.6000  0.1903
 3076TIP3    H130719   6.290   1.338   0.299 -1.1055  0.4576 -1.5203
 3076TIP3    H230720   6.292   1.187   0.294 -1.3289  0.4238 -0.6907
 3077TIP3   OH230721   0.902   6.787   1.563 -0.1859 -0.1122 -0.0604
 3077TIP3    H130722   0.848   6.727   1.512 -1.1442 -0.3571  1.1847
 3077TIP3    H230723   0.953   6.835   1.498 -0.0422 -1.6529 -1.1334
 3078TIP3   OH230724   5.852   0.032   1.755  0.4764  0.4734  0.0534
 3078TIP3    H130725   5.946   0.015   1.741  0.5420  0.7512  0.1551
 3078TIP3    H230726   5.811   0.004   1.673  0.8433  1.8977 -0.6635
 3079TIP3   OH230727   2.455   2.828   2.964  0.0162  0.2953 -0.6904
 3079TIP3    H130728   2.366   2.863   2.961  0.3063  1.2476  0.6573
 3079TIP3    H230729   2.484   2.828   2.873 -0.0219  3.7049 -0.8499
 3080TIP3   OH230730   3.226   0.051  11.147  0.0028 -0.0079  0.2309
 3080TIP3    H130731   3.262   0.092  11.068  1.9867 -1.6364  0.2091
 3080TIP3    H230732   3.244  -0.043  11.136 -2.4748 -0.6865  1.2263
 3081TIP3   OH230733   5.910   6.237   3.066  0.1543 -0.1893  0.3924
 3081TIP3    H130734   5.934   6.209   2.978  1.6354  0.9747  0.3878
 3081TIP3    H230735   5.819   6.265   3.059  0.1481 -0.4717 -0.6822
 3082TIP3   OH230736   2.631   1.975   4.689 -0.4377  0.1344 -0.5695
 3082TIP3    H130737   2.652   1.973   4.596  0.4372  1.0387 -0.4060
 3082TIP3    H230738   2.645   2.066   4.715 -0.5796 -0.1256  0.4645
 3083TIP3   OH230739   2.267   0.960   1.649 -0.1802 -0.3611 -0.0599
 3083TIP3    H130740   2.200   0.892   1.653 -0.4607 -0.0385  1.2481
 3083TIP3    H230741   2.348   0.912   1.629 -0.5497 -0.9501 -0.1740
 3084TIP3   OH230742   1.478   2.495  16.357  0.4523  0.1713 -0.0285
 3084TIP3    H130743   1.391   2.536  16.353  0.1515 -0.2568  1.5706
 3084TIP3    H230744   1.535   2.555  16.308 -0.4331  1.2821  0.2609
 3085TIP3   OH230745   3.455   5.493  15.929 -0.3336  0.2908  0.1591
 3085TIP3    H130746   3.402   5.570  15.951  0.4082  1.4874 -1.9925
 3085TIP3    H230747   3.449   5.438  16.007 -2.1093  1.8275  1.2147
 3086TIP3   OH230748   0.468   6.239   1.649  0.0483 -0.2441  0.3511
 3086TIP3    H130749   0.513   6.209   1.728  0.7055  2.9414  1.3134
 3086TIP3    H230750   0.412   6.311   1.678  0.3037  1.0378 -2.0375
 3087TIP3   OH230751   5.998   5.194  11.892  0.1910  0.7095 -0.0186
 3087TIP3    H130752   6.078   5.202  11.839 -1.2942  1.9526 -2.2575
 3087TIP3    H230753   5.936   5.255  11.851 -1.6844  0.3575  2.0992
 3088TIP3   OH230754   4.588   2.145   4.637 -0.6829  0.7917 -0.8303
 3088TIP3    H130755   4.544   2.227   4.616 -0.7375  1.2284  0.8377
 3088TIP3    H230756   4.654   2.135   4.568 -0.4110  2.4419 -0.8540
 3089TIP3   OH230757   0.297   5.039  14.406  0.5921 -0.4953  0.5241
 3089TIP3    H130758   0.374   5.000  14.364  0.2052 -0.6007 -0.1126
 3089TIP3    H230759   0.313   5.031  14.499  1.2452 -0.7373  0.3935
 3090TIP3   OH230760   1.680   4.286  10.743  0.2485 -0.4022 -0.6038
 3090TIP3    H130761   1.758   4.236  10.767 -0.9950 -1.2699  2.1217
 3090TIP3    H230762   1.707   4.378  10.750  0.3175 -0.5065  4.1425
 3091TIP3   OH230763   1.970   1.604   5.047 -0.2354 -0.1560 -0.1734
 3091TIP3    H130764   1.932   1.537   4.990 -1.6564  1.1464 -0.8230
 3091TIP3    H230765   1.996   1.674   4.988 -0.6688  0.7277  0.6654
 3092TIP3   OH230766   3.887   6.166  16.885  0.4822 -0.1354 -0.7667
 3092TIP3    H130767   3.916   6.182  16.795  0.0202 -2.3256 -1.3652
 3092TIP3    H230768   3.968   6.163  16.936  0.8314 -0.0446 -1.3105
 3093TIP3   OH230769   3.170   5.388   1.288 -0.2477 -0.0971  0.3234
 3093TIP3    H130770   3.113   5.369   1.214  0.3245 -1.9148  0.2897
 3093TIP3    H230771   3.114   5.434   1.351 -0.7992  1.2618 -1.0921
 3094TIP3   OH230772   0.032   3.935  11.750  0.0133  0.2046 -0.5506
 3094TIP3    H130773   0.112   3.966  11.793  0.0387  1.3720 -1.3979
 3094TIP3    H230774  -0.037   3.949  11.815  0.0045  2.2199 -0.9320
 3095TIP3   OH230775   1.531   3.703   3.465  0.0169  0.4863  0.7260
 3095TIP3    H130776   1.574   3.622   3.437 -1.2682  0.1534 -0.4459
 3095TIP3    H230777   1.448   3.673   3.504  0.6694  1.1112  2.7115
 3096TIP3   OH230778   4.111   0.529  17.094  0.4318  0.2455  0.0891
 3096TIP3    H130779   4.088   0.565  17.180 -0.3288  2.0415 -0.8017
 3096TIP3    H230780   4.032   0.482  17.066 -0.2176  1.6581 -0.5801
 3097TIP3   OH230781   4.361   6.175   2.594 -0.8906  0.4047  0.5794
 3097TIP3    H130782   4.427   6.223   2.644 -0.8929  0.6839  0.3135
 3097TIP3    H230783   4.383   6.083   2.609 -1.5186  0.4487  1.9371
 3098TIP3   OH230784   5.399   1.513   1.444 -0.1936 -0.5912  0.4700
 3098TIP3    H130785   5.305   1.508   1.424  0.0024  0.0740 -0.7402
 3098TIP3    H230786   5.441   1.464   1.373  0.3442 -1.7314  1.5381
 3099TIP3   OH230787   1.026   3.877   2.990 -0.0800  0.5369 -0.5665
 3099TIP3    H130788   1.055   3.953   2.940  1.3075 -0.1522 -0.8455
 3099TIP3    H230789   1.057   3.801   2.940 -0.7460 -0.2051  0.1097
 3100TIP3   OH230790   6.368   3.830   5.509  0.3537  0.1967 -0.7903
 3100TIP3    H130791   6.306   3.858   5.441 -0.7603  4.4961  1.6079
 3100TIP3    H230792   6.314   3.787   5.575  0.2109  1.7544  0.1708
 3101TIP3   OH230793   0.174   2.409  12.198  0.2625  0.3247  0.3574
 3101TIP3    H130794   0.185   2.371  12.111  1.1773 -1.5897  1.2532
 3101TIP3    H230795   0.080   2.414  12.211  0.0777 -1.9742  0.2773
 3102TIP3   OH230796   4.768   5.524   4.079 -0.0584 -0.5824 -0.6878
 3102TIP3    H130797   4.758   5.595   4.143  1.5275  1.3609 -2.4250
 3102TIP3    H230798   4.826   5.461   4.123  0.9990  0.6986 -0.1395
 3103TIP3   OH230799   2.188   5.658  15.961  0.1622 -0.0658  0.2564
 3103TIP3    H130800   2.268   5.683  15.915 -1.5448  1.5745 -2.0799
 3103TIP3    H230801   2.159   5.577  15.918 -0.8137  0.8315 -0.8513
 3104TIP3   OH230802   4.031   5.792  11.192  0.2016 -0.1670  0.8387
 3104TIP3    H130803   4.017   5.744  11.110 -0.4887  0.4918  0.5624
 3104TIP3    H230804   4.106   5.748  11.233  1.8038  0.6247 -1.0350
 3105TIP3   OH230805   5.605   6.603  12.456 -0.9611 -0.4174  0.0338
 3105TIP3    H130806   5.685   6.605  12.509 -1.3699 -1.6782  0.7459
 3105TIP3    H230807   5.557   6.682  12.481  0.1868  0.5420 -0.6577
 3106TIP3   OH230808   6.568   4.427  13.014 -0.3907  0.7764  0.0836
 3106TIP3    H130809   6.489   4.480  13.003  0.1503  1.3248 -1.5114
 3106TIP3    H230810   6.575   4.413  13.108 -2.1839  1.0151  0.2885
 3107TIP3   OH230811   5.303   4.434  14.157  0.4005 -0.3787  0.2326
 3107TIP3    H130812   5.383   4.381  14.162 -0.5667 -1.8722  0.3481
 3107TIP3    H230813   5.330   4.513  14.109  1.8805 -0.9550  0.0663
 3108TIP3   OH230814   1.221   2.037  13.500  0.3222 -0.1545  0.0408
 3108TIP3    H130815   1.159   2.109  13.489  0.0989 -0.4601 -0.7436
 3108TIP3    H230816   1.235   2.003  13.412 -0.9679 -2.2351  0.5604
 3109TIP3   OH230817   1.451   0.661  14.863  0.0615 -0.0086 -0.1599
 3109TIP3    H130818   1.370   0.708  14.885 -1.2159 -1.6968 -1.0296
 3109TIP3    H230819   1.501   0.723  14.810 -1.3251  0.5642 -0.8478
 3110TIP3   OH230820   5.570   0.257  10.268  0.1300 -0.4185 -0.1362
 3110TIP3    H130821   5.624   0.277  10.345 -0.1063 -0.0887 -0.0521
 3110TIP3    H230822   5.552   0.163  10.276 -1.4238 -0.0669  1.2416
 3111TIP3   OH230823   2.180   3.536  11.688 -0.1557 -0.8424  0.1308
 3111TIP3    H130824   2.135   3.548  11.604 -0.9100  0.9071  0.7489
 3111TIP3    H230825   2.272   3.556  11.669  0.0251 -2.2050 -0.6274
 3112TIP3   OH230826   1.045   0.731   0.044 -0.2043 -0.3954  0.1807
 3112TIP3    H130827   1.081   0.642   0.038  0.9376  0.1148 -1.1903
 3112TIP3    H230828   1.122   0.788   0.040 -1.0746  0.7517 -2.7803
 3113TIP3   OH230829   5.189   2.775  15.099 -0.7802  0.3758  0.4130
 3113TIP3    H130830   5.112   2.764  15.155 -0.5755 -0.3327  0.5725
 3113TIP3    H230831   5.176   2.710  15.029 -1.4424  1.8051 -0.8488
 3114TIP3   OH230832   6.655   4.588   0.734  0.1650  0.3195  0.1187
 3114TIP3    H130833   6.588   4.646   0.699  0.6234  0.5471 -0.3934
 3114TIP3    H230834   6.728   4.646   0.755  0.6247 -0.0660 -0.3898
 3115TIP3   OH230835   4.712   0.249   3.928  0.1178 -0.4362  0.3985
 3115TIP3    H130836   4.663   0.181   3.881  0.2732 -0.9038  0.9008
 3115TIP3    H230837   4.645   0.300   3.973 -0.2084  1.1938 -1.7891
 3116TIP3   OH230838   3.636   3.900  16.558  0.2732  0.5556 -0.6991
 3116TIP3    H130839   3.594   3.815  16.571 -1.0242  1.2976  0.2628
 3116TIP3    H230840   3.563   3.960  16.541  1.2113  1.3818 -1.9261
 3117TIP3   OH230841   1.874   6.515   0.881  0.2431 -0.0783 -0.3507
 3117TIP3    H130842   1.929   6.566   0.941  0.9550  0.7900 -1.6845
 3117TIP3    H230843   1.862   6.573   0.805 -1.2338 -0.8629 -0.7491
 3118TIP3   OH230844   1.719   1.536   3.701  0.0710  0.4965 -0.2816
 3118TIP3    H130845   1.694   1.456   3.655 -0.5244  0.5427 -0.0424
 3118TIP3    H230846   1.728   1.509   3.793 -2.1984  1.1219  0.1636
 3119TIP3   OH230847   3.015   5.685  14.220 -0.5551  0.5869  0.2567
 3119TIP3    H130848   2.952   5.750  14.249 -0.3310  1.2069 -0.5972
 3119TIP3    H230849   3.090   5.736  14.189  0.5952 -0.1406  1.7052
 3120TIP3   OH230850   1.189   2.250  12.824 -0.3911  0.0128  0.0022
 3120TIP3    H130851   1.268   2.199  12.842 -0.2966  0.8419  2.3835
 3120TIP3    H230852   1.119   2.186  12.824 -0.0256 -0.4013  0.7022
 3121TIP3   OH230853   2.353   3.246  15.722  0.0865 -0.6074 -0.3329
 3121TIP3    H130854   2.445   3.263  15.702 -0.4967  2.7461 -0.7888
 3121TIP3    H230855   2.321   3.196  15.647  1.1882 -0.4839 -0.9090
 3122TIP3   OH230856   4.321   4.965  11.883  0.1038 -0.0034  0.3046
 3122TIP3    H130857   4.411   4.951  11.910 -0.4095 -2.1525  1.0555
 3122TIP3    H230858   4.271   4.964  11.964 -1.0419 -3.0357 -0.3109
 3123TIP3   OH230859   1.900   5.620  14.668  0.0613  0.4691 -0.3211
 3123TIP3    H130860   1.887   5.547  14.729 -0.5916 -0.3301 -1.3819
 3123TIP3    H230861   1.974   5.668  14.705 -0.7002  0.3889  1.4462
 3124TIP3   OH230862   1.559   3.344  16.191 -0.2691 -0.0508 -0.3273
 3124TIP3    H130863   1.578   3.402  16.117 -0.8313  0.8694  0.2270
 3124TIP3    H230864   1.615   3.268  16.176 -1.1106 -0.3695 -2.2455
 3125TIP3   OH230865   4.142   3.013   5.530  0.0991 -0.6451  0.1524
 3125TIP3    H130866   4.208   3.006   5.600 -0.4026 -2.4167  0.5051
 3125TIP3    H230867   4.071   3.063   5.569  0.4568 -0.3281  0.4017
 3126TIP3   OH230868   1.340   4.955  16.866 -0.3394 -0.2336  0.0713
 3126TIP3    H130869   1.296   4.881  16.909 -0.5018 -1.2792 -1.7748
 3126TIP3    H230870   1.418   4.970  16.918 -0.5067 -1.4616  0.7188
 3127TIP3   OH230871   5.150   0.453   3.199  0.1230  0.0945  0.7847
 3127TIP3    H130872   5.174   0.540   3.229  0.5307  0.0564  0.5751
 3127TIP3    H230873   5.056   0.448   3.212  0.1610  0.4113  1.1987
 3128TIP3   OH230874   3.212   3.411   0.025  0.3675 -0.8438  0.1362
 3128TIP3    H130875   3.296   3.367   0.022  2.3133  1.7580  4.9096
 3128TIP3    H230876   3.186   3.406   0.117 -2.0810  2.8198 -0.1598
 3129TIP3   OH230877   4.972   5.276   3.404  0.2688  0.3950  0.2044
 3129TIP3    H130878   5.031   5.209   3.439 -1.1739 -0.1526  1.7107
 3129TIP3    H230879   4.984   5.272   3.309  2.6129  0.3006  0.4415
 3130TIP3   OH230880   4.810   3.712   3.597 -0.3940  0.6703 -0.4953
 3130TIP3    H130881   4.759   3.769   3.540 -1.0543 -1.0695 -1.7203
 3130TIP3    H230882   4.781   3.623   3.575 -0.5444 -0.1183  2.4338
 3131TIP3   OH230883   4.317   4.528  12.690 -0.4534  0.1289 -0.1223
 3131TIP3    H130884   4.372   4.588  12.741 -0.5024  0.1665 -0.1142
 3131TIP3    H230885   4.368   4.508  12.612  0.2692 -1.0954  0.6176
 3132TIP3   OH230886   5.794   6.003   0.263 -0.3591 -0.4248 -0.0820
 3132TIP3    H130887   5.701   6.023   0.256 -0.6411 -1.4111  0.6009
 3132TIP3    H230888   5.810   5.936   0.196 -0.6053 -1.7104  1.0959
 3133TIP3   OH230889   1.005   2.719   4.997  0.0180  0.1276 -0.3512
 3133TIP3    H130890   0.951   2.792   5.027 -0.7710 -0.4322 -0.3851
 3133TIP3    H230891   0.943   2.648   4.981  0.8687 -0.8830  0.6726
 3134TIP3   OH230892   6.425   0.861  15.481  0.1753  0.6688 -0.0831
 3134TIP3    H130893   6.487   0.933  15.463 -1.9154  2.5319 -0.2716
 3134TIP3    H230894   6.406   0.823  15.395  0.9637  0.1383 -0.0327
 3135TIP3   OH230895   1.323   0.875   0.115  0.4264  0.2977 -0.2416
 3135TIP3    H130896   1.412   0.870   0.082  0.5015 -0.8981  0.0939
 3135TIP3    H230897   1.318   0.807   0.183 -0.6303  0.5837 -0.0032
 3136TIP3   OH230898   6.805   0.323   1.335 -0.2914  0.4930 -0.6056
 3136TIP3    H130899   6.885   0.337   1.386 -1.5529  0.7914  1.3648
 3136TIP3    H230900   6.787   0.229   1.345 -0.1109  0.3905 -1.1960
 3137TIP3   OH230901   4.570   5.142  10.675  0.3746 -0.2858  0.1129
 3137TIP3    H130902   4.558   5.096  10.592 -1.5274 -0.4527  0.4335
 3137TIP3    H230903   4.489   5.126  10.723  0.6467  1.4064  1.2227
 3138TIP3   OH230904   6.278   2.998   5.648  0.3335 -0.0589  0.3482
 3138TIP3    H130905   6.284   2.925   5.710 -1.1888 -1.6806 -1.2841
 3138TIP3    H230906   6.365   3.038   5.650  0.3621 -0.0337  3.4372
 3139TIP3   OH230907   4.541   4.971   4.947 -0.3371 -0.6009 -0.0457
 3139TIP3    H130908   4.500   4.907   5.005 -0.7369  0.8378  1.3282
 3139TIP3    H230909   4.635   4.963   4.965 -0.4435 -0.2925  0.7153
 3140TIP3   OH230910   0.318   2.145  12.343  0.2453  0.0974 -0.1124
 3140TIP3    H130911   0.326   2.227  12.293 -2.2939  0.0637 -0.6887
 3140TIP3    H230912   0.247   2.161  12.404  0.6798 -1.2271  0.7768
 3141TIP3   OH230913   4.222   5.427   3.507 -0.1191 -0.3019  0.7175
 3141TIP3    H130914   4.237   5.360   3.441 -0.0220  0.3485  0.0618
 3141TIP3    H230915   4.298   5.423   3.564  0.1654 -0.3548  0.3359
 3142TIP3   OH230916   5.238   1.345  11.067 -0.2224 -0.6328 -0.0751
 3142TIP3    H130917   5.182   1.269  11.081  0.7652 -1.2398  0.7676
 3142TIP3    H230918   5.270   1.335  10.977  0.1416 -1.3880  0.1335
 3143TIP3   OH230919   5.628   0.234  17.193 -0.1817  0.0809 -0.3484
 3143TIP3    H130920   5.547   0.275  17.162 -0.6603  0.3190  1.1398
 3143TIP3    H230921   5.611   0.140  17.188  0.2569  0.0611 -2.0553
 3144TIP3   OH230922   1.929   0.772   1.011 -0.5622  0.4084  0.0513
 3144TIP3    H130923   1.932   0.821   1.093  2.8339 -2.4185  1.8989
 3144TIP3    H230924   2.000   0.808   0.958  0.6093 -0.9759  0.5885
 3145TIP3   OH230925   3.966   1.492   3.923  0.3383 -0.8939 -0.2891
 3145TIP3    H130926   3.984   1.415   3.869  2.3170  0.9083 -2.4252
 3145TIP3    H230927   3.920   1.552   3.865 -0.1832 -0.0294  0.9770
 3146TIP3   OH230928   3.730   3.846   1.059 -0.3052  0.4212 -0.0171
 3146TIP3    H130929   3.802   3.909   1.060  0.0852 -0.0188  0.5509
 3146TIP3    H230930   3.771   3.764   1.031 -0.3525 -0.0868  1.3496
 3147TIP3   OH230931   4.339   4.362   0.673  0.8686 -0.0475 -0.0597
 3147TIP3    H130932   4.414   4.417   0.696  1.6020 -0.5598 -1.1431
 3147TIP3    H230933   4.278   4.422   0.630  1.0569  0.1951  0.0119
 3148TIP3   OH230934   3.509   0.269  14.025  0.1252  0.1475  0.2314
 3148TIP3    H130935   3.518   0.342  13.963 -0.0697  0.2976  0.3815
 3148TIP3    H230936   3.442   0.212  13.986 -1.2372  1.0961  1.1373
 3149TIP3   OH230937   6.149   5.004  12.871  0.1819  0.1026  0.7774
 3149TIP3    H130938   6.133   5.095  12.897  0.0917 -0.2101  1.8442
 3149TIP3    H230939   6.090   4.990  12.797  1.3340  1.3890 -0.4831
 3150TIP3   OH230940   3.477   0.618   1.603  0.0022 -0.3153 -0.9082
 3150TIP3    H130941   3.520   0.547   1.651 -0.3490  0.4376  0.6097
 3150TIP3    H230942   3.498   0.697   1.653 -1.0999  0.4026 -1.5223
 3151TIP3   OH230943   2.508   4.639  12.875 -1.0020  0.2422  1.0472
 3151TIP3    H130944   2.546   4.713  12.921 -0.9529 -0.6434  2.4946
 3151TIP3    H230945   2.564   4.565  12.898 -2.0208 -0.5708  1.0057
 3152TIP3   OH230946   0.820   6.089   4.632  0.1101 -0.2046 -0.1533
 3152TIP3    H130947   0.768   6.117   4.708 -1.4131 -0.2058 -1.1564
 3152TIP3    H230948   0.836   6.170   4.583 -0.1116 -0.3997 -0.5500
 3153TIP3   OH230949   1.063   5.971  11.255  0.6051  0.6620  0.2702
 3153TIP3    H130950   1.127   6.037  11.280  2.8771 -1.2555 -0.1174
 3153TIP3    H230951   1.073   5.902  11.321  0.6064 -0.6867 -1.0805
 3154TIP3   OH230952   2.973   2.603   3.256 -0.1357  0.2772  0.4049
 3154TIP3    H130953   2.968   2.596   3.351  1.4718 -1.7164  0.4123
 3154TIP3    H230954   2.896   2.654   3.232 -1.9825 -1.2641  2.5746
 3155TIP3   OH230955   0.512   4.825  13.254  0.7186 -0.5107  0.0970
 3155TIP3    H130956   0.567   4.749  13.237  0.3057 -0.8273  0.1672
 3155TIP3    H230957   0.574   4.894  13.278  1.2046 -0.4818 -1.1273
 3156TIP3   OH230958   3.704   4.890   1.731 -0.4930 -0.2340  0.2603
 3156TIP3    H130959   3.618   4.850   1.745 -0.3747 -0.4032  0.5140
 3156TIP3    H230960   3.759   4.852   1.799  0.1466 -1.2125 -0.7737
 3157TIP3   OH230961   0.332   3.165  15.488 -0.0986 -0.0963  0.5100
 3157TIP3    H130962   0.304   3.236  15.430  1.1909 -1.4346 -1.8957
 3157TIP3    H230963   0.280   3.090  15.461 -0.3252 -0.4836  1.9544
 3158TIP3   OH230964   1.715   5.389  14.318 -0.3422 -0.3941 -0.3423
 3158TIP3    H130965   1.638   5.338  14.341 -0.7448  0.4620  0.2721
 3158TIP3    H230966   1.786   5.350  14.368 -0.5024 -0.7847 -0.4155
 3159TIP3   OH230967   2.796   3.295  16.956 -0.3938  0.4112 -0.3538
 3159TIP3    H130968   2.759   3.248  17.031  1.5077  1.0585  1.0408
 3159TIP3    H230969   2.781   3.387  16.975 -0.2797  0.5754 -1.0078
 3160TIP3   OH230970   4.385   0.972  14.122  0.0315 -0.5433 -0.4780
 3160TIP3    H130971   4.352   0.971  14.211 -1.3563 -0.3027 -0.9715
 3160TIP3    H230972   4.408   0.880  14.104  2.4689 -0.2697  0.8532
 3161TIP3   OH230973   3.113   2.289   0.504 -0.3957  0.1099  0.1492
 3161TIP3    H130974   3.083   2.327   0.421 -0.0296 -1.0990 -0.5779
 3161TIP3    H230975   3.141   2.363   0.556 -1.1690  0.9543 -0.5905
 3162TIP3   OH230976   2.203   6.713  16.728  0.2577  0.2782 -0.0536
 3162TIP3    H130977   2.254   6.794  16.732 -1.2009  1.2320  0.0220
 3162TIP3    H230978   2.218   6.671  16.813  0.4274  0.8427  0.1971
 3163TIP3   OH230979   0.927   5.215  16.404  0.2181  0.6146  0.0551
 3163TIP3    H130980   0.892   5.126  16.418  1.1107  0.2378 -0.0615
 3163TIP3    H230981   1.009   5.216  16.454 -0.3517  1.7652  1.0143
 3164TIP3   OH230982   6.492   3.394  16.190  0.0172  0.5726  0.1944
 3164TIP3    H130983   6.451   3.477  16.166  1.2885  1.0213 -0.5169
 3164TIP3    H230984   6.471   3.335  16.117  4.7525  2.2175 -3.0263
 3165TIP3   OH230985   0.291   3.208  15.011 -0.3858  0.8066  0.6014
 3165TIP3    H130986   0.284   3.176  15.101 -0.6980  0.4997  0.4692
 3165TIP3    H230987   0.234   3.284  15.009  1.3004  2.1739  1.2572
 3166TIP3   OH230988   1.108   0.992   6.368  0.2236  0.4483  0.4135
 3166TIP3    H130989   1.031   0.954   6.411  0.7552 -0.1383  0.8651
 3166TIP3    H230990   1.161   1.028   6.439  0.6293  0.3709  0.1558
 3167TIP3   OH230991   4.655   5.490  11.779 -0.2424  0.0464 -0.0257
 3167TIP3    H130992   4.729   5.549  11.766 -1.9704  2.6920  1.1501
 3167TIP3    H230993   4.665   5.459  11.869  0.8758 -1.9180 -0.7640
 3168TIP3   OH230994   4.108   5.000  16.514 -0.3468 -0.0770 -0.0177
 3168TIP3    H130995   4.048   4.939  16.471 -0.5940  0.5819 -0.6369
 3168TIP3    H230996   4.072   5.086  16.496 -0.4418  0.2328  1.5256
 3169TIP3   OH230997   6.721   2.726   2.261  0.1747 -0.7260  0.5478
 3169TIP3    H130998   6.655   2.729   2.192  0.8436  0.1150 -0.0942
 3169TIP3    H230999   6.673   2.743   2.342 -0.3862 -0.0110  0.0750
 3170TIP3   OH231000   4.845   3.689   1.113  0.3304 -0.5326  0.5001
 3170TIP3    H131001   4.809   3.638   1.186  0.1687  0.0335  0.8209
 3170TIP3    H231002   4.783   3.760   1.101  0.0945 -0.8951 -0.5204
 3171TIP3   OH231003   2.536   4.064   5.061 -0.6984 -0.3629  0.3584
 3171TIP3    H131004   2.534   3.973   5.031  0.4477 -0.1649 -0.3802
 3171TIP3    H231005   2.612   4.070   5.118  0.2368  0.4851 -0.9072
 3172TIP3   OH231006   6.767   1.591  14.975 -0.2228  0.1182  0.1283
 3172TIP3    H131007   6.827   1.636  14.916 -2.4198  1.6021 -1.1119
 3172TIP3    H231008   6.781   1.633  15.060 -0.0303  0.9804 -0.3216
 3173TIP3   OH231009   2.895   0.306   3.447  0.6954 -0.0917 -0.4806
 3173TIP3    H131010   2.903   0.382   3.505 -0.7609 -0.4633  0.2718
 3173TIP3    H231011   2.906   0.341   3.359 -0.1301  1.0326 -0.1522
 3174TIP3   OH231012   1.615   6.175  11.287 -0.0035 -0.9664 -0.1808
 3174TIP3    H131013   1.679   6.192  11.356 -0.8396 -0.1610  0.4154
 3174TIP3    H231014   1.663   6.188  11.205  0.6504 -0.5985  0.2575
 3175TIP3   OH231015   1.782   3.609   1.525  0.6175  0.8299  0.1740
 3175TIP3    H131016   1.799   3.618   1.431  0.5814 -1.1157 -0.0566
 3175TIP3    H231017   1.863   3.573   1.561 -0.4274 -1.5809  0.2892
 3176TIP3   OH231018   4.165   2.012  11.987  0.7060 -0.4968  0.0999
 3176TIP3    H131019   4.081   1.974  11.963 -0.8406  2.2354  0.6904
 3176TIP3    H231020   4.199   1.955  12.056 -1.1480 -1.1611  0.5120
 3177TIP3   OH231021   2.797   0.971   3.567 -0.1749  0.5133 -0.5601
 3177TIP3    H131022   2.832   0.896   3.615 -0.5003  0.6514 -0.0998
 3177TIP3    H231023   2.709   0.984   3.604 -0.5578  0.4310 -1.4072
 3178TIP3   OH231024   0.674   6.742  15.390 -0.0776 -0.6034  0.3947
 3178TIP3    H131025   0.657   6.762  15.298  1.1381 -3.2443 -0.4964
 3178TIP3    H231026   0.682   6.647  15.393 -0.1406 -0.5993  3.2664
 3179TIP3   OH231027   6.468   1.992   4.420 -0.3059  0.4252  0.2825
 3179TIP3    H131028   6.510   1.909   4.439 -1.7570 -0.0510  1.6678
 3179TIP3    H231029   6.529   2.058   4.453 -0.0558 -0.1823  1.0565
 3180TIP3   OH231030   5.258   2.018  15.258  0.3295 -0.3002  0.1489
 3180TIP3    H131031   5.268   1.928  15.290  1.7337 -0.2742 -0.1600
 3180TIP3    H231032   5.345   2.057  15.269  0.2376  0.4408 -1.5004
 3181TIP3   OH231033   5.194   6.120   5.459 -0.0164 -0.2427  0.0903
 3181TIP3    H131034   5.155   6.196   5.415  0.8353 -0.1600 -0.5349
 3181TIP3    H231035   5.192   6.051   5.393  3.3695  0.5000 -0.9649
 3182TIP3   OH231036   0.272   3.834   2.919 -0.1523 -0.2275  0.1834
 3182TIP3    H131037   0.235   3.904   2.866 -0.1488  0.6526  1.3133
 3182TIP3    H231038   0.362   3.824   2.887 -0.8794 -1.4483 -1.6557
 3183TIP3   OH231039   2.037   4.113  12.003  0.3701  0.2151  0.0285
 3183TIP3    H131040   1.979   4.169  12.055  1.4931  1.8410 -0.4111
 3183TIP3    H231041   2.025   4.142  11.913 -0.8822 -1.9781 -0.6046
 3184TIP3   OH231042   5.076   0.399  14.988  0.2099  0.3205 -0.4083
 3184TIP3    H131043   5.046   0.476  15.036  0.9892  0.1373  0.3985
 3184TIP3    H231044   5.131   0.351  15.051 -0.7939 -1.2476 -0.6753
 3185TIP3   OH231045   2.783   3.670   4.203  0.4499  0.1976  0.0704
 3185TIP3    H131046   2.786   3.764   4.224  0.6769 -0.0319  1.0978
 3185TIP3    H231047   2.770   3.627   4.287  1.0854 -0.7437 -0.3009
 3186TIP3   OH231048   1.479   2.649  11.946 -0.8400  0.1445 -0.1342
 3186TIP3    H131049   1.449   2.558  11.951 -0.2831 -0.1402 -1.4499
 3186TIP3    H231050   1.400   2.698  11.923 -1.5356  0.2904  2.3082
 3187TIP3   OH231051   6.343   6.687   1.958  0.5039 -0.3496 -0.4122
 3187TIP3    H131052   6.404   6.760   1.949  0.7022 -0.5389 -0.6160
 3187TIP3    H231053   6.368   6.644   2.040  0.2368 -0.0488 -0.1732
 3188TIP3   OH231054   4.612   1.435   0.201 -0.2678  0.5737  0.3716
 3188TIP3    H131055   4.624   1.353   0.249 -0.7156  0.0955 -0.2969
 3188TIP3    H231056   4.700   1.464   0.178 -0.1105  0.2190  0.5325
 3189TIP3   OH231057   2.263   2.422  14.732 -0.4440 -0.1614  0.1306
 3189TIP3    H131058   2.330   2.484  14.704  0.4077 -0.9585  0.3379
 3189TIP3    H231059   2.193   2.430  14.667  0.1159  0.2540 -0.4286
 3190TIP3   OH231060   0.152   4.650   5.798  0.1938  0.6102  0.4857
 3190TIP3    H131061   0.165   4.744   5.781 -0.2941  0.7488  0.8722
 3190TIP3    H231062   0.239   4.618   5.821  0.1845  1.1962  1.4095
 3191TIP3   OH231063   4.930   6.547  14.030  0.4722  0.6086  0.1795
 3191TIP3    H131064   4.917   6.500  14.113 -0.3186  1.3708  0.4956
 3191TIP3    H231065   4.993   6.493  13.982 -0.8576 -1.0947  0.2696
 3192TIP3   OH231066   2.552   3.274  13.565  0.1712 -0.1798 -0.0269
 3192TIP3    H131067   2.496   3.209  13.607  0.3677 -0.5220 -0.2945
 3192TIP3    H231068   2.618   3.223  13.517 -0.7454  0.1652 -1.7481
 3193TIP3   OH231069   3.668   5.793   5.337  0.2307 -0.0894 -0.1310
 3193TIP3    H131070   3.742   5.811   5.278  0.0761  1.1971  0.0288
 3193TIP3    H231071   3.657   5.698   5.334  0.3889 -0.0895 -1.9869
 3194TIP3   OH231072   2.622   1.436  12.990  0.0599  0.3852  0.2196
 3194TIP3    H131073   2.684   1.505  12.966 -0.1726  0.7198  0.5726
 3194TIP3    H231074   2.542   1.458  12.942  0.4598 -0.5109 -0.8967
 3195TIP3   OH231075   3.308   6.511   0.068  0.2794 -0.3248 -0.1812
 3195TIP3    H131076   3.393   6.502   0.024  1.3578 -0.8918  1.8743
 3195TIP3    H231077   3.280   6.421   0.083 -0.1805 -0.1375  0.0728
 3196TIP3   OH231078   5.579   5.342   5.032  0.5057  0.2034 -0.2899
 3196TIP3    H131079   5.554   5.251   5.016  0.5628  0.2605 -0.6953
 3196TIP3    H231080   5.626   5.369   4.953  2.0217  0.0376  0.5063
 3197TIP3   OH231081   1.551   6.248   5.735 -0.4296 -0.6146 -0.4485
 3197TIP3    H131082   1.638   6.258   5.695 -0.6319  0.1500 -0.7189
 3197TIP3    H231083   1.499   6.203   5.668 -0.4593 -0.3546 -0.6011
 3198TIP3   OH231084   3.271   1.654   5.408 -0.1601  0.4104  0.3347
 3198TIP3    H131085   3.282   1.748   5.398 -0.0949  0.2017 -2.6468
 3198TIP3    H231086   3.204   1.644   5.476  1.3165  2.4650  2.2064
 3199TIP3   OH231087   1.033   1.353   5.348  0.1284  0.3054 -0.1538
 3199TIP3    H131088   1.053   1.279   5.290  2.3794 -0.0715  1.0010
 3199TIP3    H231089   1.089   1.339   5.424 -0.9599  2.0992  1.0266
 3200TIP3   OH231090   4.291   6.324  14.495  0.6770 -0.4695  0.2541
 3200TIP3    H131091   4.295   6.349  14.587 -1.8088 -0.7506  0.4971
 3200TIP3    H231092   4.199   6.334  14.471  1.3855  0.5607 -2.4949
 3201TIP3   OH231093   2.131   4.171  16.658  0.5127 -0.4486 -0.0314
 3201TIP3    H131094   2.081   4.238  16.612 -1.9516 -1.2683  1.2927
 3201TIP3    H231095   2.159   4.110  16.589  0.8052  0.7016 -0.9528
 3202TIP3   OH231096   1.737   4.136  11.833 -0.3539  0.5592 -0.4561
 3202TIP3    H131097   1.761   4.165  11.921  0.2384  0.8531 -0.7089
 3202TIP3    H231098   1.760   4.209  11.776  0.8060 -0.2302 -1.0592
 3203TIP3   OH231099   4.778   4.289   4.752 -0.3339  0.1080 -0.2786
 3203TIP3    H131100   4.742   4.344   4.822 -0.0268 -1.1866  0.9362
 3203TIP3    H231101   4.869   4.317   4.743 -0.5691  0.7645 -0.6758
 3204TIP3   OH231102   4.123   2.388  14.820 -0.5412 -0.2763  0.4452
 3204TIP3    H131103   4.079   2.397  14.905 -0.2370  1.4652  0.4756
 3204TIP3    H231104   4.107   2.472  14.777  2.5650  0.4247  0.3967
 3205TIP3   OH231105   5.116   4.971  12.558  0.1005 -0.2268  0.4294
 3205TIP3    H131106   5.020   4.970  12.555  0.0893  0.5967  0.3373
 3205TIP3    H231107   5.142   4.923  12.479 -0.2459  0.8222 -0.3455
 3206TIP3   OH231108   0.861   3.644   5.928 -0.0583 -0.3212  0.1019
 3206TIP3    H131109   0.937   3.623   5.983  0.6752  0.6071 -0.5335
 3206TIP3    H231110   0.788   3.602   5.972  0.8271 -1.3041  0.7016
 3207TIP3   OH231111   0.937   6.817   4.658  0.6225  0.4860  0.1192
 3207TIP3    H131112   0.885   6.853   4.586  1.6958  1.2383 -0.3048
 3207TIP3    H231113   0.884   6.832   4.736 -0.5326 -0.2887 -0.4989
 3208TIP3   OH231114   4.121   4.036  12.060  1.0057  0.2541  0.7233
 3208TIP3    H131115   4.049   3.979  12.035  1.6332 -0.0106 -0.5399
 3208TIP3    H231116   4.080   4.104  12.114  0.3004 -1.5178  2.5382
 3209TIP3   OH231117   5.337   5.853  11.999  0.2567 -0.2381 -0.1341
 3209TIP3    H131118   5.360   5.768  12.036 -1.7058 -0.7257  0.0985
 3209TIP3    H231119   5.266   5.885  12.056  1.4262  1.9088  0.2306
 3210TIP3   OH231120   2.201   2.716   1.868 -0.3153  0.2275 -0.3191
 3210TIP3    H131121   2.153   2.773   1.808  1.6294  1.7449 -0.5586
 3210TIP3    H231122   2.279   2.691   1.818 -0.2896 -1.2686  0.4218
 3211TIP3   OH231123   6.753   5.429   1.148  0.0774  0.2044 -0.3948
 3211TIP3    H131124   6.670   5.454   1.108  0.5785  2.9619  0.1421
 3211TIP3    H231125   6.806   5.508   1.145  1.5980 -0.6253  2.0575
 3212TIP3   OH231126   6.708   2.043   2.636 -0.1690  0.0394  0.5961
 3212TIP3    H131127   6.764   2.005   2.568 -0.5647  1.2542 -0.4731
 3212TIP3    H231128   6.768   2.067   2.707  0.5179  0.2944 -0.0554
 3213TIP3   OH231129   3.001   3.803   1.199  0.4533  0.4681  0.2126
 3213TIP3    H131130   3.030   3.725   1.247 -3.0973 -1.8540 -0.9853
 3213TIP3    H231131   2.928   3.837   1.251 -1.5479 -0.3587 -1.8739
 3214TIP3   OH231132   1.703   0.062   5.380  0.1210  0.7779  0.4170
 3214TIP3    H131133   1.652   0.009   5.442  0.2345 -0.6899 -0.6897
 3214TIP3    H231134   1.789   0.070   5.421  0.7914 -1.7662 -0.2892
 3215TIP3   OH231135   5.904   3.828  10.914  0.0811 -0.3183 -0.0702
 3215TIP3    H131136   5.914   3.807  11.007  0.3612  1.1988  0.2710
 3215TIP3    H231137   5.986   3.799  10.874 -0.5356 -2.1409 -0.1097
 3216TIP3   OH231138   2.156   0.778   0.201 -0.4822 -0.1131  0.2639
 3216TIP3    H131139   2.116   0.759   0.286  0.1841  0.2126  0.6600
 3216TIP3    H231140   2.212   0.854   0.218  0.3636 -0.6091 -0.2502
 3217TIP3   OH231141   6.027   5.232  16.035 -0.0623  0.4936  0.0762
 3217TIP3    H131142   6.117   5.203  16.051  0.3383  0.5778 -1.7637
 3217TIP3    H231143   6.006   5.196  15.949 -1.6155  0.9195  0.2543
 3218TIP3   OH231144   1.865   3.836   1.053  0.9358 -0.2285  0.1617
 3218TIP3    H131145   1.927   3.813   0.984 -1.2079 -1.7616 -1.4376
 3218TIP3    H231146   1.827   3.920   1.025  1.3339  0.0463  0.4396
 3219TIP3   OH231147   5.438   4.044   6.322 -0.0946  0.0544 -0.1512
 3219TIP3    H131148   5.396   3.977   6.269  0.6976 -0.9328  0.4338
 3219TIP3    H231149   5.370   4.072   6.384 -0.0447 -1.2587  0.5424
 3220TIP3   OH231150   3.649   2.134   4.515  0.8155  0.5583 -0.2668
 3220TIP3    H131151   3.576   2.194   4.528 -1.2447 -1.3668 -2.0997
 3220TIP3    H231152   3.658   2.088   4.599 -2.0339 -1.1042 -0.7568
 3221TIP3   OH231153   1.245   1.067  15.826 -0.2121 -0.8371  0.0404
 3221TIP3    H131154   1.336   1.049  15.803 -0.0283 -0.2633  0.2871
 3221TIP3    H231155   1.220   1.140  15.769 -0.1449 -0.2293  0.7739
 3222TIP3   OH231156   3.537   1.063  14.660  0.0681  0.5070  0.6019
 3222TIP3    H131157   3.447   1.034  14.666 -0.3913  1.3738 -1.3584
 3222TIP3    H231158   3.557   1.098  14.747 -0.6081 -1.9467  1.8251
 3223TIP3   OH231159   6.197   4.794   0.692  0.4369 -0.2421 -0.3254
 3223TIP3    H131160   6.113   4.786   0.737  1.1950  0.3325  1.2656
 3223TIP3    H231161   6.185   4.865   0.630  0.0308  0.5543  0.6387
 3224TIP3   OH231162   5.605   3.217  12.560 -0.2364  0.2176  0.5348
 3224TIP3    H131163   5.672   3.277  12.526 -1.2408  1.5361  0.7929
 3224TIP3    H231164   5.578   3.257  12.642 -1.5208 -0.1453  0.3055
 3225TIP3   OH231165   0.174   4.482   0.032 -0.0472 -0.3553  0.6002
 3225TIP3    H131166   0.231   4.432  -0.027  0.7276  0.4743  0.6333
 3225TIP3    H231167   0.184   4.439   0.117 -1.1991 -1.5839  0.1657
 3226TIP3   OH231168   3.143   2.659   4.352 -0.5086 -0.3211 -0.0981
 3226TIP3    H131169   3.228   2.692   4.324 -0.0402 -1.4184 -0.0170
 3226TIP3    H231170   3.132   2.576   4.305 -0.7456 -1.0492  1.1696
 3227TIP3   OH231171   3.637   5.269   5.761 -0.3200 -0.4579 -0.3821
 3227TIP3    H131172   3.631   5.174   5.746 -0.7448 -0.2790 -1.4703
 3227TIP3    H231173   3.730   5.285   5.776  0.0620 -0.8107 -2.1392
 3228TIP3   OH231174   0.576   5.891  13.134 -0.8841 -0.0735 -0.3437
 3228TIP3    H131175   0.657   5.939  13.114 -0.3757 -1.4536 -1.7880
 3228TIP3    H231176   0.567   5.900  13.229  0.9635  0.1333 -0.1387
 3229TIP3   OH231177   6.780   6.470   2.339 -0.2597  0.4717 -0.1194
 3229TIP3    H131178   6.688   6.472   2.362 -0.6114 -0.2387 -1.3554
 3229TIP3    H231179   6.788   6.533   2.268 -0.4094 -1.4350 -1.9400
 3230TIP3   OH231180   3.382   4.551  12.882 -0.0758 -0.0439 -0.4114
 3230TIP3    H131181   3.446   4.495  12.924 -0.1686 -0.9396 -1.4174
 3230TIP3    H231182   3.299   4.529  12.924  0.1656  0.6576  0.4484
 3231TIP3   OH231183   5.739   4.449  13.158 -0.1166  0.6724  0.3810
 3231TIP3    H131184   5.763   4.378  13.098 -1.4767  2.4354 -2.4978
 3231TIP3    H231185   5.821   4.476  13.197  0.6137 -1.5993  0.5700
 3232TIP3   OH231186   0.333   3.816   3.935 -0.3602 -0.1766 -0.1033
 3232TIP3    H131187   0.296   3.771   4.011  0.3581 -1.9935 -0.7887
 3232TIP3    H231188   0.310   3.908   3.949 -0.3994 -0.4813  2.2104
 3233TIP3   OH231189   5.753   4.633  13.499  0.1992 -0.5746  0.0850
 3233TIP3    H131190   5.743   4.728  13.508 -3.0689 -0.2410 -3.9675
 3233TIP3    H231191   5.847   4.620  13.485  0.8277  1.9049  1.4083
 3234TIP3   OH231192   4.440   3.041   5.265 -0.7082  0.0331 -0.1958
 3234TIP3    H131193   4.436   3.135   5.247 -1.3627 -0.0719 -0.6489
 3234TIP3    H231194   4.505   3.008   5.203 -0.4348  0.1953  0.0034
 3235TIP3   OH231195   3.025   6.124  15.867  0.2271  0.8750  0.2975
 3235TIP3    H131196   3.078   6.051  15.901  3.6235  2.2967 -1.4409
 3235TIP3    H231197   2.995   6.094  15.781 -0.2555  0.7498  0.5069
 3236TIP3   OH231198   0.358   4.505   3.908  0.5134  0.2508 -0.1791
 3236TIP3    H131199   0.424   4.465   3.964  0.2881  0.4503  0.2285
 3236TIP3    H231200   0.369   4.599   3.923 -0.0728  0.2717  0.1265
 3237TIP3   OH231201   1.983   5.548  17.190  0.1657  0.1527  0.0704
 3237TIP3    H131202   1.922   5.544  17.263  0.9914  0.8124  0.8250
 3237TIP3    H231203   2.000   5.456  17.167  0.3784 -0.0812  1.1286
 3238TIP3   OH231204   2.802   3.193  15.270  0.2443 -0.1783 -0.1081
 3238TIP3    H131205   2.784   3.124  15.333  1.1673 -0.9686 -0.6728
 3238TIP3    H231206   2.728   3.253  15.277 -1.5988 -2.2025 -0.9549
 3239TIP3   OH231207   3.998   3.803   3.186  0.7672  0.1279  0.7212
 3239TIP3    H131208   4.081   3.844   3.210  1.0913 -0.8512  1.3430
 3239TIP3    H231209   3.964   3.858   3.116  0.6791  2.0679  2.1816
 3240TIP3   OH231210   5.900   4.142  15.732  0.1120 -0.2107 -0.4468
 3240TIP3    H131211   5.830   4.110  15.789  0.2268  0.2841 -0.0223
 3240TIP3    H231212   5.868   4.127  15.644 -1.0522  1.1193 -0.2742
 3241TIP3   OH231213   1.840   3.596   5.692  0.8731  0.5122 -0.1051
 3241TIP3    H131214   1.815   3.679   5.652  1.9718  1.8895  1.8957
 3241TIP3    H231215   1.847   3.535   5.618  0.4705  2.2826 -1.6829
 3242TIP3   OH231216   2.904   5.270   1.475 -0.3482  0.0620  0.3299
 3242TIP3    H131217   2.893   5.353   1.521  1.8839  0.5019  0.1709
 3242TIP3    H231218   2.938   5.210   1.541 -1.6452 -0.6872  0.3635
 3243TIP3   OH231219   2.581   6.468   6.203 -0.1153  0.4381  0.1397
 3243TIP3    H131220   2.601   6.386   6.250 -1.4323  0.3902  0.6593
 3243TIP3    H231221   2.610   6.452   6.114  0.0379 -0.4543  0.3369
 3244TIP3   OH231222   1.742   3.751  15.539  0.3634  0.5770  0.2590
 3244TIP3    H131223   1.674   3.687  15.558 -0.5040  1.2661 -0.4181
 3244TIP3    H231224   1.705   3.835  15.567  1.5134  0.7861  1.2211
 3245TIP3   OH231225   6.191   0.301  12.115 -0.2298 -0.6056 -0.4351
 3245TIP3    H131226   6.280   0.304  12.080  0.2569  1.2406  0.8128
 3245TIP3    H231227   6.135   0.293  12.038  0.8763  1.8035 -1.5881
 3246TIP3   OH231228   2.130   0.455  15.232 -0.4862  0.0614  0.3293
 3246TIP3    H131229   2.176   0.388  15.182  0.6200 -0.4254  1.9209
 3246TIP3    H231230   2.199   0.512  15.266 -1.1924  0.3321  1.3545
 3247TIP3   OH231231   2.661   1.803  12.132 -0.0942 -0.6997  0.4883
 3247TIP3    H131232   2.648   1.887  12.177  1.9519  0.2517 -0.5598
 3247TIP3    H231233   2.601   1.743  12.176 -1.0479  1.1166  1.8067
 3248TIP3   OH231234   1.737   3.988   4.667  0.1781  0.1486  0.2826
 3248TIP3    H131235   1.712   3.930   4.739  1.7987 -1.4378 -0.3542
 3248TIP3    H231236   1.790   4.056   4.708 -0.8043  0.5796  0.8772
 3249TIP3   OH231237   5.787   4.418  14.488 -0.2097  0.1194 -0.2912
 3249TIP3    H131238   5.813   4.505  14.518 -0.4439  0.0862  0.0106
 3249TIP3    H231239   5.785   4.364  14.567 -0.9262  0.0550 -0.3422
 3250TIP3   OH231240   5.118   3.682  10.993  0.0423 -0.2840  0.3168
 3250TIP3    H131241   5.174   3.642  10.926  0.2181  0.9302 -0.2838
 3250TIP3    H231242   5.041   3.712  10.946  0.9815  2.2838  0.2375
 3251TIP3   OH231243   3.234   5.267   5.189  0.2375  0.2597 -0.0046
 3251TIP3    H131244   3.305   5.245   5.128  0.1950  2.5784 -0.9984
 3251TIP3    H231245   3.172   5.317   5.136 -0.8980  0.4565  1.4509
 3252TIP3   OH231246   5.979   6.465  15.841 -0.5522 -0.3442  0.3610
 3252TIP3    H131247   5.942   6.379  15.821 -2.8720  0.5072  0.6382
 3252TIP3    H231248   5.992   6.506  15.756 -1.7778 -0.1016  0.2658
 3253TIP3   OH231249   4.356   6.476  15.290  0.0948 -0.7112 -0.9419
 3253TIP3    H131250   4.418   6.532  15.244  1.1817 -0.7115  0.4616
 3253TIP3    H231251   4.391   6.387  15.280  0.5703 -0.6637  0.2137
 3254TIP3   OH231252   0.938   2.507   6.754  0.1053 -0.4946  0.0043
 3254TIP3    H131253   0.941   2.413   6.732 -2.3446 -0.8727  0.9748
 3254TIP3    H231254   0.941   2.551   6.669  2.4237 -1.3440 -0.4347
 3255TIP3   OH231255   3.318   2.254   0.961 -0.5443  0.1078  0.4985
 3255TIP3    H131256   3.304   2.191   1.032 -0.1054 -0.1003  0.3986
 3255TIP3    H231257   3.396   2.302   0.986 -1.3874  1.2604  1.0352
 3256TIP3   OH231258   5.252   2.276  12.579  0.3725  0.0656 -0.5568
 3256TIP3    H131259   5.330   2.306  12.628  0.2978 -0.2175 -0.2606
 3256TIP3    H231260   5.270   2.184  12.561  0.5977  0.2820 -1.4606
 3257TIP3   OH231261   1.795   4.929  14.908  0.1274 -0.5373  0.0937
 3257TIP3    H131262   1.718   4.876  14.930 -0.4083  0.2667  0.1621
 3257TIP3    H231263   1.843   4.937  14.990 -0.9401  0.9360  0.6166
 3258TIP3   OH231264   6.786   5.154   1.307 -0.3449  0.6396 -0.3599
 3258TIP3    H131265   6.823   5.240   1.286  1.2848 -0.4927 -2.5129
 3258TIP3    H231266   6.794   5.104   1.226 -0.0539 -1.9588  1.1565
 3259TIP3   OH231267   1.035   1.197  16.956 -0.1304  0.0605  0.2244
 3259TIP3    H131268   1.104   1.133  16.938  0.4882  1.0332 -0.9287
 3259TIP3    H231269   0.993   1.163  17.035  0.8711 -1.1978  0.2640
 3260TIP3   OH231270   0.120   1.925   3.058  0.6928 -0.4677  0.1857
 3260TIP3    H131271   0.158   1.837   3.053 -0.8007 -1.0784 -2.4952
 3260TIP3    H231272   0.039   1.912   3.108  1.5555 -0.1345  1.7087
 3261TIP3   OH231273   2.989   4.950  16.468 -0.2956  0.3516  0.0724
 3261TIP3    H131274   2.940   4.918  16.392 -0.2837  0.6711 -0.0716
 3261TIP3    H231275   2.928   5.006  16.515 -0.7292 -0.8732  1.0266
 3262TIP3   OH231276   1.017   1.501  12.454  0.3406  0.4148  0.0223
 3262TIP3    H131277   1.063   1.427  12.495  1.1030  1.6497  1.5034
 3262TIP3    H231278   1.032   1.489  12.360  0.1204 -1.5055  0.1867
 3263TIP3   OH231279   1.470   0.268  13.840  0.6543 -0.2876  0.1570
 3263TIP3    H131280   1.441   0.218  13.916 -0.8088  0.1522 -0.0746
 3263TIP3    H231281   1.389   0.293  13.795  1.3297  1.9051  0.0299
 3264TIP3   OH231282   5.688   5.623   1.968 -0.3575 -0.4454  0.5001
 3264TIP3    H131283   5.667   5.599   1.878 -0.9485 -0.7325  0.7084
 3264TIP3    H231284   5.652   5.711   1.979  1.9146  0.6371 -0.2999
 3265TIP3   OH231285   2.863   5.730   3.143 -0.0904  0.1282  0.1836
 3265TIP3    H131286   2.942   5.728   3.089 -0.0827  0.5118  0.1789
 3265TIP3    H231287   2.874   5.807   3.198 -0.8329  0.6418 -0.3757
 3266TIP3   OH231288   1.481   1.199  11.033  1.0165 -0.3740 -0.6289
 3266TIP3    H131289   1.443   1.228  11.116  2.5182  2.7352 -0.9212
 3266TIP3    H231290   1.409   1.207  10.970  0.7375  0.3249 -0.2248
 3267TIP3   OH231291   2.110   5.403   2.877  0.1298 -0.0281 -0.5315
 3267TIP3    H131292   2.202   5.388   2.857  0.0544 -0.2118 -0.7413
 3267TIP3    H231293   2.065   5.324   2.847 -0.0926  0.0499 -0.4089
 3268TIP3   OH231294   3.612   2.307  14.426 -0.0888 -0.1734  0.4117
 3268TIP3    H131295   3.704   2.332  14.437 -0.0808 -0.4563  1.0171
 3268TIP3    H231296   3.593   2.325  14.333 -0.0968  2.1241  0.7919
 3269TIP3   OH231297   0.499   6.523  13.990 -0.4052  0.2351  0.9204
 3269TIP3    H131298   0.526   6.606  13.951  0.0660 -0.2349  0.2322
 3269TIP3    H231299   0.404   6.521  13.978 -0.1899 -0.3052 -1.0799
 3270TIP3   OH231300   1.723   1.407   0.981  0.5445  0.5389  0.6267
 3270TIP3    H131301   1.764   1.430   1.064  2.0457 -0.4135  0.1962
 3270TIP3    H231302   1.762   1.468   0.918  1.0526 -0.1275  0.2792
 3271TIP3   OH231303   2.482   0.227  13.118 -0.7200  0.1054 -0.3587
 3271TIP3    H131304   2.435   0.286  13.177  0.3518 -0.4137  1.0659
 3271TIP3    H231305   2.569   0.267  13.109  0.1585 -1.3671  0.9393
 3272TIP3   OH231306   2.666   4.691   4.678  0.1765  0.1435 -0.4642
 3272TIP3    H131307   2.616   4.692   4.759  2.1302 -0.6307  0.8205
 3272TIP3    H231308   2.720   4.613   4.684  2.0280  1.2795 -1.4448
 3273TIP3   OH231309   2.835   1.321  14.655 -0.0367  0.0967 -0.7502
 3273TIP3    H131310   2.859   1.326  14.563  3.1883  1.0374  0.0125
 3273TIP3    H231311   2.796   1.406  14.675  1.8054  0.9645 -0.6843
 3274TIP3   OH231312   3.175   1.333  12.594 -0.0778 -0.1864 -0.1965
 3274TIP3    H131313   3.263   1.338  12.632 -0.0356 -0.6270 -0.2316
 3274TIP3    H231314   3.178   1.392  12.519 -0.2373  0.8912  0.6202
 3275TIP3   OH231315   3.124   6.801   1.240 -0.2117  0.2162  0.1316
 3275TIP3    H131316   3.071   6.881   1.236 -1.5350 -0.6587 -0.4634
 3275TIP3    H231317   3.066   6.736   1.281  0.0084 -1.0578 -1.4789
 3276TIP3   OH231318   2.537   0.573  12.676 -0.7935  0.2103 -0.1090
 3276TIP3    H131319   2.605   0.615  12.729 -0.8659  1.3205 -0.8613
 3276TIP3    H231320   2.564   0.481  12.671 -0.0512  0.3707  0.6845
 3277TIP3   OH231321   6.813   1.857   0.403  0.1296  0.7240 -0.0306
 3277TIP3    H131322   6.781   1.774   0.368  1.1085  0.6031 -0.6735
 3277TIP3    H231323   6.737   1.915   0.398 -0.0748  0.3834 -1.2900
 3278TIP3   OH231324   6.082   6.788   0.296  0.0287 -0.0211 -0.0792
 3278TIP3    H131325   6.098   6.882   0.300 -0.1259  0.0311 -0.6521
 3278TIP3    H231326   5.992   6.779   0.265  0.5045 -0.3631 -1.4169
 3279TIP3   OH231327   0.697   4.581   5.281 -0.2769 -0.6066  0.1099
 3279TIP3    H131328   0.774   4.619   5.324 -0.0205 -1.2508  0.2290
 3279TIP3    H231329   0.714   4.487   5.281 -0.6738 -0.6846 -0.6263
 3280TIP3   OH231330   2.898   4.351   3.093  0.2289  0.5137  0.0570
 3280TIP3    H131331   2.810   4.357   3.057 -0.1679 -0.7150  0.7751
 3280TIP3    H231332   2.886   4.348   3.188  1.1389  1.6593  0.2410
 3281TIP3   OH231333   2.121   1.540  16.595 -0.1771 -0.2672 -0.3340
 3281TIP3    H131334   2.095   1.632  16.600 -1.3161 -0.5242 -1.0934
 3281TIP3    H231335   2.207   1.537  16.637 -0.9785  0.8027  1.4912
 3282TIP3   OH231336   4.351   4.314   5.215 -0.2798  0.2564 -0.0121
 3282TIP3    H131337   4.398   4.281   5.139 -0.7026 -0.4178  0.0133
 3282TIP3    H231338   4.405   4.386   5.247 -0.3813  0.9308 -1.2808
 3283TIP3   OH231339   3.198   3.821  16.867  0.0560 -0.4708 -0.6005
 3283TIP3    H131340   3.158   3.908  16.875 -1.1682 -1.0287 -0.4448
 3283TIP3    H231341   3.182   3.795  16.776  2.8422  0.5811 -1.4656
 3284TIP3   OH231342   0.012   6.310  13.385 -0.5764 -0.0613 -0.2424
 3284TIP3    H131343   0.057   6.244  13.437 -3.3607 -1.5269  0.4963
 3284TIP3    H231344   0.017   6.278  13.295  0.0197 -0.0663 -0.2110
 3285TIP3   OH231345   2.912   2.591  13.322  0.0780 -0.0329 -0.0634
 3285TIP3    H131346   2.910   2.561  13.413 -0.8031 -2.2625 -0.7275
 3285TIP3    H231347   2.998   2.565  13.290 -0.6325 -1.9119 -0.5972
 3286TIP3   OH231348   1.588   2.479  15.632  0.2596  0.2419  0.1338
 3286TIP3    H131349   1.543   2.528  15.700  0.0400 -0.0600  0.2103
 3286TIP3    H231350   1.631   2.546  15.578 -0.5011  0.5562 -0.1019
 3287TIP3   OH231351   2.317   1.313  14.188  0.4535 -0.6527  0.2865
 3287TIP3    H131352   2.340   1.223  14.213 -1.5799 -1.1116  0.7163
 3287TIP3    H231353   2.222   1.316  14.196  0.2373  0.8804 -1.9074
 3288TIP3   OH231354   5.298   1.393  12.510 -0.3277 -0.0369 -0.1229
 3288TIP3    H131355   5.286   1.481  12.545  2.2236  0.5991 -0.5947
 3288TIP3    H231356   5.370   1.356  12.562 -0.6885 -1.4684 -0.5813
 3289TIP3   OH231357   4.595   1.785  12.575 -0.3766  0.1447  0.2095
 3289TIP3    H131358   4.680   1.818  12.603 -0.2138 -0.8663  0.9569
 3289TIP3    H231359   4.556   1.749  12.655 -1.6414  0.8581 -0.0522
 3290TIP3   OH231360   4.856   1.250   4.011  0.6938  0.3006 -0.2119
 3290TIP3    H131361   4.784   1.313   4.021  0.5956  0.1628 -0.0363
 3290TIP3    H231362   4.823   1.187   3.946  1.3994  1.2916 -1.5696
 3291TIP3   OH231363   5.524   4.792  17.065 -0.1900  0.3015 -0.3086
 3291TIP3    H131364   5.492   4.867  17.016 -0.1075  0.3995 -0.2139
 3291TIP3    H231365   5.590   4.753  17.008  1.0556  1.3384  0.3619
 3292TIP3   OH231366   5.374   0.791   3.212 -0.0541  0.0969  0.0875
 3292TIP3    H131367   5.289   0.755   3.236 -0.3192  1.3078  1.0833
 3292TIP3    H231368   5.378   0.781   3.117 -1.2224 -0.1657  0.0468
 3293TIP3   OH231369   1.352   5.327  12.463 -0.0659 -0.3103 -0.3503
 3293TIP3    H131370   1.297   5.310  12.387  0.0763  1.4592 -0.9001
 3293TIP3    H231371   1.441   5.329  12.428  0.1891 -1.3070  0.2061
 3294TIP3   OH231372   0.780   3.511   1.620  0.3812 -0.2462  0.4667
 3294TIP3    H131373   0.867   3.550   1.611  0.1114  0.2601 -0.0155
 3294TIP3    H231374   0.725   3.582   1.653  0.4180 -0.9166  2.0813
 3295TIP3   OH231375   5.518   5.815   6.439  0.1293 -0.2369 -0.5386
 3295TIP3    H131376   5.465   5.876   6.490 -1.5663 -1.4388 -0.7462
 3295TIP3    H231377   5.576   5.774   6.502  0.8358  1.1072 -0.2939
 3296TIP3   OH231378   4.954   3.840  11.565  0.5291  0.9318  0.5871
 3296TIP3    H131379   4.892   3.858  11.494  1.1139  1.4513  0.1947
 3296TIP3    H231380   4.949   3.918  11.621  1.0341  1.1074  0.3942
 3297TIP3   OH231381   0.152   0.041   0.518 -0.0121 -0.0817  0.0141
 3297TIP3    H131382   0.083   0.107   0.516 -0.8919 -0.9492  0.7857
 3297TIP3    H231383   0.114  -0.032   0.566  1.0422 -1.0432 -0.5586
 3298TIP3   OH231384   5.610   0.058   0.503 -0.5831 -0.1655 -0.5069
 3298TIP3    H131385   5.534   0.084   0.450 -2.3030  1.9376  2.6605
 3298TIP3    H231386   5.573   0.006   0.574  1.0384  0.1542  0.6369
 3299TIP3   OH231387   4.500   2.368   2.715  0.1954 -0.8012  0.5900
 3299TIP3    H131388   4.552   2.448   2.707 -0.0355 -0.8621 -2.6261
 3299TIP3    H231389   4.553   2.300   2.674 -1.4955 -1.2710 -0.9526
 3300TIP3   OH231390   2.244   1.200   4.242  0.0827  0.5320 -0.1444
 3300TIP3    H131391   2.165   1.241   4.276  1.2667  2.4188  0.5128
 3300TIP3    H231392   2.214   1.146   4.169 -1.9209  0.2935  0.7857
 3301TIP3   OH231393   5.681   1.519  14.233 -0.2590 -0.1210 -0.2221
 3301TIP3    H131394   5.694   1.451  14.167 -1.9138 -0.2507 -0.4434
 3301TIP3    H231395   5.713   1.480  14.314 -0.4402 -0.8527 -0.5000
 3302TIP3   OH231396   2.649   3.674   6.767 -0.2549 -0.1200 -0.3793
 3302TIP3    H131397   2.690   3.632   6.691  0.8536 -0.6426  0.4687
 3302TIP3    H231398   2.596   3.604   6.807  1.1607 -0.6273  0.7237
 3303TIP3   OH231399   0.513   0.003   1.115  0.1889 -0.1808 -0.4309
 3303TIP3    H131400   0.572  -0.005   1.040  1.0141 -0.3069  0.2189
 3303TIP3    H231401   0.537   0.087   1.155  1.3773 -1.1669  1.0320
 3304TIP3   OH231402   4.111   3.386  12.551 -0.7025 -0.2623 -0.2493
 3304TIP3    H131403   4.046   3.360  12.486 -0.3241 -0.1498 -0.6820
 3304TIP3    H231404   4.124   3.308  12.604 -1.7072 -0.0724  0.2896
 3305TIP3   OH231405   5.784   6.811  15.770  0.6671  0.2558 -0.6015
 3305TIP3    H131406   5.701   6.771  15.742  1.2567 -0.4174 -1.4418
 3305TIP3    H231407   5.814   6.755  15.842  0.5357  0.3339 -0.4853
 3306TIP3   OH231408   2.104   5.349   0.905  0.1158  0.1396  0.3374
 3306TIP3    H131409   2.089   5.281   0.971 -1.5242 -0.5331 -0.6379
 3306TIP3    H231410   2.129   5.300   0.826 -0.9073  0.6528 -0.3294
 3307TIP3   OH231411   0.637   5.517   1.895  0.5451  0.0928 -0.0754
 3307TIP3    H131412   0.611   5.609   1.902 -0.4667 -0.2638  1.2547
 3307TIP3    H231413   0.566   5.477   1.845  1.6242  0.2389 -1.8169
 3308TIP3   OH231414   3.780   6.074  11.018  0.0436 -0.3108 -0.4984
 3308TIP3    H131415   3.818   6.098  10.933 -0.8300 -0.4269 -0.9295
 3308TIP3    H231416   3.734   5.991  11.001 -2.9850  1.2848 -0.7836
 3309TIP3   OH231417   1.335   0.915  12.674  0.3476  0.1420  0.2474
 3309TIP3    H131418   1.291   0.913  12.760 -0.6692 -0.1184 -0.2650
 3309TIP3    H231419   1.422   0.950  12.693 -0.0208  0.5335  1.3189
 3310TIP3   OH231420   5.100   5.050   1.061 -0.0129  0.6398  0.3556
 3310TIP3    H131421   5.098   5.115   0.990  2.0951  1.3544  0.8863
 3310TIP3    H231422   5.133   4.970   1.020  1.3553  1.0953  0.5015
 3311TIP3   OH231423   1.648   3.700  16.663  0.1742 -0.3858 -0.3270
 3311TIP3    H131424   1.590   3.681  16.589  0.1310 -1.2940 -0.0786
 3311TIP3    H231425   1.728   3.734  16.623 -0.7917  1.6305 -0.6218
 3312TIP3   OH231426   1.249   1.729  15.333  0.1020 -0.2060  0.3885
 3312TIP3    H131427   1.304   1.746  15.256 -1.9754 -1.1226 -1.3892
 3312TIP3    H231428   1.206   1.813  15.350  0.4120 -0.0577  0.4602
 3313TIP3   OH231429   6.508   0.543   5.059  0.2546 -0.1344 -0.5916
 3313TIP3    H131430   6.465   0.594   4.991  0.5737 -1.9763 -2.2419
 3313TIP3    H231431   6.444   0.540   5.131 -0.2732  1.4216 -0.9478
 3314TIP3   OH231432   0.288   0.487  10.960 -0.3541 -0.3100  0.5209
 3314TIP3    H131433   0.224   0.546  11.001  0.3400  0.8443  0.0013
 3314TIP3    H231434   0.316   0.534  10.881 -0.7825 -1.9541 -0.6486
 3315TIP3   OH231435   6.215   4.142   5.474 -0.2878  0.0358  0.0407
 3315TIP3    H131436   6.143   4.200   5.500  0.6977  0.8340  1.1455
 3315TIP3    H231437   6.174   4.073   5.423 -1.6569  1.1456 -0.4091
 3316TIP3   OH231438   6.721   5.674   4.109 -0.1728 -0.0218  0.2254
 3316TIP3    H131439   6.661   5.643   4.177  0.2741  0.8632  1.0465
 3316TIP3    H231440   6.690   5.761   4.087  1.2307  0.7806  1.2321
 3317TIP3   OH231441   3.049   1.867   3.337 -0.1826  0.2817  1.0184
 3317TIP3    H131442   2.957   1.884   3.316 -0.5089 -1.6279  0.6311
 3317TIP3    H231443   3.045   1.806   3.411  0.5873 -2.2692 -0.8673
 3318TIP3   OH231444   3.545   5.826  10.919  0.2967  0.3754  0.3087
 3318TIP3    H131445   3.630   5.813  10.878 -0.2153 -0.7584 -0.4471
 3318TIP3    H231446   3.505   5.896  10.868  0.7548  0.8998  0.6556
 3319TIP3   OH231447   1.298   0.229   0.901  0.4121 -0.1756  0.2346
 3319TIP3    H131448   1.206   0.254   0.910  0.1372 -0.5711 -1.2268
 3319TIP3    H231449   1.346   0.297   0.948 -0.6264 -0.1503  1.3264
 3320TIP3   OH231450   2.659   5.825   5.188 -0.1657 -0.5621 -0.1283
 3320TIP3    H131451   2.655   5.907   5.237  0.5562 -1.0753  0.8214
 3320TIP3    H231452   2.673   5.758   5.255 -2.1467 -1.6532 -0.7217
 3321TIP3   OH231453   3.554   3.771   5.407 -0.3077 -0.4902  0.2904
 3321TIP3    H131454   3.547   3.704   5.475  1.9612 -0.8293  0.2937
 3321TIP3    H231455   3.584   3.723   5.329  1.6370  0.4703  0.3685
 3322TIP3   OH231456   3.871   2.273   0.462  0.0754  0.4289 -0.6863
 3322TIP3    H131457   3.812   2.202   0.438  0.5541 -0.2017 -0.0348
 3322TIP3    H231458   3.953   2.252   0.417  0.9992 -0.7887  1.4102
 3323TIP3   OH231459   2.731   5.941   3.393  0.3852 -0.5955  0.1910
 3323TIP3    H131460   2.748   5.979   3.480 -0.9282 -1.2220  0.7429
 3323TIP3    H231461   2.761   6.008   3.332  2.0267 -0.4323  1.1070
 3324TIP3   OH231462   4.278   2.462  10.812  0.1201 -0.3404 -0.8391
 3324TIP3    H131463   4.274   2.523  10.738  0.9194  0.9438  0.1397
 3324TIP3    H231464   4.265   2.376  10.772 -0.4049  0.3960 -2.3468
 3325TIP3   OH231465   2.839   4.703   0.798 -0.1558  0.5638 -0.1720
 3325TIP3    H131466   2.774   4.736   0.736 -0.2949  0.5285 -0.0424
 3325TIP3    H231467   2.858   4.777   0.855 -0.5749  0.3742  0.2099
 3326TIP3   OH231468   2.700   0.535  13.757 -0.3919  0.1152 -0.4117
 3326TIP3    H131469   2.652   0.509  13.836 -1.2115  2.0444 -0.2175
 3326TIP3    H231470   2.787   0.499  13.769 -0.7817 -0.4456  0.9316
 3327TIP3   OH231471   5.942   3.627   2.384 -0.2254 -0.2189  0.1165
 3327TIP3    H131472   6.037   3.619   2.399  0.0213  0.6783 -0.8178
 3327TIP3    H231473   5.924   3.567   2.312 -0.2861 -0.1181  0.0469
 3328TIP3   OH231474   4.560   5.392   1.094  0.1485 -0.1774 -0.3484
 3328TIP3    H131475   4.511   5.470   1.121  1.2516  0.3266  0.2818
 3328TIP3    H231476   4.571   5.403   0.999  0.5462  0.5992 -0.2232
 3329TIP3   OH231477   4.864   1.837  12.282  0.2073 -0.0568  0.0983
 3329TIP3    H131478   4.799   1.896  12.244  0.7384  2.2696  2.5038
 3329TIP3    H231479   4.814   1.760  12.308 -0.8856  0.1035 -1.3689
 3330TIP3   OH231480   5.969   0.157   5.594 -0.8775 -0.5613  0.2093
 3330TIP3    H131481   6.022   0.091   5.638 -0.0490 -1.8219 -2.4648
 3330TIP3    H231482   5.884   0.153   5.638  0.3258 -0.5496  2.6839
 3331TIP3   OH231483   5.034   5.532  11.965  0.1908  0.2114  0.3506
 3331TIP3    H131484   5.039   5.584  12.046  0.5800  1.4587 -0.4397
 3331TIP3    H231485   4.957   5.567  11.920  1.7201  1.7381 -1.2422
 3332TIP3   OH231486   1.460   1.885  15.849  0.4454  0.0953 -0.3713
 3332TIP3    H131487   1.514   1.818  15.807  0.6459 -0.4793  0.7832
 3332TIP3    H231488   1.479   1.965  15.799  1.0782 -0.4501 -1.0328
 3333TIP3   OH231489   3.737   3.886   1.684 -0.2167 -0.5139 -0.0170
 3333TIP3    H131490   3.734   3.975   1.648 -2.0352 -0.2453  0.6984
 3333TIP3    H231491   3.767   3.832   1.610  1.1414  0.6891 -0.3951
 3334TIP3   OH231492   2.126   0.069   3.317 -0.3218 -0.0862  0.4306
 3334TIP3    H131493   2.199   0.112   3.361 -2.0302  2.4598  0.9896
 3334TIP3    H231494   2.161  -0.016   3.288  3.4668  1.8257 -1.2313
 3335TIP3   OH231495   5.704   0.193   4.821  0.3034 -0.3403 -0.1680
 3335TIP3    H131496   5.651   0.141   4.881 -0.3555  0.9243  0.3718
 3335TIP3    H231497   5.702   0.143   4.739 -1.9498 -0.2286 -0.2470
 3336TIP3   OH231498   0.001   2.826   4.717  0.3936  0.0159  0.0194
 3336TIP3    H131499   0.030   2.867   4.798  0.6286  0.0701 -0.0917
 3336TIP3    H231500   0.005   2.732   4.735  0.2879  0.0318  0.1254
 3337TIP3   OH231501   2.498   5.134  14.322 -0.3160  0.1780 -0.1024
 3337TIP3    H131502   2.525   5.113  14.412 -0.1291  0.2043 -0.1517
 3337TIP3    H231503   2.464   5.051  14.288  3.4820 -1.0749 -1.4168
 3338TIP3   OH231504   0.033   1.643   2.185 -0.3807  0.3486 -0.2071
 3338TIP3    H131505  -0.026   1.568   2.185  0.5954 -0.4328  0.1615
 3338TIP3    H231506   0.085   1.633   2.265  1.5468 -0.0360 -1.4505
 3339TIP3   OH231507   0.462   0.145   4.663 -0.3918 -0.0146 -0.2673
 3339TIP3    H131508   0.467   0.131   4.568 -1.5529  1.2820 -0.5628
 3339TIP3    H231509   0.373   0.118   4.687 -0.1127 -0.3117  0.4503
 3340TIP3   OH231510   4.613   4.806  14.733  0.4526 -0.0926  0.0535
 3340TIP3    H131511   4.576   4.892  14.712 -0.7088 -0.4270  0.6182
 3340TIP3    H231512   4.641   4.771  14.649  0.7160  0.7317 -0.2163
 3341TIP3   OH231513   0.935   4.280   2.253 -0.2262  0.1081  0.0757
 3341TIP3    H131514   0.902   4.196   2.286 -1.5227  0.4440 -0.3103
 3341TIP3    H231515   0.882   4.346   2.297  0.0239  0.6773 -0.4621
 3342TIP3   OH231516   5.694   0.390  14.341  0.2101  0.4157  0.2590
 3342TIP3    H131517   5.757   0.324  14.371  1.6413  1.3765 -0.5238
 3342TIP3    H231518   5.627   0.340  14.294  0.8125 -0.5632  0.4218
 3343TIP3   OH231519   1.924   3.867  10.819 -0.5242  0.2514 -0.0173
 3343TIP3    H131520   1.986   3.941  10.817 -1.0513  0.7089  0.2678
 3343TIP3    H231521   1.882   3.869  10.733 -0.3363  0.1092 -0.1118
 3344TIP3   OH231522   4.708   2.305   1.928 -0.3727 -0.3967 -0.4430
 3344TIP3    H131523   4.792   2.259   1.921 -0.8175 -1.0299 -2.2817
 3344TIP3    H231524   4.727   2.382   1.981  1.7115  0.2181 -1.9555
 3345TIP3   OH231525   4.710   1.093   3.518  0.2302  0.1826 -0.5819
 3345TIP3    H131526   4.749   1.008   3.536  1.8866  1.1058  0.5998
 3345TIP3    H231527   4.635   1.098   3.577 -2.0970 -1.7729 -3.1450
 3346TIP3   OH231528   3.474   3.300  13.431  0.2606  0.3695 -0.0934
 3346TIP3    H131529   3.526   3.323  13.354  0.1441  1.9746  0.2687
 3346TIP3    H231530   3.383   3.302  13.401  0.2934 -0.6827 -0.3000
 3347TIP3   OH231531   5.845   4.430   5.770 -0.4199 -0.2070 -0.5206
 3347TIP3    H131532   5.805   4.516   5.784  1.8175  0.3821  3.8306
 3347TIP3    H231533   5.804   4.374   5.836  1.2995 -1.2427 -0.2810
 3348TIP3   OH231534   1.347   4.336   4.409  0.2765 -0.1127  0.9143
 3348TIP3    H131535   1.282   4.404   4.431  1.1181  0.4033  1.8688
 3348TIP3    H231536   1.399   4.326   4.488 -0.0165 -2.1345  0.9053
 3349TIP3   OH231537   6.769   6.551   5.509 -0.4674 -0.2924  0.0165
 3349TIP3    H131538   6.696   6.613   5.500 -0.6891 -0.5704 -0.1282
 3349TIP3    H231539   6.736   6.470   5.471  0.1958 -0.2034 -0.7695
 3350TIP3   OH231540   1.513   6.188   1.287  0.2694 -0.0094 -0.0886
 3350TIP3    H131541   1.529   6.110   1.340  1.0351 -0.0178 -0.3200
 3350TIP3    H231542   1.425   6.175   1.249 -0.2205 -0.0716  1.0390
 3351TIP3   OH231543   0.241   6.230   6.177  0.1678  0.2430  0.5232
 3351TIP3    H131544   0.211   6.317   6.150  0.5177  0.3351  0.4322
 3351TIP3    H231545   0.334   6.241   6.197  0.6077 -0.4452 -0.9927
 3352TIP3   OH231546   3.859   1.927  11.513 -0.7477 -0.2794  0.1423
 3352TIP3    H131547   3.889   1.836  11.524 -0.7648 -0.3046 -0.0102
 3352TIP3    H231548   3.770   1.918  11.480 -0.4530 -0.2140 -0.6864
 3353TIP3   OH231549   3.966   1.624   3.098  0.1445  0.1443  0.8815
 3353TIP3    H131550   3.940   1.717   3.099 -0.5137  0.0017  3.0383
 3353TIP3    H231551   4.058   1.624   3.124 -0.0575  0.1741  1.6247
 3354TIP3   OH231552   5.416   0.471  10.816 -0.3582 -0.2348  0.0013
 3354TIP3    H131553   5.390   0.415  10.743  0.1608  2.2279 -2.2599
 3354TIP3    H231554   5.489   0.523  10.781 -2.0065  3.1665  1.1496
 3355TIP3   OH231555   5.055   3.969  10.346  0.1165  0.1787 -0.4050
 3355TIP3    H131556   5.085   4.060  10.354  0.2475  0.1515 -0.5659
 3355TIP3    H231557   5.048   3.955  10.252  0.5635 -0.1272 -0.3962
 3356TIP3   OH231558   0.777   1.442  15.960 -0.3833 -0.3689 -0.1891
 3356TIP3    H131559   0.799   1.464  15.870 -0.8309 -2.5793 -0.8950
 3356TIP3    H231560   0.736   1.356  15.955 -1.5969  0.0066  1.9976
 3357TIP3   OH231561   0.608   2.958  13.767  0.5146 -0.0299 -0.0315
 3357TIP3    H131562   0.523   2.952  13.724  0.6838 -1.3390 -0.2211
 3357TIP3    H231563   0.632   3.050  13.760 -0.3079  0.1188 -1.0927
 3358TIP3   OH231564   4.213   2.455   4.918  0.1853 -0.3972  0.4560
 3358TIP3    H131565   4.240   2.393   4.986 -2.2766 -2.8385 -0.5963
 3358TIP3    H231566   4.205   2.402   4.839 -1.5147  1.3634 -0.6495
 3359TIP3   OH231567   6.816   0.884  16.730 -0.2120  0.1668 -0.5482
 3359TIP3    H131568   6.796   0.790  16.729  1.5903 -0.2800  0.8533
 3359TIP3    H231569   6.818   0.906  16.823  1.8534  1.0096 -0.7621
 3360TIP3   OH231570   5.974   3.974  16.210  0.2322 -0.2172  0.2377
 3360TIP3    H131571   5.952   4.066  16.226  0.0193 -0.3547  0.7775
 3360TIP3    H231572   6.014   3.973  16.123  0.7728  0.4749  0.4643
 3361TIP3   OH231573   5.048   5.390   1.602  0.1284  0.3290 -0.5763
 3361TIP3    H131574   5.006   5.357   1.681 -0.1581  0.2036 -0.7803
 3361TIP3    H231575   5.055   5.314   1.545  0.4579  0.3914 -0.6200
 3362TIP3   OH231576   4.556   5.866  15.961 -0.5607 -0.0541 -0.0213
 3362TIP3    H131577   4.512   5.834  16.040  1.4079 -0.6896  0.8694
 3362TIP3    H231578   4.648   5.845  15.974 -0.0791  0.4364 -2.2160
 3363TIP3   OH231579   6.598   3.909  16.708  0.4338 -0.2557  0.3975
 3363TIP3    H131580   6.544   3.983  16.736 -1.4485 -1.9833  1.6715
 3363TIP3    H231581   6.643   3.940  16.630 -1.2318  1.8435  0.1821
 3364TIP3   OH231582   5.021   1.235  12.470 -0.1297 -0.7814 -0.2461
 3364TIP3    H131583   5.006   1.178  12.395 -1.3410  0.3624 -0.9359
 3364TIP3    H231584   5.056   1.316  12.433  0.3430 -0.6040  0.5555
 3365TIP3   OH231585   0.536   4.830  11.336 -0.0734  0.0204 -0.2843
 3365TIP3    H131586   0.517   4.858  11.246 -1.3666 -0.9444 -0.3323
 3365TIP3    H231587   0.482   4.752  11.349 -0.7901  0.7896  1.7131
 3366TIP3   OH231588   1.227   0.279  13.746 -0.5269  0.5192 -0.2922
 3366TIP3    H131589   1.161   0.349  13.752  1.0848  2.2705 -1.9087
 3366TIP3    H231590   1.205   0.233  13.665 -0.0093  0.8688 -0.6360
 3367TIP3   OH231591   3.786   3.981   6.143 -0.3296 -0.2538  0.3165
 3367TIP3    H131592   3.714   3.946   6.090 -2.1645 -0.2144  2.5864
 3367TIP3    H231593   3.835   3.904   6.171  0.1232 -0.3412 -0.6960
 3368TIP3   OH231594   6.492   3.086   2.510 -0.4036 -0.0821  0.2901
 3368TIP3    H131595   6.424   3.119   2.569 -1.2803  0.7227 -1.1058
 3368TIP3    H231596   6.574   3.117   2.548 -0.7115 -1.5964  2.3558
 3369TIP3   OH231597   1.810   6.539  11.323 -0.0172  0.8438 -0.0437
 3369TIP3    H131598   1.761   6.606  11.370 -1.8021  0.0378 -0.6579
 3369TIP3    H231599   1.806   6.566  11.231 -0.5322  0.0805 -0.2667
 3370TIP3   OH231600   1.450   5.886  14.816 -0.3984  0.1939 -0.3429
 3370TIP3    H131601   1.472   5.938  14.894  1.0013 -0.9981  0.1111
 3370TIP3    H231602   1.447   5.796  14.848 -0.1867 -0.2801 -1.6046
 3371TIP3   OH231603   5.429   2.856   2.683  0.1701  0.2257  0.6123
 3371TIP3    H131604   5.448   2.866   2.590 -2.2156  0.6861  0.1124
 3371TIP3    H231605   5.423   2.762   2.697  2.4341  0.0488  0.7887
 3372TIP3   OH231606   1.021   3.602  16.002 -0.1355 -0.0219 -0.1278
 3372TIP3    H131607   1.039   3.693  15.976  0.4753 -0.1028 -0.0042
 3372TIP3    H231608   1.087   3.583  16.069 -1.3179 -0.0010  1.0844
 3373TIP3   OH231609   3.250   3.358  11.449 -0.2759  0.2592 -0.0789
 3373TIP3    H131610   3.162   3.323  11.464 -1.2733  1.4984 -2.4146
 3373TIP3    H231611   3.235   3.447  11.416  1.8527  0.5175 -0.5074
 3374TIP3   OH231612   3.172   6.699  16.788  0.3468 -0.4886 -0.0850
 3374TIP3    H131613   3.249   6.644  16.804 -1.3258 -3.0400 -0.1511
 3374TIP3    H231614   3.186   6.776  16.843  2.6670 -1.1271  0.3408
 3375TIP3   OH231615   6.077   2.927  16.827  0.0233 -0.1727 -0.4290
 3375TIP3    H131616   6.050   2.876  16.751  0.9180 -1.3887  0.0239
 3375TIP3    H231617   6.172   2.935  16.817  0.1098 -0.1006  0.4101
 3376TIP3   OH231618   1.802   1.166  14.720 -0.1330  0.0341 -0.6521
 3376TIP3    H131619   1.805   1.071  14.708  1.5977  0.0225 -0.4793
 3376TIP3    H231620   1.825   1.179  14.812 -0.0002  0.6165 -0.7655
 3377TIP3   OH231621   2.314   6.710   4.604 -0.4056  0.1886  0.3831
 3377TIP3    H131622   2.305   6.783   4.664 -1.0689 -0.4448  1.0810
 3377TIP3    H231623   2.376   6.741   4.537 -0.9810  1.5166  0.4324
 3378TIP3   OH231624   3.820   0.242   1.730 -0.5938 -0.5820 -0.1463
 3378TIP3    H131625   3.860   0.290   1.803 -0.7025 -1.2951  0.3899
 3378TIP3    H231626   3.894   0.214   1.676 -0.4540 -0.7478  0.1275
 3379TIP3   OH231627   0.021   0.928   4.823  0.4024 -0.2370  0.3106
 3379TIP3    H131628  -0.009   0.948   4.912  1.4971 -0.5407  0.7699
 3379TIP3    H231629  -0.042   0.864   4.790  0.0459 -0.2060  0.9140
 3380TIP3   OH231630   2.060   6.029   2.775  0.7682 -0.2301  0.0084
 3380TIP3    H131631   2.155   6.044   2.769  0.7810  0.2348  1.1213
 3380TIP3    H231632   2.051   5.934   2.781  1.0599 -0.3787 -1.4193
 3381TIP3   OH231633   0.756   1.464   6.664 -0.5044  0.2101  0.6182
 3381TIP3    H131634   0.700   1.400   6.620 -1.0676  0.6129  0.7424
 3381TIP3    H231635   0.832   1.473   6.606 -0.6948 -0.1372  0.3112
 3382TIP3   OH231636   5.072   6.398   4.287 -0.5801 -0.1538  0.2261
 3382TIP3    H131637   4.986   6.358   4.296 -0.5521 -0.7079 -1.4737
 3382TIP3    H231638   5.110   6.355   4.210  0.2175  1.8469 -0.5557
 3383TIP3   OH231639   4.363   1.563   5.446  0.1229 -0.1667  0.7050
 3383TIP3    H131640   4.419   1.582   5.371 -1.2561  0.2030 -0.2606
 3383TIP3    H231641   4.279   1.538   5.408 -0.6206  0.0690  2.1276
 3384TIP3   OH231642   1.567   1.947   1.156  0.4469 -0.6381 -0.8391
 3384TIP3    H131643   1.531   1.881   1.216  1.0083  1.3532  1.8745
 3384TIP3    H231644   1.564   2.028   1.205 -0.0920  1.4273 -3.9958
 3385TIP3   OH231645   5.585   3.116  13.946 -0.5755 -0.0960 -0.0756
 3385TIP3    H131646   5.563   3.209  13.953  2.2355  0.5868  0.9444
 3385TIP3    H231647   5.630   3.108  13.862  2.2945  0.3220  1.2774
 3386TIP3   OH231648   4.348   1.645  15.600 -0.1252  0.0573  0.5433
 3386TIP3    H131649   4.424   1.608  15.646 -0.2106 -0.2497  0.4437
 3386TIP3    H231650   4.348   1.737  15.624 -0.2968 -0.1393  1.3475
 3387TIP3   OH231651   3.599   6.158  14.390 -0.2797 -0.3801 -0.4069
 3387TIP3    H131652   3.600   6.253  14.373 -0.2321 -0.1968  0.5500
 3387TIP3    H231653   3.520   6.127  14.347  0.8993 -0.3253 -2.7564
 3388TIP3   OH231654   4.388   4.674  15.752 -0.6165 -0.0075  0.6409
 3388TIP3    H131655   4.467   4.718  15.783 -0.4286 -0.2504  0.5075
 3388TIP3    H231656   4.408   4.649  15.662 -0.2432 -1.4740  1.0920
 3389TIP3   OH231657   3.189   0.014   3.697 -0.1053  0.2712 -0.2440
 3389TIP3    H131658   3.273  -0.024   3.723 -0.0025  0.3153 -0.5038
 3389TIP3    H231659   3.189   0.101   3.736 -1.1039 -0.6103  1.8478
 3390TIP3   OH231660   2.297   6.584   3.853 -0.2855  0.3804 -0.2151
 3390TIP3    H131661   2.366   6.545   3.907 -0.3223 -0.0730 -0.4876
 3390TIP3    H231662   2.337   6.595   3.767 -0.7875 -0.6629 -0.6069
 3391TIP3   OH231663   4.271   3.654   4.458 -0.3327 -0.2712  0.3620
 3391TIP3    H131664   4.246   3.649   4.551 -0.5614  0.4899  0.3484
 3391TIP3    H231665   4.224   3.731   4.425 -0.4006 -0.6437 -0.4354
 3392TIP3   OH231666   4.287   4.032   1.219 -0.0165  0.2653 -0.3702
 3392TIP3    H131667   4.347   4.013   1.146  0.0142  1.6174 -0.7275
 3392TIP3    H231668   4.231   4.102   1.186  1.3462  2.4043  1.5573
 3393TIP3   OH231669   4.700   5.301   3.395  0.0519 -0.6835  0.6747
 3393TIP3    H131670   4.786   5.344   3.388 -1.1802  1.6983 -1.8042
 3393TIP3    H231671   4.647   5.363   3.446 -1.5358  0.5776 -2.2653
 3394TIP3   OH231672   1.764   1.883   1.585  0.2144  0.6298 -0.1087
 3394TIP3    H131673   1.806   1.969   1.591  0.8406  0.4318 -1.2459
 3394TIP3    H231674   1.682   1.893   1.633  1.3619  1.1438  1.8467
 3395TIP3   OH231675   2.084   4.099   2.982 -0.6009  0.0924 -0.5110
 3395TIP3    H131676   2.134   4.021   3.007 -0.3006 -0.4089 -2.5584
 3395TIP3    H231677   2.081   4.151   3.063  1.7826 -0.6325  0.1515
 3396TIP3   OH231678   1.042   0.874  12.143 -0.4214  0.1535 -1.0664
 3396TIP3    H131679   1.089   0.844  12.065  0.0759 -0.5984 -0.4999
 3396TIP3    H231680   1.074   0.817  12.213 -1.2045  0.5100 -0.4024
 3397TIP3   OH231681   1.761   2.576  15.435 -0.3309 -0.0818 -0.2343
 3397TIP3    H131682   1.747   2.503  15.374 -0.8108 -1.6134  1.6004
 3397TIP3    H231683   1.856   2.578  15.447 -0.1871  0.5203 -1.3169
 3398TIP3   OH231684   4.613   5.218   3.105  0.8212 -0.2250  0.5403
 3398TIP3    H131685   4.611   5.123   3.093 -0.9143 -0.2036  0.3712
 3398TIP3    H231686   4.634   5.231   3.197 -0.6022 -0.8509  0.9820
 3399TIP3   OH231687   4.763   5.855  11.203 -0.0591 -0.9117  0.4697
 3399TIP3    H131688   4.768   5.767  11.239  0.3306 -0.6605  1.0322
 3399TIP3    H231689   4.680   5.889  11.235 -0.3641 -1.1841 -0.0143
 3400TIP3   OH231690   6.778   5.383   4.534  0.9578 -0.3739  0.4941
 3400TIP3    H131691   6.798   5.407   4.625  2.3367 -2.1425  0.7228
 3400TIP3    H231692   6.688   5.350   4.537  1.6471 -2.3193  1.6895
 3401TIP3   OH231693   3.795   1.934  13.580  0.1127  0.0810  0.1064
 3401TIP3    H131694   3.714   1.957  13.534  0.5134 -0.6523 -1.0026
 3401TIP3    H231695   3.775   1.947  13.673 -1.3828 -0.4558 -0.1270
 3402TIP3   OH231696   1.548   2.902   1.417 -0.4577 -0.2504  0.5333
 3402TIP3    H131697   1.485   2.837   1.386 -0.0804 -0.0741 -0.6803
 3402TIP3    H231698   1.621   2.850   1.452  0.5511 -0.5970 -1.8461
 3403TIP3   OH231699   1.203   6.550   3.336 -0.6363  0.4107  0.0584
 3403TIP3    H131700   1.116   6.589   3.344 -0.7218  0.4734 -1.0142
 3403TIP3    H231701   1.188   6.456   3.351 -1.5122 -0.1157 -3.3142
 3404TIP3   OH231702   2.764   5.101  17.005 -0.1924 -0.5781  0.0914
 3404TIP3    H131703   2.782   5.110  16.912 -0.2173 -0.8848  0.0554
 3404TIP3    H231704   2.810   5.020  17.031  1.3225  0.4405  0.7241
 3405TIP3   OH231705   4.076   2.609   0.133 -0.0803  0.2634  0.2533
 3405TIP3    H131706   4.101   2.537   0.190 -2.3680 -1.3654 -0.6281
 3405TIP3    H231707   4.152   2.623   0.076  0.5530 -1.1925  0.7056
 3406TIP3   OH231708   4.775   5.968   3.619  0.0041  0.2452  0.0309
 3406TIP3    H131709   4.833   6.044   3.619 -1.0682  1.1718 -2.2442
 3406TIP3    H231710   4.800   5.918   3.541 -1.5477  0.1514 -0.4497
 3407TIP3   OH231711   5.149   6.565  15.327  0.2724 -0.1048  0.1385
 3407TIP3    H131712   5.115   6.487  15.370  1.0685 -0.4996  0.0545
 3407TIP3    H231713   5.172   6.537  15.239  0.6477  0.2075  0.1350
 3408TIP3   OH231714   2.223   0.254   1.089  0.1956  0.3432 -0.4782
 3408TIP3    H131715   2.157   0.189   1.061  0.7843 -0.9693  1.0173
 3408TIP3    H231716   2.175   0.312   1.147  0.5222 -1.3407  1.6048
 3409TIP3   OH231717   3.307   0.090  11.442 -0.4957  0.0531  0.2055
 3409TIP3    H131718   3.306  -0.003  11.464 -0.5443  0.2914  1.2763
 3409TIP3    H231719   3.310   0.092  11.346  0.4950 -1.0406  0.1923
 3410TIP3   OH231720   2.087   4.521  15.434 -0.0542 -0.5505  0.3589
 3410TIP3    H131721   2.110   4.443  15.383 -2.0898 -0.1549 -1.3210
 3410TIP3    H231722   1.991   4.519  15.438 -0.1516  1.7752  0.4191
 3411TIP3   OH231723   0.277   4.627   1.845 -0.3580 -0.3113 -0.2171
 3411TIP3    H131724   0.354   4.674   1.813 -0.7026  1.1309  0.9466
 3411TIP3    H231725   0.206   4.657   1.789 -0.9170  2.0393  1.5589
 3412TIP3   OH231726   5.431   5.982  14.550  0.3239  0.3209  0.2276
 3412TIP3    H131727   5.428   5.889  14.570 -3.3400  0.4342  0.8303
 3412TIP3    H231728   5.452   6.025  14.633  3.1784  0.1399 -0.2710
 3413TIP3   OH231729   2.388   0.524   1.874  0.2685  0.2898 -0.2724
 3413TIP3    H131730   2.331   0.597   1.899 -0.0539 -0.0539  0.0051
 3413TIP3    H231731   2.459   0.526   1.938  0.5515  0.6947 -0.5946
 3414TIP3   OH231732   5.269   2.556  16.738  0.2830  0.3816  0.1412
 3414TIP3    H131733   5.338   2.614  16.705  0.7824  1.3203  2.6295
 3414TIP3    H231734   5.200   2.615  16.767  0.2384 -0.3007  1.4992
 3415TIP3   OH231735   5.807   4.887   1.427 -0.0518 -0.0730 -0.6916
 3415TIP3    H131736   5.896   4.867   1.456 -0.5626 -0.7340  0.5338
 3415TIP3    H231737   5.781   4.811   1.374 -0.0785 -0.1358 -0.5890
 3416TIP3   OH231738   3.251   4.788   2.608 -0.4597 -0.1355 -0.4776
 3416TIP3    H131739   3.317   4.762   2.544  0.7171  0.7209  0.3513
 3416TIP3    H231740   3.207   4.863   2.568  0.8401  0.9354  0.0275
 3417TIP3   OH231741   2.502   0.882  13.506  0.3260 -0.0274  0.0043
 3417TIP3    H131742   2.445   0.822  13.458 -1.1853  1.6567 -0.4228
 3417TIP3    H231743   2.561   0.825  13.555 -0.8073 -1.8443 -0.6426
 3418TIP3   OH231744   1.543   0.870  12.299 -0.1356 -0.3531  0.2581
 3418TIP3    H131745   1.477   0.803  12.317  1.5419 -1.8608  1.1774
 3418TIP3    H231746   1.602   0.828  12.237 -0.3003  1.1700 -0.9918
 3419TIP3   OH231747   1.919   0.000   0.528 -0.3697 -0.3720  0.0574
 3419TIP3    H131748   1.899   0.012   0.435  0.6451 -0.1865 -0.1517
 3419TIP3    H231749   1.841   0.032   0.574  0.2169  2.2902 -0.6398
 3420TIP3   OH231750   0.446   1.778  12.689 -0.3227 -0.3327 -0.7027
 3420TIP3    H131751   0.380   1.743  12.629 -1.1095  0.7046 -0.4567
 3420TIP3    H231752   0.399   1.795  12.770  0.7105 -1.6249  0.2283
 3421TIP3   OH231753   3.783   2.866   6.365 -0.0102 -0.4685 -0.5692
 3421TIP3    H131754   3.834   2.878   6.445  1.4067 -1.4382 -1.2835
 3421TIP3    H231755   3.720   2.938   6.366  1.9169  1.3219 -0.0567
 3422TIP3   OH231756   5.967   5.930  12.569 -0.4598 -0.5478  0.5486
 3422TIP3    H131757   5.986   6.024  12.577 -0.7004 -0.5299  0.9028
 3422TIP3    H231758   6.024   5.901  12.498 -0.1859 -0.1875  0.6157
 3423TIP3   OH231759   5.851   1.487   1.874 -0.3361  0.3613 -0.9001
 3423TIP3    H131760   5.849   1.397   1.909 -0.8960 -0.3039 -2.5666
 3423TIP3    H231761   5.880   1.540   1.948  1.1264 -1.3312 -0.1757
 3424TIP3   OH231762   4.461   4.436  16.335  1.0316  0.5533  0.2669
 3424TIP3    H131763   4.410   4.356  16.326  2.0720 -0.6536  3.3973
 3424TIP3    H231764   4.529   4.429  16.269 -1.4069  1.1271 -2.4775
 3425TIP3   OH231765   4.493   3.939   5.488 -0.6808  0.1138 -0.2218
 3425TIP3    H131766   4.539   3.873   5.541 -1.1337 -2.3134 -2.6164
 3425TIP3    H231767   4.543   4.019   5.501  0.1659 -0.7408  2.5121
 3426TIP3   OH231768   4.545   3.258   1.956  0.6869 -0.2266 -0.0986
 3426TIP3    H131769   4.529   3.351   1.969  1.8647 -0.0483  0.1633
 3426TIP3    H231770   4.507   3.238   1.870  2.2895  0.9802 -1.1461
 3427TIP3   OH231771   4.679   4.872  14.213  0.5285 -0.1541 -0.3647
 3427TIP3    H131772   4.717   4.784  14.215  1.1784 -0.0406  4.5032
 3427TIP3    H231773   4.755   4.930  14.206  0.5981 -0.0349  0.9898
 3428TIP3   OH231774   3.078   4.685   6.031  0.1337  0.6806 -0.2542
 3428TIP3    H131775   3.029   4.614   6.072  1.2087 -0.8363 -1.4234
 3428TIP3    H231776   3.157   4.693   6.084 -0.2028  1.3554  0.1541
 3429TIP3   OH231777   0.676   5.601   0.462 -0.1251 -0.0757  0.0330
 3429TIP3    H131778   0.618   5.677   0.453 -1.2547 -0.9497 -0.2298
 3429TIP3    H231779   0.640   5.536   0.401  0.2539 -1.1681  0.9461
 3430TIP3   OH231780   2.075   3.559   1.141 -0.0594  0.0791  0.0855
 3430TIP3    H131781   2.026   3.595   1.214 -1.4808  0.7013 -1.1175
 3430TIP3    H231782   2.116   3.480   1.176 -0.2489  0.6583  1.6810
 3431TIP3   OH231783   2.161   1.242  12.420  0.1009  0.2072 -0.2365
 3431TIP3    H131784   2.082   1.277  12.377 -0.6072 -1.8847 -0.7380
 3431TIP3    H231785   2.220   1.220  12.349 -0.7263 -2.4468 -0.2202
 3432TIP3   OH231786   2.207   3.871   3.982  0.1316  0.3221 -0.1482
 3432TIP3    H131787   2.188   3.958   4.016  2.6711  0.3842  1.3115
 3432TIP3    H231788   2.240   3.886   3.894 -0.2198  0.7413 -0.2116
 3433TIP3   OH231789   3.782   0.885  14.687  0.6590 -0.2077  0.7137
 3433TIP3    H131790   3.755   0.794  14.693  0.3087 -0.1130  0.5929
 3433TIP3    H231791   3.727   0.932  14.750 -1.0670  0.3372 -1.0972
 3434TIP3   OH231792   0.691   2.245   3.805  0.0815 -0.0705  0.4589
 3434TIP3    H131793   0.744   2.232   3.884  2.5066 -1.0828 -1.2227
 3434TIP3    H231794   0.646   2.161   3.792 -2.6104  0.9686  2.2141
 3435TIP3   OH231795   5.451   3.219   2.509  0.9655  0.1753 -0.1908
 3435TIP3    H131796   5.515   3.152   2.534  2.1507  1.1118 -0.6318
 3435TIP3    H231797   5.420   3.255   2.592 -1.8926 -2.8026  0.2574
 3436TIP3   OH231798   4.413   5.862  10.803  0.0887  0.0041 -0.3334
 3436TIP3    H131799   4.491   5.808  10.814  0.0766  0.2521  1.1563
 3436TIP3    H231800   4.420   5.898  10.714  1.2034 -0.6863 -0.5333
 3437TIP3   OH231801   4.114   6.671  11.137  0.3597 -0.3136 -0.1093
 3437TIP3    H131802   4.113   6.726  11.059 -1.8503 -1.7892 -1.2552
 3437TIP3    H231803   4.202   6.634  11.140  0.7777  0.5251 -1.3516
 3438TIP3   OH231804   5.941   0.007  12.170  0.0522  0.4585 -0.0346
 3438TIP3    H131805   5.881   0.029  12.242  0.1077  0.9896 -0.1478
 3438TIP3    H231806   6.010  -0.044  12.212  0.6716  1.7113  0.5099
 3439TIP3   OH231807   6.119   1.427  11.963  0.1802  0.3003  0.3073
 3439TIP3    H131808   6.049   1.373  11.926  0.2833  0.8127 -0.6805
 3439TIP3    H231809   6.124   1.401  12.055  1.3449 -2.5279 -0.4751
 3440TIP3   OH231810   0.168   4.152   5.749  1.0228 -0.4693  0.0056
 3440TIP3    H131811   0.202   4.164   5.661  0.7065  1.3832  0.0938
 3440TIP3    H231812   0.235   4.102   5.795  1.5774 -0.6954 -1.0345
 3441TIP3   OH231813   2.127   0.735   4.691 -0.4357  0.2517  0.8113
 3441TIP3    H131814   2.108   0.814   4.640 -1.2261 -1.6659 -2.0937
 3441TIP3    H231815   2.155   0.670   4.627  2.2932 -1.3227  3.3166
 3442TIP3   OH231816   2.554   3.308   1.043  0.0408  0.0677  0.4094
 3442TIP3    H131817   2.515   3.300   0.956  0.0572 -0.9874  0.4893
 3442TIP3    H231818   2.530   3.396   1.072  2.5573  1.6545 -1.8599
 3443TIP3   OH231819   3.422   6.484   0.845  0.3529 -0.6822 -0.2139
 3443TIP3    H131820   3.421   6.538   0.767  1.2608  2.8031  1.9751
 3443TIP3    H231821   3.510   6.445   0.846  0.6613 -0.0067 -0.4739
 3444TIP3   OH231822   1.831   6.089  15.759 -0.1084 -0.2511 -0.4617
 3444TIP3    H131823   1.856   6.105  15.850  0.4417 -0.7511 -0.5185
 3444TIP3    H231824   1.762   6.023  15.764 -0.9476  0.6124 -0.3472
 3445TIP3   OH231825   5.582   1.736  14.069 -0.1864  0.0457  0.1980
 3445TIP3    H131826   5.641   1.708  14.139  1.0588  1.2398 -0.3328
 3445TIP3    H231827   5.564   1.656  14.019  0.8024 -0.3866  0.5200
 3446TIP3   OH231828   5.696   5.027   0.298  0.0391 -0.0652 -0.8290
 3446TIP3    H131829   5.764   5.085   0.264  0.2931 -1.6067 -3.1561
 3446TIP3    H231830   5.614   5.066   0.268 -0.0968  1.0503  0.8264
 3447TIP3   OH231831   3.712   3.994   4.773 -0.0423  0.3705  0.1831
 3447TIP3    H131832   3.757   3.954   4.698  0.9108  2.0534 -0.1998
 3447TIP3    H231833   3.681   3.920   4.825  2.7148 -0.9264  0.1716
 3448TIP3   OH231834   6.022   5.220   1.897 -0.2271 -0.3890  0.8521
 3448TIP3    H131835   6.011   5.182   1.984  0.1866 -1.1556  0.5797
 3448TIP3    H231836   6.104   5.269   1.903 -0.8644  0.6556  1.2629
 3449TIP3   OH231837   5.709   2.148  12.123 -0.1793 -0.1421 -0.0738
 3449TIP3    H131838   5.757   2.067  12.145 -1.3113 -0.9693 -0.5365
 3449TIP3    H231839   5.683   2.184  12.208  0.5116 -0.1376  0.1461
 3450TIP3   OH231840   6.497   0.930   2.421  0.7178  0.4696  0.9741
 3450TIP3    H131841   6.473   1.022   2.413  0.3804  0.4775  1.9683
 3450TIP3    H231842   6.548   0.925   2.501  0.4651 -0.2574  1.0968
 3451TIP3   OH231843   0.467   5.086   5.948 -0.5521 -0.0419 -0.0832
 3451TIP3    H131844   0.469   5.167   5.999 -1.9486  0.7544 -1.2292
 3451TIP3    H231845   0.386   5.090   5.899 -0.8361 -2.3222  0.0746
 3452TIP3   OH231846   5.517   2.833   2.433 -0.5896 -0.2523  0.2371
 3452TIP3    H131847   5.606   2.826   2.467 -1.2977 -1.3600  1.9577
 3452TIP3    H231848   5.515   2.773   2.358  0.4742  0.8304 -0.6871
 3453TIP3   OH231849   1.595   2.388  15.975  0.1801  0.1874  0.6229
 3453TIP3    H131850   1.689   2.407  15.986 -0.1352  1.5971  1.1825
 3453TIP3    H231851   1.580   2.396  15.881  0.2892  1.8370  0.7106
 3454TIP3   OH231852   3.214   2.593  14.332 -0.0579 -0.5631 -0.3692
 3454TIP3    H131853   3.289   2.629  14.284 -0.9825 -0.6436 -1.9288
 3454TIP3    H231854   3.253   2.525  14.388  1.2817  0.7486  0.3731
 3455TIP3   OH231855   4.715   4.754   2.987  0.4827 -0.4912 -0.0957
 3455TIP3    H131856   4.792   4.810   2.973  0.3239 -0.3184 -0.2780
 3455TIP3    H231857   4.703   4.710   2.903  0.3722 -0.5072 -0.0704
 3456TIP3   OH231858   2.054   1.582   4.552 -0.2297 -0.3905 -0.7456
 3456TIP3    H131859   2.049   1.677   4.544  1.6219 -0.2083 -0.2161
 3456TIP3    H231860   2.145   1.561   4.533 -0.1450 -1.8597  1.0109
 3457TIP3   OH231861   1.701   2.143   5.455  0.3624  0.5091  0.1108
 3457TIP3    H131862   1.664   2.055   5.445 -1.5977  1.4951 -1.8704
 3457TIP3    H231863   1.665   2.174   5.538 -3.4139  1.3750 -1.6522
 3458TIP3   OH231864   3.378   6.369   4.830 -0.1282  0.3048 -0.2437
 3458TIP3    H131865   3.434   6.297   4.858 -2.4182 -0.8967  1.5716
 3458TIP3    H231866   3.338   6.338   4.749  1.5113  1.0530 -1.3918
 3459TIP3   OH231867   5.826   2.110  11.461 -0.1036 -0.2665 -0.0683
 3459TIP3    H131868   5.892   2.041  11.468  0.9446  0.6610 -0.6441
 3459TIP3    H231869   5.757   2.070  11.407  0.5495 -0.8233 -0.5061
 3460TIP3   OH231870   3.615   2.197  15.340 -0.0860 -0.3640 -0.5374
 3460TIP3    H131871   3.693   2.190  15.394 -1.0144 -0.2350  0.8906
 3460TIP3    H231872   3.636   2.264  15.275  0.2954  1.2371  1.1381
 3461TIP3   OH231873   6.776   0.529  11.695 -0.4467  0.0891  0.6362
 3461TIP3    H131874   6.736   0.615  11.704 -0.2374  0.2472  0.0699
 3461TIP3    H231875   6.868   0.547  11.677 -0.9482 -0.1327 -2.8862
 3462TIP3   OH231876   4.824   3.678  15.796 -0.0514  0.6973  0.0109
 3462TIP3    H131877   4.897   3.650  15.740  0.1432  1.8205 -0.3109
 3462TIP3    H231878   4.804   3.767  15.767 -0.3659  1.0659  1.3137
 3463TIP3   OH231879   3.119   2.839   3.697 -0.9417 -0.2092 -0.2574
 3463TIP3    H131880   3.200   2.823   3.744 -0.7188  1.0695 -0.1757
 3463TIP3    H231881   3.139   2.818   3.606 -0.0200  1.6268 -0.5083
 3464TIP3   OH231882   0.223   1.654  13.021 -0.4728  0.2952  0.1151
 3464TIP3    H131883   0.257   1.730  13.068 -1.6137  1.1184 -0.3387
 3464TIP3    H231884   0.132   1.646  13.050 -0.1810 -1.3525  0.6910
 3465TIP3   OH231885   3.815   5.732  11.829 -0.3918  0.1811 -0.2097
 3465TIP3    H131886   3.868   5.738  11.908 -1.8840 -0.6210  0.9110
 3465TIP3    H231887   3.771   5.817  11.823 -2.5175 -0.7124  1.5482
 3466TIP3   OH231888   2.358   6.597   1.838  0.2895 -0.0584 -0.1116
 3466TIP3    H131889   2.443   6.642   1.836  0.6253 -0.5236  1.6924
 3466TIP3    H231890   2.380   6.505   1.821 -0.1655  0.1495 -1.9548
 3467TIP3   OH231891   5.233   6.539  11.205  0.4772  0.1727 -0.0551
 3467TIP3    H131892   5.277   6.459  11.178  0.0299  0.1989 -0.8833
 3467TIP3    H231893   5.152   6.509  11.247 -0.2586  0.2030 -1.4036
 3468TIP3   OH231894   6.330   6.541  11.757 -0.2382  0.0527  0.4992
 3468TIP3    H131895   6.294   6.493  11.683  0.3908  0.3715 -0.0172
 3468TIP3    H231896   6.416   6.503  11.771  0.1676  0.8678  0.2411
 3469TIP3   OH231897   0.469   4.638  14.428  0.7355 -0.2113  0.3994
 3469TIP3    H131898   0.470   4.549  14.391 -1.3752 -0.4585  0.8323
 3469TIP3    H231899   0.377   4.657  14.444  1.3480  0.5798  3.8512
 3470TIP3   OH231900   0.687   0.743   0.505  0.3031 -0.9071 -0.6866
 3470TIP3    H131901   0.612   0.692   0.536  1.1962 -1.4948  0.5937
 3470TIP3    H231902   0.649   0.826   0.476 -0.6463 -0.4271  1.7585
 3471TIP3   OH231903   5.442   5.043  13.168 -0.4653 -0.1393  0.0500
 3471TIP3    H131904   5.397   4.964  13.140 -2.3467  0.4557  1.1761
 3471TIP3    H231905   5.475   5.022  13.256 -0.7796  0.2419  0.2639
 3472TIP3   OH231906   0.713   4.636   2.665  0.7863 -0.4649  0.2049
 3472TIP3    H131907   0.697   4.543   2.647  0.1421 -0.2972 -0.1460
 3472TIP3    H231908   0.799   4.654   2.626  0.3705 -0.6290 -0.8393
 3473TIP3   OH231909   5.009   3.660   3.161 -0.0961 -0.2615  0.0580
 3473TIP3    H131910   4.955   3.709   3.099  0.6863  1.2961  0.5666
 3473TIP3    H231911   4.947   3.619   3.221 -0.7564  0.5549 -0.0598
 3474TIP3   OH231912   0.382   3.696  15.416  0.0293 -0.0645  0.0991
 3474TIP3    H131913   0.290   3.677  15.436  0.0301 -0.4666 -0.2673
 3474TIP3    H231914   0.432   3.646  15.479  0.0012  3.0433  2.8679
 3475TIP3   OH231915   2.471   3.089  12.744  0.1802 -0.0605  0.1647
 3475TIP3    H131916   2.428   3.031  12.681  0.2186  0.8644 -0.7309
 3475TIP3    H231917   2.551   3.043  12.768  0.9867  0.2929 -1.7264
 3476TIP3   OH231918   0.134   4.305  12.143  0.5985 -0.1377 -0.1697
 3476TIP3    H131919   0.060   4.244  12.149 -0.3380  1.0108  0.5733
 3476TIP3    H231920   0.102   4.376  12.088  1.5193 -0.1017 -0.6752
 3477TIP3   OH231921   3.289   0.395  17.115 -1.1039 -0.1220 -0.7308
 3477TIP3    H131922   3.274   0.311  17.158 -0.1512 -0.5694 -1.2243
 3477TIP3    H231923   3.202   0.435  17.107 -1.4953 -0.8101  0.0038
 3478TIP3   OH231924   4.297   5.033  14.220 -0.3248 -0.7457  0.4781
 3478TIP3    H131925   4.303   5.116  14.174  1.0293 -1.0832  0.0102
 3478TIP3    H231926   4.251   5.053  14.302 -1.7705  0.0727 -0.4979
 3479TIP3   OH231927   4.190   6.218   2.892 -0.1221 -0.1891  0.0258
 3479TIP3    H131928   4.227   6.131   2.878  0.0658 -0.0751 -0.1887
 3479TIP3    H231929   4.125   6.206   2.961  1.0307 -0.1955  1.1366
 3480TIP3   OH231930   5.819   3.828  14.469 -0.0421  0.5742  0.0108
 3480TIP3    H131931   5.780   3.915  14.477  1.8871  1.5193 -0.3386
 3480TIP3    H231932   5.857   3.810  14.555 -1.4495 -0.5061  0.4649
 3481TIP3   OH231933   1.625   5.907  11.798  0.0050 -0.0573 -0.6615
 3481TIP3    H131934   1.592   5.992  11.826 -1.1085 -0.3783 -0.9463
 3481TIP3    H231935   1.677   5.927  11.720  1.0648  0.5315  0.1675
 3482TIP3   OH231936   0.252   1.840  12.098  0.1761 -0.0891  0.5218
 3482TIP3    H131937   0.324   1.876  12.150  0.1114 -0.8803  1.1908
 3482TIP3    H231938   0.175   1.854  12.152 -0.0652  0.1096  0.1260
 3483TIP3   OH231939   5.525   6.798   4.041 -0.2054  0.3481  0.0456
 3483TIP3    H131940   5.517   6.775   3.948  1.5747 -1.4056  0.2643
 3483TIP3    H231941   5.575   6.879   4.041 -0.9314  0.8103 -0.5386
 3484TIP3   OH231942   4.349   1.982   3.614  0.2267 -0.1994 -0.1196
 3484TIP3    H131943   4.262   1.952   3.590  0.1614  0.6233 -0.9701
 3484TIP3    H231944   4.408   1.913   3.583 -0.1157 -0.8508  0.6361
 3485TIP3   OH231945   4.516   0.065  16.775  0.4491  0.0130 -0.0032
 3485TIP3    H131946   4.490   0.132  16.712  1.1428  0.4665  0.1712
 3485TIP3    H231947   4.450   0.070  16.844  0.6314  0.6960  0.1286
 3486TIP3   OH231948   4.103   2.085   3.204 -0.1837  0.1584  0.4476
 3486TIP3    H131949   4.104   2.043   3.119  0.2363  0.7851  0.1294
 3486TIP3    H231950   4.196   2.102   3.223 -0.1641 -1.0797  1.5975
 3487TIP3   OH231951   4.019   3.951   1.025  0.5775 -0.0573  0.0378
 3487TIP3    H131952   4.039   4.044   1.016 -1.5544  0.4921  0.4137
 3487TIP3    H231953   4.036   3.931   1.117  0.3927  0.1355  0.1142
 3488TIP3   OH231954   6.195   4.512  12.814 -0.4927  0.2209  0.1702
 3488TIP3    H131955   6.145   4.441  12.773 -1.0302  0.8984 -0.3716
 3488TIP3    H231956   6.202   4.579  12.746  0.0818  0.6566  0.6480
 3489TIP3   OH231957   3.074   5.069   5.309 -0.1874  0.0107 -0.3659
 3489TIP3    H131958   3.020   5.048   5.233 -0.3699  1.7993 -0.7803
 3489TIP3    H231959   3.147   5.120   5.273  1.0160 -1.1218  0.3806
 3490TIP3   OH231960   6.778   4.239  14.943 -0.3425  0.5001  0.3187
 3490TIP3    H131961   6.853   4.277  14.988 -0.5372  0.3773  0.7455
 3490TIP3    H231962   6.707   4.242  15.007 -1.0762  1.8451 -0.4945
 3491TIP3   OH231963   6.252   5.394   4.935 -0.9839  0.0667 -0.1239
 3491TIP3    H131964   6.256   5.299   4.932 -1.3807  0.0617 -0.4663
 3491TIP3    H231965   6.286   5.423   4.851  1.7200  0.3171  0.9652
 3492TIP3   OH231966   4.047   0.376   0.894  0.1611  1.1179  0.0964
 3492TIP3    H131967   4.074   0.285   0.881 -1.8830  0.4152  0.3502
 3492TIP3    H231968   4.020   0.405   0.807 -3.5018 -0.1162  0.6271
 3493TIP3   OH231969   1.410   1.815   5.538  0.0704  0.2129  0.0324
 3493TIP3    H131970   1.374   1.874   5.472 -0.4118  1.5014  1.3891
 3493TIP3    H231971   1.386   1.728   5.508  0.0643  0.7389 -1.5965
 3494TIP3   OH231972   0.597   0.266   0.309  0.2735  0.1875 -0.1070
 3494TIP3    H131973   0.539   0.217   0.367  0.0266 -2.1983 -2.2218
 3494TIP3    H231974   0.673   0.287   0.363 -1.4503  1.2882  2.0454
 3495TIP3   OH231975   5.793   3.869  11.664 -0.2214 -0.1719  0.2279
 3495TIP3    H131976   5.802   3.954  11.621  3.1811  1.0891  3.0106
 3495TIP3    H231977   5.734   3.884  11.737  0.5064 -0.1200  0.8166
 3496TIP3   OH231978   6.538   2.901   0.023  0.2143  0.1356  0.2867
 3496TIP3    H131979   6.477   2.953  -0.029 -0.1249 -0.8609 -0.3487
 3496TIP3    H231980   6.560   2.956   0.098  1.0056  1.7711 -1.0943
 3497TIP3   OH231981   0.396   3.791   2.231  0.2148 -0.1381 -0.2044
 3497TIP3    H131982   0.435   3.850   2.295 -0.1408 -0.1744  0.0517
 3497TIP3    H231983   0.375   3.712   2.281  2.0120 -1.0652 -0.8287
 3498TIP3   OH231984   1.610   5.372   3.490  0.2274 -0.3689 -0.2828
 3498TIP3    H131985   1.627   5.418   3.408 -1.4292  0.8654  0.0112
 3498TIP3    H231986   1.515   5.365   3.495  0.2816 -0.5071  1.4635
 3499TIP3   OH231987   3.502   3.297  16.931  0.7219 -0.9994  0.0608
 3499TIP3    H131988   3.461   3.301  17.018 -0.8642  0.7841 -0.7007
 3499TIP3    H231989   3.429   3.286  16.870  1.7281 -1.2855 -1.1401
 3500TIP3   OH231990   0.734   6.154  13.991 -0.4237  0.2905 -0.1513
 3500TIP3    H131991   0.808   6.095  14.006  0.2180  1.0576 -0.2127
 3500TIP3    H231992   0.718   6.194  14.077  0.0804  1.0721 -0.4088
 3501TIP3   OH231993   6.467   3.472   2.489 -0.1909 -0.1483  0.0905
 3501TIP3    H131994   6.377   3.502   2.479 -0.2117 -0.8597 -2.7297
 3501TIP3    H231995   6.464   3.411   2.563 -2.2899 -1.0050 -0.6280
 3502TIP3   OH231996   4.072   2.745   3.292  0.1643 -0.4306 -0.5331
 3502TIP3    H131997   4.131   2.758   3.366  1.2210 -1.3873 -1.1552
 3502TIP3    H231998   4.065   2.831   3.252  0.2256 -0.0677  0.2177
 3503TIP3   OH231999   1.890   3.409   2.825  0.3062 -0.2956 -0.2630
 3503TIP3    H132000   1.968   3.362   2.853 -0.6076 -1.9115 -0.2463
 3503TIP3    H232001   1.859   3.454   2.903  0.5417 -0.6644  0.0469
 3504TIP3   OH232002   1.678   4.370  13.859  0.0589 -0.6042  0.1070
 3504TIP3    H132003   1.677   4.300  13.925  3.0464 -0.2855  0.6265
 3504TIP3    H232004   1.668   4.450  13.910  0.8898 -0.4473  0.0405
 3505TIP3   OH232005   4.325   1.951   1.026  0.3226  0.0043 -0.0885
 3505TIP3    H132006   4.351   1.871   1.072 -3.4016 -1.1376  0.4202
 3505TIP3    H232007   4.329   2.019   1.093  2.7483  0.1662 -0.3144
 3506TIP3   OH232008   1.328   5.497   2.696  0.1079  0.1942 -0.0683
 3506TIP3    H132009   1.253   5.556   2.697 -0.6501 -0.7393 -0.1274
 3506TIP3    H232010   1.393   5.541   2.641 -1.5315 -0.2947 -2.5759
 3507TIP3   OH232011   4.219   3.049   4.019 -0.7049  0.0912 -0.5354
 3507TIP3    H132012   4.216   3.125   4.077  0.9762  1.0602 -1.6527
 3507TIP3    H232013   4.249   2.977   4.074 -1.3983  0.4385  0.3121
 3508TIP3   OH232014   2.133   4.823   2.232 -0.0201 -0.0736 -0.2576
 3508TIP3    H132015   2.118   4.893   2.168 -0.6277  1.1470  1.1616
 3508TIP3    H232016   2.181   4.865   2.303 -0.6579 -1.0194  0.7685
 3509TIP3   OH232017   1.705   2.640  13.990  0.1059 -0.0978  0.6657
 3509TIP3    H132018   1.682   2.636  14.083  3.3092 -1.1149  1.5531
 3509TIP3    H232019   1.743   2.727  13.978 -3.2374  1.3494 -0.6360
 3510TIP3   OH232020   4.929   2.608   3.062  0.4854 -0.0007  0.3887
 3510TIP3    H132021   4.886   2.694   3.057 -1.5459 -1.0184 -1.9316
 3510TIP3    H232022   5.017   2.623   3.028  0.5001  1.3244  0.9613
 3511TIP3   OH232023   1.572   1.195  11.912  0.0792 -0.2554 -0.2142
 3511TIP3    H132024   1.512   1.146  11.968 -0.3766  2.2417  1.6531
 3511TIP3    H232025   1.529   1.280  11.900  0.7756 -0.2482 -3.3793
 3512TIP3   OH232026   4.000   2.000  15.178 -0.0051  0.2945 -0.0604
 3512TIP3    H132027   4.059   1.934  15.142 -0.7022  0.6269 -1.9566
 3512TIP3    H232028   4.041   2.084  15.156  0.8439  0.5476  2.2741
 3513TIP3   OH232029   2.216   4.214  13.506 -0.1769 -0.3256 -0.1012
 3513TIP3    H132030   2.242   4.283  13.567  1.3766  0.2290 -1.3197
 3513TIP3    H232031   2.233   4.251  13.419  1.6281 -2.5165 -0.7864
 3514TIP3   OH232032   5.755   2.083  12.550  0.3214 -0.0551  0.1882
 3514TIP3    H132033   5.673   2.127  12.576  1.2335  0.7809  1.7770
 3514TIP3    H232034   5.811   2.154  12.519 -0.1497 -0.8350 -2.7685
 3515TIP3   OH232035   4.464   0.864  15.323  0.4883  0.0545 -0.1173
 3515TIP3    H132036   4.500   0.810  15.252  0.1460  0.2133 -0.4163
 3515TIP3    H232037   4.460   0.952  15.285 -0.3433  0.0185 -0.1407
 3516TIP3   OH232038   0.035   5.402   3.042 -0.1106 -0.3000 -0.1643
 3516TIP3    H132039   0.023   5.377   3.134  0.2023 -0.1370 -0.0772
 3516TIP3    H232040   0.130   5.399   3.029 -0.2474 -2.5822 -1.1168
 3517TIP3   OH232041   0.390   5.077   1.367  0.2753 -0.1772 -0.2107
 3517TIP3    H132042   0.350   5.097   1.452  1.3413 -3.7196  1.3257
 3517TIP3    H232043   0.482   5.060   1.388  0.7111 -0.4759 -2.2005
 3518TIP3   OH232044   0.811   5.558  14.135 -0.1724 -1.3438  0.3655
 3518TIP3    H132045   0.804   5.478  14.083 -2.1879 -0.2005 -1.3156
 3518TIP3    H232046   0.732   5.559  14.188 -0.4242 -0.2644  0.0036
 3519TIP3   OH232047   1.992   6.450  16.498 -0.8813  0.5068 -0.1999
 3519TIP3    H132048   1.989   6.483  16.408  0.1193 -0.2774 -0.5435
 3519TIP3    H232049   2.085   6.433  16.514 -1.1838 -0.5642  0.5411
 3520TIP3   OH232050   3.712   3.037  13.044  0.6601 -0.3977 -0.2494
 3520TIP3    H132051   3.710   3.040  13.139 -0.6702 -1.7919 -0.1960
 3520TIP3    H232052   3.668   2.955  13.021  1.8434 -0.6018 -2.0477
 3521TIP3   OH232053   0.949   4.918  14.100  0.0450  0.3314  0.0594
 3521TIP3    H132054   1.033   4.873  14.092  0.2234  0.3691  1.4919
 3521TIP3    H232055   0.899   4.889  14.023 -0.0963 -2.8939  1.2209
 3522TIP3   OH232056   2.371   6.448   5.959 -0.2807 -0.0548  0.5497
 3522TIP3    H132057   2.463   6.456   5.934 -0.8762  3.0163 -1.1656
 3522TIP3    H232058   2.361   6.504   6.035 -0.7096 -0.6215  0.9235
 3523TIP3   OH232059   2.389   0.920  11.345 -0.0736 -0.3421  0.4560
 3523TIP3    H132060   2.355   0.891  11.429  0.0641 -0.4851  0.4640
 3523TIP3    H232061   2.473   0.962  11.365 -0.0611 -0.3373  0.3958
 3524TIP3   OH232062   2.878   4.522  13.249  0.5163  0.4822  0.2476
 3524TIP3    H132063   2.844   4.608  13.225  1.4683  0.4041 -1.5376
 3524TIP3    H232064   2.801   4.474  13.279 -0.1553  1.6949  0.5464
 3525TIP3   OH232065   1.016   5.006   1.521  0.1345  0.1298 -0.3111
 3525TIP3    H132066   0.971   5.077   1.567  0.6321  0.0875  0.2638
 3525TIP3    H232067   1.109   5.023   1.538  0.2227 -1.4627  1.0663
 3526TIP3   OH232068   1.540   5.920   1.274 -0.1953  0.3768  0.2441
 3526TIP3    H132069   1.574   5.856   1.336 -2.4629 -0.3435  0.8607
 3526TIP3    H232070   1.511   5.869   1.199 -1.3971  0.7039  0.4526
 3527TIP3   OH232071   3.198   3.572  13.959 -0.2052  0.3864 -0.1837
 3527TIP3    H132072   3.242   3.537  14.037 -2.6189 -0.1250  1.0335
 3527TIP3    H232073   3.131   3.631  13.994 -1.8339 -0.4330 -1.8038
 3528TIP3   OH232074   4.702   3.291   1.023 -0.0945  0.5267 -0.1486
 3528TIP3    H132075   4.654   3.362   0.981 -0.3764 -0.5793 -1.8402
 3528TIP3    H232076   4.792   3.322   1.029 -0.4546  1.4950  0.3029
 3529TIP3   OH232077   0.813   2.770  13.761  0.0651  0.3219 -0.2760
 3529TIP3    H132078   0.900   2.808  13.743  0.8505 -0.6070  1.3360
 3529TIP3    H232079   0.754   2.845  13.763  1.0778  1.1392 -0.0361
 3530TIP3   OH232080   5.602   0.358   5.102 -0.3653  0.2441 -0.5329
 3530TIP3    H132081   5.692   0.391   5.111  0.1669 -1.2000 -0.2515
 3530TIP3    H232082   5.570   0.351   5.192  0.2179 -1.6977 -0.4141
 3531TIP3   OH232083   0.739   0.018  13.752  0.3619 -0.8571  0.4734
 3531TIP3    H132084   0.742   0.081  13.824  0.4058 -1.1580  0.7332
 3531TIP3    H232085   0.727  -0.067  13.794 -0.6100 -0.9265  0.0731
 3532TIP3   OH232086   6.105   1.437  10.410 -0.6100  0.5085  0.0309
 3532TIP3    H132087   6.140   1.453  10.323 -2.6571 -1.2386 -1.2111
 3532TIP3    H232088   6.048   1.512  10.428  0.3390  1.2026  0.1818
 3533TIP3   OH232089   5.799   0.935   0.961 -0.2502  0.0340  0.0155
 3533TIP3    H132090   5.789   0.853   0.913  2.0938 -0.0454 -0.4571
 3533TIP3    H232091   5.878   0.975   0.924 -0.9404  2.1721  0.7268
 3534TIP3   OH232092   3.877   5.294  14.950  0.5612  0.2939  0.4965
 3534TIP3    H132093   3.953   5.351  14.942  0.7167 -0.0588 -0.8203
 3534TIP3    H232094   3.852   5.275  14.859 -0.5821 -0.2740  0.9099
 3535TIP3   OH232095   4.991   5.061   5.279 -0.1983  0.2857  0.3889
 3535TIP3    H132096   5.030   5.111   5.351  2.0356 -0.8792  0.0673
 3535TIP3    H232097   5.050   5.075   5.205 -0.2613 -1.6842 -0.0807
 3536TIP3   OH232098   0.470   0.759  11.005  0.1289  0.4328 -0.4247
 3536TIP3    H132099   0.472   0.754  10.909 -1.4888 -0.6246 -0.4489
 3536TIP3    H232100   0.390   0.809  11.024  0.1383  0.1499  0.3718
 3537TIP3   OH232101   3.004   6.298  16.621  0.4456  0.4297  0.1099
 3537TIP3    H132102   3.031   6.227  16.680  0.5294 -0.0616 -0.5137
 3537TIP3    H232103   2.924   6.332  16.661 -0.1807 -0.7127 -0.1375
 3538TIP3   OH232104   0.590   0.359  15.150  0.5630  0.0534  0.1563
 3538TIP3    H132105   0.635   0.275  15.157 -1.2721 -0.9502  0.5329
 3538TIP3    H232106   0.596   0.383  15.058 -0.1068 -1.2092 -0.2279
 3539TIP3   OH232107   6.431   2.610   1.280 -0.0889 -0.3707  0.0309
 3539TIP3    H132108   6.479   2.643   1.204  0.1648 -2.2368 -0.6785
 3539TIP3    H232109   6.448   2.674   1.349  0.7268  0.7004 -1.1275
 3540TIP3   OH232110   6.100   6.413   2.831 -0.7986 -0.4272 -0.0107
 3540TIP3    H132111   6.125   6.334   2.878  0.1116 -0.6196 -0.7845
 3540TIP3    H232112   6.022   6.445   2.877 -0.4890 -1.1194  1.0282
 3541TIP3   OH232113   6.411   5.949  13.141 -0.0704  0.1561 -0.3087
 3541TIP3    H132114   6.387   5.916  13.228  0.8087  3.5046  1.3986
 3541TIP3    H232115   6.459   5.877  13.100  2.7670 -0.4369  3.5073
 3542TIP3   OH232116   4.530   4.617   1.540  0.9954 -0.1526  0.4118
 3542TIP3    H132117   4.444   4.576   1.544  1.8352 -1.9441  1.2499
 3542TIP3    H232118   4.512   4.709   1.520 -0.9921 -0.8255 -1.2281
 3543TIP3   OH232119   6.296   0.432   5.488 -0.4393  0.0033 -0.1849
 3543TIP3    H132120   6.295   0.358   5.548 -1.8670 -0.5529 -0.8763
 3543TIP3    H232121   6.243   0.499   5.531 -0.2246  0.1515 -0.1492
 3544TIP3   OH232122   4.185   5.560   5.298  0.1804  0.2042 -0.2837
 3544TIP3    H132123   4.203   5.515   5.216  0.2685 -1.9680  0.8477
 3544TIP3    H232124   4.093   5.540   5.317  0.5151 -0.4013  0.7614
 3545TIP3   OH232125   5.075   1.945  15.793 -0.0240 -0.3317  0.1682
 3545TIP3    H132126   5.006   1.883  15.767  0.3179 -0.3656 -0.7082
 3545TIP3    H232127   5.132   1.895  15.851  0.6573 -1.0927 -1.1079
 3546TIP3   OH232128   6.445   1.527   5.614  0.4127 -0.4017 -0.2554
 3546TIP3    H132129   6.391   1.458   5.653  1.0950 -1.3219 -0.8839
 3546TIP3    H232130   6.462   1.587   5.686  1.4750 -1.9594  0.8736
 3547TIP3   OH232131   6.631   1.681  15.725  0.1823  0.0088  0.2153
 3547TIP3    H132132   6.601   1.739  15.654  0.9036  1.0431  0.7263
 3547TIP3    H232133   6.555   1.627  15.746 -0.5761  0.9077 -0.1604
 3548TIP3   OH232134   3.002   1.231  10.608 -0.2409  0.2279  0.1161
 3548TIP3    H132135   3.082   1.257  10.562 -0.3448  1.8667  0.7921
 3548TIP3    H232136   2.983   1.305  10.666 -0.5975 -1.3731  2.1645
 3549TIP3   OH232137   3.974   5.040  15.007  0.5547  0.9560 -0.5232
 3549TIP3    H132138   3.940   5.125  14.978  0.6416  0.5889 -1.7984
 3549TIP3    H232139   4.043   5.019  14.943 -1.6812 -1.5923 -2.3703
 3550TIP3   OH232140   3.855   5.386  14.468 -0.4768  0.1590 -0.3160
 3550TIP3    H132141   3.886   5.460  14.521 -0.9274  0.6677 -0.7468
 3550TIP3    H232142   3.802   5.427  14.399  0.2374 -0.4590 -1.2699
 3551TIP3   OH232143   3.719   5.119   1.557  0.8348 -0.5510 -0.3650
 3551TIP3    H132144   3.729   5.033   1.597  0.1846 -0.6112 -0.3200
 3551TIP3    H232145   3.803   5.135   1.512  1.7671 -0.2694  1.3941
 3552TIP3   OH232146   0.959   2.435  17.010  0.1622 -0.2105 -0.3599
 3552TIP3    H132147   0.981   2.446  17.103  1.0826  0.4535 -0.6308
 3552TIP3    H232148   0.866   2.415  17.009  0.6055 -2.7034  0.8499
 3553TIP3   OH232149   4.220   5.620  11.303  0.9350  0.4001 -0.3615
 3553TIP3    H132150   4.244   5.529  11.286  2.5006  0.3466  1.7530
 3553TIP3    H232151   4.296   5.657  11.348 -0.0989  2.4577 -0.1799
 3554TIP3   OH232152   0.864   4.276   6.489 -0.0373 -0.9239  0.1611
 3554TIP3    H132153   0.886   4.361   6.527  0.0608 -1.1999  0.7452
 3554TIP3    H232154   0.794   4.295   6.426  1.5512 -0.1070 -1.4152
 3555TIP3   OH232155   1.167   5.950   1.140  0.2528 -0.6472  0.7213
 3555TIP3    H132156   1.114   5.974   1.217 -0.6285 -0.4722  0.0711
 3555TIP3    H232157   1.105   5.951   1.067  1.5711  1.8119 -0.4803
 3556TIP3   OH232158   1.834   5.450  12.119  0.4107 -0.1003 -0.2539
 3556TIP3    H132159   1.827   5.544  12.137  0.2374  0.5336 -3.0922
 3556TIP3    H232160   1.743   5.421  12.108  0.5190 -0.1892 -0.9943
 3557TIP3   OH232161   4.913   5.852  10.443  0.4466 -0.4177 -0.3352
 3557TIP3    H132162   4.926   5.807  10.527  2.2692  0.3257 -0.1944
 3557TIP3    H232163   4.829   5.898  10.454  0.5291 -0.5386  0.9792
 3558TIP3   OH232164   5.836   3.356  12.927  0.4471  0.3046  0.0586
 3558TIP3    H132165   5.850   3.261  12.936  1.0828  0.3249 -0.6145
 3558TIP3    H232166   5.840   3.390  13.016  2.0920 -0.0614  0.1591
 3559TIP3   OH232167   2.665   4.861   0.038 -0.4665 -0.0262  0.2146
 3559TIP3    H132168   2.724   4.935   0.021 -1.3219  0.7942  0.6919
 3559TIP3    H232169   2.670   4.808  -0.041  0.9087  0.0214  0.2501
 3560TIP3   OH232170   1.834   6.577  16.708  0.5419  0.4975  0.4421
 3560TIP3    H132171   1.825   6.672  16.714  0.3839  0.4796  0.4936
 3560TIP3    H232172   1.866   6.561  16.619 -2.6325  0.3891 -0.8222
 3561TIP3   OH232173   0.361   3.191  14.370 -0.6446 -0.3884 -0.0206
 3561TIP3    H132174   0.355   3.095  14.370 -0.0616 -0.4337 -0.1127
 3561TIP3    H232175   0.332   3.217  14.458  1.3980 -0.8374  0.8625
 3562TIP3   OH232176   4.884   0.110   5.028 -0.2991  0.4696 -0.2666
 3562TIP3    H132177   4.941   0.035   5.014  0.5614  1.1030 -0.1882
 3562TIP3    H232178   4.811   0.096   4.967 -0.9805 -1.2316  0.8615
 3563TIP3   OH232179   0.879   5.099   3.774  0.0660  0.6748  0.1801
 3563TIP3    H132180   0.834   5.166   3.825 -0.9763 -0.4948  0.8645
 3563TIP3    H232181   0.900   5.030   3.838  1.5194  0.5288 -0.4141
 3564TIP3   OH232182   3.314   3.702   1.378  0.4397  0.4553 -0.2201
 3564TIP3    H132183   3.332   3.796   1.385  0.0039  0.4700  0.8750
 3564TIP3    H232184   3.292   3.675   1.467 -0.7436 -0.4150 -0.7425
 3565TIP3   OH232185   3.023   3.219  11.561  0.2660  0.3140 -0.4407
 3565TIP3    H132186   2.966   3.175  11.624  0.7048  0.5396  0.1266
 3565TIP3    H232187   2.964   3.271  11.507 -0.0218  0.9650  0.4835
 3566TIP3   OH232188   2.182   3.211   4.468 -0.2250  0.3930 -0.2924
 3566TIP3    H132189   2.275   3.194   4.453 -0.4141 -0.0024 -1.0532
 3566TIP3    H232190   2.136   3.144   4.417 -0.9286  0.4981  0.1870
 3567TIP3   OH232191   4.559   0.402  15.042 -0.8017  0.3473  0.3617
 3567TIP3    H132192   4.598   0.406  14.955  0.9873 -1.8685  0.9515
 3567TIP3    H232193   4.466   0.383  15.026 -0.6042  0.4822 -1.0578
 3568TIP3   OH232194   4.330   3.147   0.233  0.1904  0.3234  0.1374
 3568TIP3    H132195   4.274   3.087   0.185  0.0762  0.0013  0.6596
 3568TIP3    H232196   4.394   3.090   0.276 -0.7714  0.4143  1.7929
 3569TIP3   OH232197   5.085   0.966   4.760 -0.1630  0.5409 -0.0333
 3569TIP3    H132198   5.167   0.954   4.808 -0.4079  0.0207  0.2719
 3569TIP3    H232199   5.107   0.951   4.669 -0.1121 -0.6281  0.1547
 3570TIP3   OH232200   0.502   5.859  14.655  0.6296  0.0033  0.6678
 3570TIP3    H132201   0.494   5.771  14.690 -1.2583  0.3737  1.2824
 3570TIP3    H232202   0.537   5.911  14.727  0.4513  0.0051  0.7542
 3571TIP3   OH232203   1.181   3.064   5.404  0.3857 -0.2877  0.0883
 3571TIP3    H132204   1.223   3.060   5.318  0.7611 -1.2524  0.3043
 3571TIP3    H232205   1.243   3.022   5.463 -0.4967 -0.9518  0.5694
 3572TIP3   OH232206   5.419   2.372  12.036  0.0667 -0.3552 -0.6374
 3572TIP3    H132207   5.468   2.446  11.999  0.0913 -0.1129 -0.1324
 3572TIP3    H232208   5.389   2.403  12.121  0.2578 -1.0017 -0.3257
 3573TIP3   OH232209   4.962   2.913  16.225  0.5346  0.1827  0.1137
 3573TIP3    H132210   4.898   2.936  16.292  0.8205  1.5280 -0.0557
 3573TIP3    H232211   5.039   2.883  16.273  0.0294 -0.8109  0.3279
 3574TIP3   OH232212   3.491   5.439  11.756  0.3750 -0.0438 -0.1070
 3574TIP3    H132213   3.581   5.415  11.774  0.4332  0.6691  0.6343
 3574TIP3    H232214   3.447   5.357  11.734  1.5739 -0.1746 -2.2074
 3575TIP3   OH232215   2.206   3.704   4.213 -0.1137  0.2634 -0.7930
 3575TIP3    H132216   2.219   3.777   4.151  0.6800 -0.1700 -1.1428
 3575TIP3    H232217   2.292   3.664   4.221 -0.3019  0.0609  0.2940
 3576TIP3   OH232218   2.135   4.532  14.758  0.2174 -0.1366 -0.2185
 3576TIP3    H132219   2.085   4.509  14.680 -0.1206  0.5155 -0.1987
 3576TIP3    H232220   2.086   4.604  14.798  0.8742  0.1382  0.1086
 3577TIP3   OH232221   1.162   3.905  12.215 -0.2473  0.2464  0.4323
 3577TIP3    H132222   1.072   3.940  12.210 -0.4208 -0.2706 -0.1187
 3577TIP3    H232223   1.154   3.814  12.187  0.2671 -0.1376  1.4872
 3578TIP3   OH232224   0.715   0.682   1.892 -0.2318  0.0700  0.2228
 3578TIP3    H132225   0.786   0.701   1.831  0.0720  0.9929  0.8366
 3578TIP3    H232226   0.640   0.661   1.836  0.2424  0.1432 -0.4499
 3579TIP3   OH232227   3.424   2.810   0.318 -0.0554 -0.4944 -0.0791
 3579TIP3    H132228   3.374   2.852   0.248  0.5338 -0.5800 -0.5676
 3579TIP3    H232229   3.445   2.723   0.282  2.3080  0.3027 -0.8118
 3580TIP3   OH232230   6.108   0.506   2.144  0.0708 -0.2932  0.0270
 3580TIP3    H132231   6.064   0.557   2.076  0.2650 -0.8778 -0.5460
 3580TIP3    H232232   6.145   0.431   2.098 -1.7130 -1.9368  1.1079
 3581TIP3   OH232233   2.064   6.408  13.064  0.0024  0.5055  0.1601
 3581TIP3    H132234   1.974   6.413  13.032  0.2611 -2.0222 -1.2270
 3581TIP3    H232235   2.057   6.357  13.145  0.2945 -1.0601 -0.7636
 3582TIP3   OH232236   4.313   5.852  12.629 -0.2192  0.0649  0.1102
 3582TIP3    H132237   4.258   5.788  12.675 -0.8552 -0.2913 -1.0939
 3582TIP3    H232238   4.263   5.933  12.631 -0.7868 -0.2385 -0.9124
 3583TIP3   OH232239   2.115   4.806  12.403  0.0820  0.2833 -0.8248
 3583TIP3    H132240   2.051   4.876  12.399  0.3622  0.7306  1.2998
 3583TIP3    H232241   2.200   4.851  12.401  0.2661 -0.0032  0.1125
 3584TIP3   OH232242   2.603   2.250  11.486 -0.1506  0.1185  0.4024
 3584TIP3    H132243   2.596   2.156  11.469 -0.0260  0.1555  0.1350
 3584TIP3    H232244   2.697   2.265  11.500 -0.3237 -0.0193  1.8013
 3585TIP3   OH232245   6.154   5.225   1.630  0.9951 -0.3299  0.6296
 3585TIP3    H132246   6.201   5.268   1.702 -0.6400  0.3283  1.3661
 3585TIP3    H232247   6.083   5.177   1.673  0.6707 -0.8673 -0.4701
 3586TIP3   OH232248   2.077   0.315  14.265  0.0446 -0.2049  0.3855
 3586TIP3    H132249   1.996   0.279  14.231  0.1005 -0.2113  0.2599
 3586TIP3    H232250   2.145   0.257  14.232  0.1719  0.2268 -0.1228
 3587TIP3   OH232251   0.849   4.012   5.487 -0.0017  0.0068  0.3753
 3587TIP3    H132252   0.762   3.996   5.522 -0.1463  1.6697  0.8291
 3587TIP3    H232253   0.907   4.010   5.563 -0.0263  1.5111  0.4561
 3588TIP3   OH232254   1.814   4.763   4.081 -0.3793  0.7829 -0.6473
 3588TIP3    H132255   1.830   4.677   4.042 -0.2765  0.4239  0.1547
 3588TIP3    H232256   1.899   4.806   4.079 -0.1520  0.3905  0.0417
 3589TIP3   OH232257   4.223   5.865  14.289  0.2145  0.2352  0.5902
 3589TIP3    H132258   4.255   5.930  14.351  2.2989  0.6061 -0.7857
 3589TIP3    H232259   4.132   5.889  14.273  0.5669  2.0168  1.1199
 3590TIP3   OH232260   2.358   2.726  16.892  0.0234 -0.3171  0.1654
 3590TIP3    H132261   2.405   2.646  16.914 -0.4808 -0.7270 -0.2346
 3590TIP3    H232262   2.293   2.735  16.961  1.7971  1.2264  1.7600
 3591TIP3   OH232263   5.060   2.422  15.583 -0.3255  0.2283 -0.1109
 3591TIP3    H132264   4.975   2.392  15.551 -0.9890  0.8423  1.0131
 3591TIP3    H232265   5.041   2.503  15.631  1.0193  0.8573 -0.5889
 3592TIP3   OH232266   0.969   0.347  13.770  0.1985 -0.3580 -0.3952
 3592TIP3    H132267   0.888   0.352  13.822  0.5390  0.3811  0.0930
 3592TIP3    H232268   0.956   0.411  13.700  0.2510 -0.4208 -0.4619
 3593TIP3   OH232269   0.562   2.571  15.537 -0.0353 -0.4317  0.4492
 3593TIP3    H132270   0.566   2.659  15.498 -3.8191  0.5721  1.9634
 3593TIP3    H232271   0.517   2.517  15.472 -0.0835 -0.5676  0.5939
 3594TIP3   OH232272   4.696   5.719  11.601 -0.1292 -0.3310  0.5258
 3594TIP3    H132273   4.728   5.765  11.679  1.6107  0.3525 -0.5251
 3594TIP3    H232274   4.772   5.670  11.570 -0.9562 -1.0479 -0.4383
 3595TIP3   OH232275   6.196   6.198   0.315  0.1541  0.3842 -0.0590
 3595TIP3    H132276   6.104   6.224   0.305  0.4733  1.9532  0.7097
 3595TIP3    H232277   6.245   6.278   0.297  1.2766  0.0222  1.2361
 3596TIP3   OH232278   3.781   4.946  16.658  0.3328 -0.1451  0.9465
 3596TIP3    H132279   3.778   5.022  16.716  2.4197  0.3920  0.4431
 3596TIP3    H232280   3.867   4.952  16.615 -0.1946 -1.7992 -0.4580
 3597TIP3   OH232281   3.152   2.817  14.624 -1.3427  0.1763  0.4987
 3597TIP3    H132282   3.168   2.729  14.658 -1.3848  0.4945  1.3517
 3597TIP3    H232283   3.078   2.806  14.564 -0.8278 -0.5057 -0.0303
 3598TIP3   OH232284   1.953   4.954   3.418 -0.6967  0.0325  0.5656
 3598TIP3    H132285   2.030   5.000   3.453  0.9891 -2.0803 -0.0979
 3598TIP3    H232286   1.894   4.947   3.492  0.6643 -0.0621  1.6911
 3599TIP3   OH232287   1.099   1.798   4.596  0.0720 -0.0870 -0.0693
 3599TIP3    H132288   1.135   1.826   4.680 -0.2247  0.1345 -0.0158
 3599TIP3    H232289   1.023   1.745   4.619 -1.0578  1.4088 -0.2214
 3600TIP3   OH232290   2.408   2.115  13.728 -0.6651 -0.0081  0.2285
 3600TIP3    H132291   2.315   2.116  13.750 -0.7239 -2.5558  0.4138
 3600TIP3    H232292   2.423   2.027  13.693  1.7183  0.2969  0.3352
 3601TIP3   OH232293   6.400   0.917  14.749 -0.2161  0.0848  0.2122
 3601TIP3    H132294   6.444   1.001  14.734  0.0251 -0.1029 -0.1665
 3601TIP3    H232295   6.390   0.911  14.844  2.2430 -0.6939  0.5025
 3602TIP3   OH232296   4.217   0.227   0.663 -0.0107 -0.3736 -0.0834
 3602TIP3    H132297   4.157   0.290   0.624  0.3064  1.3160  2.0036
 3602TIP3    H232298   4.286   0.280   0.702 -0.7025 -1.7655  3.4392
 3603TIP3   OH232299   5.421   0.374   1.461  0.0575 -0.2883  0.3796
 3603TIP3    H132300   5.466   0.392   1.379  0.2173  0.5800  0.6474
 3603TIP3    H232301   5.486   0.329   1.515 -0.4342 -2.0260 -0.3974
 3604TIP3   OH232302   3.930   3.553  14.290 -0.1568 -0.4249  0.0779
 3604TIP3    H132303   3.921   3.461  14.264 -1.6947 -0.2999  0.0692
 3604TIP3    H232304   3.929   3.550  14.386 -1.1591 -0.3716  0.0862
 3605TIP3   OH232305   5.240   2.382   3.040  0.2978  0.4549 -0.0638
 3605TIP3    H132306   5.297   2.457   3.023  0.9713  0.0551  0.4199
 3605TIP3    H232307   5.154   2.411   3.008  0.1204  2.1141  1.7396
 3606TIP3   OH232308   1.165   2.634   3.207 -0.4016  0.3038 -0.4511
 3606TIP3    H132309   1.248   2.646   3.253 -1.3797  1.7155  1.0178
 3606TIP3    H232310   1.132   2.550   3.240 -1.3289  1.5235  1.9080
 3607TIP3   OH232311   4.433   3.368  11.397 -0.3653 -0.7497  0.0937
 3607TIP3    H132312   4.410   3.279  11.422 -0.4466 -0.3844  1.3862
 3607TIP3    H232313   4.351   3.417  11.404  0.0691 -0.1535  1.4413
 3608TIP3   OH232314   1.992   6.491  16.242  0.3539 -0.2551  0.1164
 3608TIP3    H132315   2.066   6.434  16.218  0.6270  1.1314 -2.7305
 3608TIP3    H232316   2.012   6.575  16.200 -1.3934  1.1265  1.8586
 3609TIP3   OH232317   2.744   1.149  10.437  0.0218  0.1029  0.0145
 3609TIP3    H132318   2.799   1.091  10.490  0.2865 -0.2689 -0.6507
 3609TIP3    H232319   2.660   1.103  10.432  0.9825 -1.6165 -2.7051
 3610TIP3   OH232320   2.970   1.638  11.751  0.0432 -0.0633 -0.0644
 3610TIP3    H132321   2.981   1.628  11.846  1.0071  0.2711 -0.1317
 3610TIP3    H232322   3.054   1.673  11.721 -0.6420  0.9113 -0.8932
 3611TIP3   OH232323   5.696   6.560   2.597 -0.0870  0.4528 -0.2550
 3611TIP3    H132324   5.659   6.537   2.511 -1.1767  2.5279 -0.3912
 3611TIP3    H232325   5.789   6.573   2.580  0.0665 -1.0127 -0.7025
 3612TIP3   OH232326   1.509   2.271   5.673  0.8414 -0.6154  0.0081
 3612TIP3    H132327   1.416   2.262   5.650  0.3158  0.2096  1.6521
 3612TIP3    H232328   1.534   2.356   5.637  0.6118 -0.2906  0.6024
 3613TIP3   OH232329   2.100   4.406   3.303 -0.3440 -0.1731 -0.0268
 3613TIP3    H132330   2.105   4.432   3.395  0.6320  0.1930 -0.1638
 3613TIP3    H232331   2.128   4.484   3.255 -1.4654 -0.1548 -0.6752
 3614TIP3   OH232332   2.852   3.408  15.069  0.1090  1.4201 -0.3009
 3614TIP3    H132333   2.833   3.398  15.162 -1.9418  0.2878 -0.7985
 3614TIP3    H232334   2.947   3.397  15.063  0.3138  1.7727  1.6581
 3615TIP3   OH232335   4.717   3.231  17.158  0.1488  0.4119  0.8573
 3615TIP3    H132336   4.647   3.167  17.165 -0.8212  1.5892  2.7076
 3615TIP3    H232337   4.764   3.206  17.078 -2.7729 -0.0185 -0.9005
 3616TIP3   OH232338   1.948   0.954  11.337 -0.0293  0.3602 -0.5832
 3616TIP3    H132339   1.930   0.898  11.412 -1.0713  1.3513 -0.0573
 3616TIP3    H232340   1.863   0.963  11.293  0.3191  0.7612 -1.1839
 3617TIP3   OH232341   6.357   1.577   1.144  0.2002  0.0916  0.0930
 3617TIP3    H132342   6.292   1.579   1.215 -1.5485  1.1597 -1.4326
 3617TIP3    H232343   6.441   1.591   1.188 -0.6826 -0.3909  2.0556
 3618TIP3   OH232344   0.341   2.296   4.662 -0.4482  0.0822 -0.0758
 3618TIP3    H132345   0.278   2.225   4.646 -1.0731  0.3621  1.0376
 3618TIP3    H232346   0.358   2.291   4.756  1.9228 -0.5613 -0.4745
 3619TIP3   OH232347   3.048   4.279   0.888  0.0670 -0.4358  0.0633
 3619TIP3    H132348   2.976   4.341   0.896  0.1315 -0.5918  2.3243
 3619TIP3    H232349   3.127   4.331   0.905  0.3801 -0.5643 -0.9364
 3620TIP3   OH232350   1.798   5.704   3.316  0.3327 -0.0079 -0.3263
 3620TIP3    H132351   1.811   5.788   3.271  1.7887 -0.2588 -0.4290
 3620TIP3    H232352   1.880   5.689   3.363 -0.4176 -0.7244  0.8194
 3621TIP3   OH232353   6.243   2.035   3.234 -0.4257 -0.4674 -0.1178
 3621TIP3    H132354   6.251   1.981   3.155 -0.6772 -0.8657  0.1206
 3621TIP3    H232355   6.318   2.093   3.232 -0.5946 -0.2658 -0.8088
 3622TIP3   OH232356   1.877   5.890  11.315  0.1212  0.3079 -0.0864
 3622TIP3    H132357   1.930   5.965  11.288  0.0459  1.1175  1.8543
 3622TIP3    H232358   1.939   5.831  11.358 -0.0751 -0.0966 -0.3469
 3623TIP3   OH232359   2.276   4.779  13.762  0.4372 -0.0192  0.4967
 3623TIP3    H132360   2.364   4.803  13.733  1.4370 -2.8982  0.8455
 3623TIP3    H232361   2.219   4.810  13.692  1.7317  1.5401  0.0610
 3624TIP3   OH232362   2.761   2.364   2.327 -0.2756 -0.1102 -0.3154
 3624TIP3    H132363   2.727   2.388   2.241  0.9122  2.6626 -0.1201
 3624TIP3    H232364   2.713   2.420   2.388 -0.1129 -1.0304  0.6769
 3625TIP3   OH232365   4.404   2.252  10.537  0.3673 -0.5688 -0.0891
 3625TIP3    H132366   4.448   2.337  10.544  0.5654 -0.5574 -1.3077
 3625TIP3    H232367   4.445   2.198  10.605 -0.2030  0.4754  1.1330
 3626TIP3   OH232368   1.488   0.224   6.179 -0.1223  0.0257  0.3146
 3626TIP3    H132369   1.462   0.272   6.258 -0.5838 -1.4145  1.0808
 3626TIP3    H232370   1.562   0.171   6.207  0.5597  0.4838 -0.5922
 3627TIP3   OH232371   1.836   5.358  11.799  0.2346 -0.0575 -0.0918
 3627TIP3    H132372   1.806   5.306  11.725 -1.5437 -0.6841  1.0115
 3627TIP3    H232373   1.869   5.295  11.862  0.9958  0.4016 -0.0244
 3628TIP3   OH232374   0.569   2.790   6.096  0.3217  0.0929 -0.3406
 3628TIP3    H132375   0.597   2.863   6.152  0.3617 -0.8049  0.8590
 3628TIP3    H232376   0.474   2.797   6.094  0.3046 -0.0138  0.0459
 3629TIP3   OH232377   0.010   4.343   6.439 -0.6671  0.4490  0.5040
 3629TIP3    H132378   0.037   4.431   6.411  0.7462 -0.2389 -0.4538
 3629TIP3    H232379  -0.025   4.356   6.527 -1.8026  2.1580 -0.1377
 3630TIP3   OH232380   4.030   3.566   0.514  0.4061  0.4023 -0.8722
 3630TIP3    H132381   4.102   3.505   0.498 -0.9503 -1.0696 -1.6836
 3630TIP3    H232382   4.039   3.632   0.444 -0.5240 -1.2779 -2.6918
 3631TIP3   OH232383   0.534   6.820  16.917 -0.2430 -0.0306  0.0034
 3631TIP3    H132384   0.443   6.797  16.897 -0.1983  0.1789 -0.4398
 3631TIP3    H232385   0.532   6.843  17.010 -0.3871 -1.3125  0.3397
 3632TIP3   OH232386   6.379   1.545   3.668  0.4977 -0.2644  0.4086
 3632TIP3    H132387   6.405   1.636   3.655  0.4055 -0.1227  1.1474
 3632TIP3    H232388   6.391   1.504   3.582  1.0622  0.3128  0.1998
 3633TIP3   OH232389   6.715   4.472   2.203 -1.0730 -0.3740  0.2508
 3633TIP3    H132390   6.772   4.413   2.152 -1.8167  0.9999 -2.3576
 3633TIP3    H232391   6.775   4.534   2.243 -0.5295 -0.7910  0.1009
 3634TIP3   OH232392   5.084   5.687  15.243  0.2392 -0.8605  0.1163
 3634TIP3    H132393   5.126   5.759  15.198  1.8787 -0.7563  1.6968
 3634TIP3    H232394   4.990   5.704  15.233  0.5805  0.8479 -0.5343
 3635TIP3   OH232395   0.226   0.382  14.513  0.1028 -0.6612  0.2873
 3635TIP3    H132396   0.247   0.444  14.443  0.6289 -2.2428 -1.0050
 3635TIP3    H232397   0.299   0.389  14.574  1.2844 -1.5413 -0.9713
 3636TIP3   OH232398   3.965   0.329   3.831  0.3420 -0.5733  0.1781
 3636TIP3    H132399   3.888   0.344   3.886  0.0303 -0.6413 -0.2293
 3636TIP3    H232400   3.936   0.263   3.768  0.6739 -0.4474 -0.1078
 3637TIP3   OH232401   3.521   1.574  13.893  0.0935 -0.6951  0.3815
 3637TIP3    H132402   3.577   1.562  13.817  1.7360 -1.1277  1.5976
 3637TIP3    H232403   3.448   1.514  13.878 -1.1351  1.2768 -2.1377
 3638TIP3   OH232404   1.883   0.937  16.269  0.0418  0.2171 -0.7127
 3638TIP3    H132405   1.966   0.923  16.315 -0.0577  0.0782 -0.5765
 3638TIP3    H232406   1.868   1.031  16.275  0.2745  0.2671 -0.8823
 3639TIP3   OH232407   6.082   4.063   1.880 -0.5712 -0.5498 -0.2791
 3639TIP3    H132408   6.060   4.021   1.963 -1.2019  1.1471  0.4608
 3639TIP3    H232409   6.175   4.045   1.868 -0.1562  0.2065  1.4465
 3640TIP3   OH232410   6.139   0.297  12.491 -0.4288  0.5436  0.2890
 3640TIP3    H132411   6.211   0.328  12.546 -0.6116  1.2678  0.1179
 3640TIP3    H232412   6.143   0.351  12.413  0.0038 -0.6562 -0.5617
 3641TIP3   OH232413   3.499   1.827  13.610  0.0616 -0.8048 -0.0926
 3641TIP3    H132414   3.406   1.813  13.628 -0.4233  0.2211 -1.5790
 3641TIP3    H232415   3.507   1.923  13.605  1.2363 -0.8811  0.1498
 3642TIP3   OH232416   3.654   4.230   5.808 -0.1795  0.2988  0.3290
 3642TIP3    H132417   3.567   4.205   5.839 -0.3588 -0.8656 -0.9991
 3642TIP3    H232418   3.701   4.147   5.801  0.6498  0.7939 -0.0956
 3643TIP3   OH232419   1.845   5.334  17.101  0.4067 -0.5929  0.7033
 3643TIP3    H132420   1.775   5.377  17.149  0.1237  0.0600 -0.2595
 3643TIP3    H232421   1.851   5.247  17.140 -0.9256 -0.6516  0.8186
 3644TIP3   OH232422   3.768   4.143   5.531  0.4696  0.0651 -0.2492
 3644TIP3    H132423   3.742   4.076   5.594  1.1801  0.0666  0.0607
 3644TIP3    H232424   3.754   4.226   5.577 -0.8618  0.1675 -0.8009
 3645TIP3   OH232425   2.396   0.989  10.662 -0.3810 -0.1479  0.3692
 3645TIP3    H132426   2.389   0.896  10.684  1.3538 -0.1841  0.9307
 3645TIP3    H232427   2.330   1.031  10.717 -0.5296 -0.9531  0.8249
 3646TIP3   OH232428   2.220   3.342  13.344 -0.1267  0.4778  0.3846
 3646TIP3    H132429   2.153   3.406  13.367 -0.7879  0.0329 -0.2441
 3646TIP3    H232430   2.274   3.334  13.422 -1.4121  0.1097  1.2660
 3647TIP3   OH232431   6.564   5.594   3.250  0.2076 -0.6374 -0.5882
 3647TIP3    H132432   6.494   5.658   3.237  0.6910  0.0603  0.1691
 3647TIP3    H232433   6.631   5.619   3.186  1.4110  1.1182  1.2213
 3648TIP3   OH232434   0.441   1.155  15.662 -0.1118 -0.1540 -0.4881
 3648TIP3    H132435   0.443   1.174  15.568  0.2039  1.4094 -0.1854
 3648TIP3    H232436   0.348   1.148  15.682 -0.3029  1.8842 -0.4950
 3649TIP3   OH232437   1.167   1.671  15.975  0.6356  0.5622  0.7098
 3649TIP3    H132438   1.151   1.749  16.027 -1.8574  0.1788  0.6386
 3649TIP3    H232439   1.249   1.635  16.011 -0.7177  0.5133  4.1827
 3650TIP3   OH232440   5.141   3.734  12.221  0.6210 -0.7201  0.3233
 3650TIP3    H132441   5.155   3.675  12.295  2.6581 -0.0245  0.5520
 3650TIP3    H232442   5.079   3.798  12.254 -1.3573 -2.4460  0.1871
 3651TIP3   OH232443   6.646   4.148   4.613  0.5580 -0.0043 -0.3552
 3651TIP3    H132444   6.577   4.117   4.553 -1.0567 -0.4990  1.6551
 3651TIP3    H232445   6.636   4.094   4.691 -0.3420  3.4240  2.1377
 3652TIP3   OH232446   3.333   4.379   2.186 -0.1295  0.3994 -0.2194
 3652TIP3    H132447   3.301   4.307   2.240  1.0911  1.4439  1.9963
 3652TIP3    H232448   3.255   4.429   2.163 -0.8919 -1.1042 -1.1107
 3653TIP3   OH232449   4.068   0.396  14.859  0.0216 -0.3004 -0.2641
 3653TIP3    H132450   4.140   0.420  14.801  0.7532 -2.1060 -0.1695
 3653TIP3    H232451   4.024   0.324  14.814 -2.2451  1.2625 -0.6858
 3654TIP3   OH232452   3.970   1.144  11.820 -0.1225 -0.7105 -0.6169
 3654TIP3    H132453   4.002   1.088  11.891 -0.6100  0.6394  0.7175
 3654TIP3    H232454   4.048   1.187  11.786  0.3744 -2.6968 -2.1830
 3655TIP3   OH232455   1.370   5.892   6.551  0.3962 -0.2401  0.1030
 3655TIP3    H132456   1.399   5.883   6.460  0.4421  0.2368  0.0639
 3655TIP3    H232457   1.311   5.818   6.566 -0.8517  0.5304 -0.8016
 3656TIP3   OH232458   0.380   3.905  11.138  0.3677 -0.0354  0.5830
 3656TIP3    H132459   0.473   3.928  11.132  0.1945  0.6235  0.3401
 3656TIP3    H232460   0.344   3.966  11.202  0.4710 -1.5259  2.1294
 3657TIP3   OH232461   4.797   1.467   4.753 -0.8028  0.0346 -0.1000
 3657TIP3    H132462   4.758   1.382   4.773 -0.0594  0.0601  1.6649
 3657TIP3    H232463   4.733   1.531   4.784 -1.3584  0.1528 -1.4185
 3658TIP3   OH232464   0.796   1.972  17.187  0.2184 -0.2351 -0.2326
 3658TIP3    H132465   0.848   1.941  17.112 -2.2464 -2.5433 -1.1664
 3658TIP3    H232466   0.829   1.921  17.261  1.6639  0.9721 -0.0072
 3659TIP3   OH232467   1.341   1.957  13.249  0.3362  0.0988  0.1169
 3659TIP3    H132468   1.397   2.021  13.205  1.4064 -1.0406 -0.2443
 3659TIP3    H232469   1.348   1.879  13.194 -2.0919  0.0805 -0.2723
 3660TIP3   OH232470   6.497   0.969  11.701  0.2508  0.1845  0.2818
 3660TIP3    H132471   6.423   0.909  11.691 -0.7550  1.2770  0.7890
 3660TIP3    H232472   6.482   1.036  11.633  0.4283  0.7292  0.7708
 3661TIP3   OH232473   6.643   6.270   6.674  0.1851  0.0650 -0.1795
 3661TIP3    H132474   6.560   6.275   6.627  0.8132  0.1488 -1.3202
 3661TIP3    H232475   6.632   6.199   6.737 -1.3687  1.2484  0.9843
 3662TIP3   OH232476   5.461   6.582   0.070  0.0150  0.4644  0.3286
 3662TIP3    H132477   5.491   6.498   0.105 -1.2213 -0.9162 -1.7452
 3662TIP3    H232478   5.389   6.608   0.128  1.0533  0.6621  1.5846
 3663TIP3   OH232479   1.076   6.626  11.476 -0.3881 -0.0071 -0.2612
 3663TIP3    H132480   1.087   6.661  11.387 -1.3735 -0.1452 -0.4460
 3663TIP3    H232481   1.140   6.675  11.528  0.3799 -0.1023 -1.0843
 3664TIP3   OH232482   5.959   5.828  13.573  0.6103  0.0544  0.2988
 3664TIP3    H132483   5.960   5.737  13.545  1.7222 -0.1474  0.9415
 3664TIP3    H232484   6.043   5.841  13.617  0.7655  1.5863 -0.3975
 3665TIP3   OH232485   3.660   1.555   4.011 -0.2252 -0.2302  0.2625
 3665TIP3    H132486   3.650   1.557   4.106 -1.2240 -0.7892  0.1761
 3665TIP3    H232487   3.751   1.528   3.997  0.5189  1.6744  1.0497
 3666TIP3   OH232488   6.510   5.388   3.076  0.8838  0.3912  0.5048
 3666TIP3    H132489   6.525   5.464   3.132  2.3451  0.2720  0.3335
 3666TIP3    H232490   6.598   5.358   3.054  0.3311 -0.1263 -1.1057
 3667TIP3   OH232491   5.576   3.211   4.934 -0.2337 -0.3343 -0.6376
 3667TIP3    H132492   5.593   3.127   4.976 -0.4135  0.4971  1.2133
 3667TIP3    H232493   5.490   3.202   4.895 -0.3101 -0.9796 -0.3264
 3668TIP3   OH232494   4.424   3.844   3.088 -0.0622 -0.9854 -0.5073
 3668TIP3    H132495   4.433   3.797   3.170 -0.9837 -1.2805 -0.5544
 3668TIP3    H232496   4.370   3.786   3.033 -1.3898  0.1763 -0.4932
 3669TIP3   OH232497   1.993   6.385   1.224 -0.0231  0.6826  0.1704
 3669TIP3    H132498   1.905   6.350   1.237  1.7291 -4.4668  0.5054
 3669TIP3    H232499   2.024   6.404   1.312 -0.0529  0.2928  0.2667
 3670TIP3   OH232500   5.458   1.117  14.246  0.0750  0.3589  0.5094
 3670TIP3    H132501   5.519   1.125  14.320  1.7796 -0.7064 -0.6843
 3670TIP3    H232502   5.501   1.055  14.188 -1.1839  1.2071 -1.4054
 3671TIP3   OH232503   1.842   3.086   1.695 -0.0856 -0.3423  0.1793
 3671TIP3    H132504   1.840   3.102   1.600 -1.5509 -1.6445 -0.0483
 3671TIP3    H232505   1.768   3.136   1.729 -0.2859 -0.8273  0.4640
 3672TIP3   OH232506   1.755   3.216   2.657 -0.0330 -0.3389  0.1669
 3672TIP3    H132507   1.772   3.284   2.723 -0.1734 -0.2985  0.1605
 3672TIP3    H232508   1.677   3.171   2.688  0.8358 -1.4060  0.9002
 3673TIP3   OH232509   0.411   4.414  15.578  0.2601  0.4816 -0.1985
 3673TIP3    H132510   0.487   4.393  15.633 -0.4040 -1.2675  0.1175
 3673TIP3    H232511   0.364   4.331  15.569 -2.4004  1.7688  0.7980
 3674TIP3   OH232512   6.168   6.044  12.095  0.1006 -0.2354 -0.0735
 3674TIP3    H132513   6.129   6.088  12.020  0.2146  0.8414  0.4718
 3674TIP3    H232514   6.250   6.007  12.062  1.0318  1.7322 -0.1219
 3675TIP3   OH232515   5.766   2.239   0.074  0.3327  0.0052 -0.6658
 3675TIP3    H132516   5.705   2.165   0.069 -0.7122  0.8785 -1.2139
 3675TIP3    H232517   5.823   2.227  -0.002 -0.8848  0.6380 -1.7180
 3676TIP3   OH232518   1.668   4.268  15.093 -0.0952  0.4026  0.2218
 3676TIP3    H132519   1.748   4.218  15.079 -0.1098  0.6867 -1.0050
 3676TIP3    H232520   1.637   4.241  15.179  1.8108  0.9626  1.1369
 3677TIP3   OH232521   1.160   2.013   1.492  0.4578 -0.2646  0.6970
 3677TIP3    H132522   1.174   1.975   1.405  0.1416  2.2021 -0.5307
 3677TIP3    H232523   1.070   2.045   1.489 -0.0815 -1.4757  2.5294
 3678TIP3   OH232524   0.643   4.218  15.863 -0.1628 -0.5438 -0.2047
 3678TIP3    H132525   0.634   4.309  15.834 -0.3827 -0.3250  0.5135
 3678TIP3    H232526   0.633   4.223  15.958  0.6320 -1.2187 -0.0803
 3679TIP3   OH232527   3.204   6.461  14.874 -0.1140  0.0615 -0.4015
 3679TIP3    H132528   3.200   6.554  14.896 -0.0654  0.4194 -1.8164
 3679TIP3    H232529   3.243   6.420  14.952 -2.2943  0.8512  1.1997
 3680TIP3   OH232530   5.305   3.529  16.904 -0.3044 -0.4804  0.7349
 3680TIP3    H132531   5.299   3.598  16.970 -0.0799 -1.6122  1.9667
 3680TIP3    H232532   5.394   3.496  16.912  0.3859  0.6319 -1.4807
 3681TIP3   OH232533   5.235   2.212  15.542  0.3479 -0.1538 -0.0057
 3681TIP3    H132534   5.192   2.294  15.565  1.0867  0.4067 -0.5707
 3681TIP3    H232535   5.259   2.173  15.627 -1.5849 -0.6946  0.3406
 3682TIP3   OH232536   4.508   1.452  10.992  0.4668  0.3584  0.1877
 3682TIP3    H132537   4.538   1.446  11.083 -0.9883 -0.4273  0.6413
 3682TIP3    H232538   4.423   1.495  10.998  0.7258  1.0544 -0.9035
 3683TIP3   OH232539   4.358   3.593   1.172  0.0549 -0.3735 -0.2066
 3683TIP3    H132540   4.398   3.671   1.210  0.2306  0.1167 -1.3626
 3683TIP3    H232541   4.266   3.597   1.199 -0.1667  0.7835 -1.1027
 3684TIP3   OH232542   3.526   2.398   4.606 -0.4393  0.0762  0.1155
 3684TIP3    H132543   3.438   2.409   4.571 -0.2233  0.4896 -0.3026
 3684TIP3    H232544   3.565   2.485   4.602  0.5943 -0.4100 -1.3330
 3685TIP3   OH232545   1.859   0.923   3.048  0.0928  0.5877 -0.0552
 3685TIP3    H132546   1.789   0.872   3.007 -0.7975 -0.1055  2.1529
 3685TIP3    H232547   1.816   0.970   3.120  1.4878  1.9819 -0.0795
 3686TIP3   OH232548   5.127   3.277  16.293  0.3572  0.7925 -0.0453
 3686TIP3    H132549   5.196   3.215  16.268  0.4697  0.7479  0.3758
 3686TIP3    H232550   5.051   3.250  16.242  0.4180  0.3381  0.1048
 3687TIP3   OH232551   1.862   1.061   5.321 -0.0331 -0.3180 -0.1122
 3687TIP3    H132552   1.817   1.039   5.240 -1.7150  2.0919  0.0383
 3687TIP3    H232553   1.946   1.097   5.293 -1.0047  1.4403 -0.9273
 3688TIP3   OH232554   3.924   6.218   6.348  0.0375  0.2355 -0.0154
 3688TIP3    H132555   3.997   6.197   6.406  0.1832  0.5264 -0.0937
 3688TIP3    H232556   3.939   6.309   6.322 -0.5152  0.3987  0.2108
 3689TIP3   OH232557   2.536   5.752   1.891 -0.4370 -0.3122  0.4364
 3689TIP3    H132558   2.454   5.793   1.865 -0.3150  0.9494  1.8869
 3689TIP3    H232559   2.510   5.687   1.957 -0.5022 -1.8197 -0.9999
 3690TIP3   OH232560   2.532   3.866  15.175  0.0655 -0.1107  0.2491
 3690TIP3    H132561   2.548   3.921  15.252  0.5018 -0.3989  0.3672
 3690TIP3    H232562   2.518   3.928  15.103  3.6086  0.2436 -0.2978
 3691TIP3   OH232563   5.431   2.838  11.008  0.7857 -0.5280 -0.0532
 3691TIP3    H132564   5.439   2.803  10.919 -0.0632 -0.3579 -0.2092
 3691TIP3    H232565   5.350   2.890  11.005  1.0289 -0.1010  0.6802
 3692TIP3   OH232566   1.501   1.901   0.605 -0.2194  0.7684 -0.5123
 3692TIP3    H132567   1.469   1.824   0.556 -0.7569 -0.7313  1.9943
 3692TIP3    H232568   1.430   1.965   0.597  0.5122  1.3633 -3.1950
 3693TIP3   OH232569   4.960   0.734  13.187 -0.1034 -0.6718  0.2282
 3693TIP3    H132570   4.938   0.817  13.144  0.8710  0.2931  1.5510
 3693TIP3    H232571   4.887   0.718  13.246 -0.2512 -0.7290  0.0331
 3694TIP3   OH232572   5.986   3.253  16.587  0.5045 -0.2231  0.0275
 3694TIP3    H132573   6.019   3.327  16.639 -0.6684 -0.3278  0.9627
 3694TIP3    H232574   6.053   3.240  16.520  1.5837  0.5716  0.8946
 3695TIP3   OH232575   2.485   2.384  15.009 -0.2958 -0.4929  0.0247
 3695TIP3    H132576   2.526   2.464  14.976 -0.6257 -0.6707 -0.8636
 3695TIP3    H232577   2.557   2.333  15.045 -0.1295  0.3373  0.9027
 3696TIP3   OH232578   2.210   2.561  16.670  0.1201 -0.0709  0.3000
 3696TIP3    H132579   2.196   2.479  16.717 -3.1151 -0.0273 -0.3966
 3696TIP3    H232580   2.214   2.627  16.739 -2.5607 -0.2508  0.7443
 3697TIP3   OH232581   3.411   6.508  13.782  0.1368 -0.4796 -0.2682
 3697TIP3    H132582   3.415   6.601  13.807 -1.2641 -0.0022 -1.6827
 3697TIP3    H232583   3.378   6.464  13.860 -0.5147  0.4175 -0.0127
 3698TIP3   OH232584   0.957   4.366   3.026  0.5437  0.2361  0.2658
 3698TIP3    H132585   1.034   4.413   2.995  1.1693 -0.6770  0.4136
 3698TIP3    H232586   0.926   4.418   3.101 -0.4077  1.9160 -1.1923
 3699TIP3   OH232587   1.159   0.339  11.036 -0.6568  0.0791  0.2188
 3699TIP3    H132588   1.151   0.341  11.132 -1.9495 -0.2037  0.1364
 3699TIP3    H232589   1.206   0.257  11.018 -0.9584 -0.1798  0.5882
 3700TIP3   OH232590   0.941   3.592   0.158 -0.5826  0.2828 -0.3195
 3700TIP3    H132591   0.980   3.508   0.134  0.6822  1.0101 -0.9308
 3700TIP3    H232592   0.888   3.573   0.235  1.3275 -0.7244  0.8380
 3701TIP3   OH232593   6.461   5.751  14.149 -0.2603  0.3644  0.4409
 3701TIP3    H132594   6.464   5.662  14.184 -1.1573  0.2009  0.1166
 3701TIP3    H232595   6.467   5.807  14.227  0.9949  0.0447  0.5992
 3702TIP3   OH232596   5.743   4.775  12.044 -0.1863 -0.1915 -0.0403
 3702TIP3    H132597   5.700   4.726  11.973 -1.0863  1.1319 -0.4397
 3702TIP3    H232598   5.674   4.830  12.081  0.7733  0.7050  0.4642
 3703TIP3   OH232599   5.246   4.761   3.777 -0.5824  0.1972  0.2100
 3703TIP3    H132600   5.327   4.710   3.771 -1.3360 -1.1556  1.1502
 3703TIP3    H232601   5.230   4.791   3.688  0.5544 -0.1230 -0.1230
 3704TIP3   OH232602   2.212   2.837   0.975  0.2058  0.3617  0.5372
 3704TIP3    H132603   2.236   2.758   1.025  0.9112 -0.1675 -0.5842
 3704TIP3    H232604   2.293   2.888   0.973 -0.1341  0.9250  0.8867
 3705TIP3   OH232605   4.200   3.320   2.544  1.0019 -0.4292 -0.3499
 3705TIP3    H132606   4.290   3.351   2.530  1.2337 -0.8692  0.1322
 3705TIP3    H232607   4.207   3.225   2.544  0.9434 -0.4954  2.0676
 3706TIP3   OH232608   2.823   2.025   6.104  0.1724 -0.0535 -0.1795
 3706TIP3    H132609   2.787   1.946   6.065  0.8163 -0.9574  0.9856
 3706TIP3    H232610   2.856   1.997   6.189  1.3638  1.2431 -0.1692
 3707TIP3   OH232611   2.485   2.234   2.791  0.3955  0.1778 -0.0500
 3707TIP3    H132612   2.499   2.329   2.797  0.2917  0.2633 -0.9311
 3707TIP3    H232613   2.441   2.222   2.706 -0.2612 -0.5851  0.3852
 3708TIP3   OH232614   1.269   1.770  13.950 -0.0701  0.1685  0.8306
 3708TIP3    H132615   1.300   1.719  13.874 -0.8582 -0.7520  1.1074
 3708TIP3    H232616   1.346   1.820  13.977  0.5844 -0.4523  0.1970
 3709TIP3   OH232617   4.685   2.088  15.258  0.0076 -0.2630  0.2185
 3709TIP3    H132618   4.653   1.998  15.261 -0.7252 -0.0622 -0.9326
 3709TIP3    H232619   4.749   2.088  15.187 -0.1440  0.1611  0.0771
 3710TIP3   OH232620   4.820   4.052   5.347  0.4496  0.1086 -0.3612
 3710TIP3    H132621   4.900   4.052   5.400  1.1170  1.9308 -1.2464
 3710TIP3    H232622   4.755   4.095   5.402  0.4607 -0.1678 -0.1312
 3711TIP3   OH232623   5.302   5.425  10.974  0.0872  0.5942 -0.2466
 3711TIP3    H132624   5.244   5.355  10.944  0.0451 -0.0771  1.2956
 3711TIP3    H232625   5.244   5.501  10.986  0.0665  0.8049 -1.5402
 3712TIP3   OH232626   0.204   3.930  13.238  0.2724  0.2149 -0.8272
 3712TIP3    H132627   0.117   3.902  13.210 -0.4787  1.0574  0.5527
 3712TIP3    H232628   0.244   3.851  13.275 -0.5296  0.1845 -0.0016
 3713TIP3   OH232629   4.523   5.390  13.938  0.1493  0.4186 -0.4170
 3713TIP3    H132630   4.576   5.311  13.938 -0.0538  0.2478  0.9612
 3713TIP3    H232631   4.559   5.444  13.868  0.6214 -0.6727 -1.0261
 3714TIP3   OH232632   1.374   5.377   0.266 -0.3075  0.3014  0.1750
 3714TIP3    H132633   1.280   5.378   0.249 -0.3156  1.7297  0.1896
 3714TIP3    H232634   1.390   5.293   0.309 -1.8063  0.6142  1.4144
 3715TIP3   OH232635   2.425   1.760   0.920 -0.8853 -0.2086 -0.0682
 3715TIP3    H132636   2.499   1.817   0.898 -0.7267  0.2304  1.4708
 3715TIP3    H232637   2.353   1.821   0.937 -0.8259 -0.4517  1.1770
 3716TIP3   OH232638   4.281   5.673  12.054 -0.0512 -0.2759 -0.5373
 3716TIP3    H132639   4.322   5.619  11.986  0.7459 -0.4805  0.0806
 3716TIP3    H232640   4.305   5.629  12.136  1.5120  1.5720  0.0517
 3717TIP3   OH232641   4.284   1.825   0.339 -0.6137 -0.1474  0.2822
 3717TIP3    H132642   4.356   1.852   0.397 -0.7854  0.9426  0.0126
 3717TIP3    H232643   4.327   1.777   0.268 -0.1302  0.6130  0.0517
 3718TIP3   OH232644   3.693   3.530  16.961 -0.2753 -0.2695  0.2639
 3718TIP3    H132645   3.612   3.545  16.912 -0.1657  0.0100  0.1673
 3718TIP3    H232646   3.693   3.436  16.978 -0.0614 -0.4560 -0.7103
 3719TIP3   OH232647   0.599   4.802  11.901  0.2926  0.0277  0.3080
 3719TIP3    H132648   0.662   4.836  11.838 -0.7217  0.0363 -0.7304
 3719TIP3    H232649   0.535   4.872  11.913 -0.8467 -0.8252 -0.5227
 3720TIP3   OH232650   6.621   3.754   5.422 -0.0500 -0.6372 -0.3873
 3720TIP3    H132651   6.530   3.763   5.451 -0.5237 -2.0499 -1.3041
 3720TIP3    H232652   6.673   3.800   5.488 -1.4528  0.5405 -0.0668
 3721TIP3   OH232653   0.818   1.119   2.392  1.0378  0.3723 -0.1148
 3721TIP3    H132654   0.824   1.024   2.384  1.4096  0.3703  0.2039
 3721TIP3    H232655   0.874   1.153   2.322  1.0990  0.3579 -0.0725
 3722TIP3   OH232656   0.037   5.371   2.415 -0.0867  0.2169 -0.0904
 3722TIP3    H132657  -0.047   5.369   2.460 -0.3792  0.4976 -0.6115
 3722TIP3    H232658   0.096   5.414   2.477 -0.3830  0.2159  0.1938
 3723TIP3   OH232659   4.991   4.763  13.788  0.0996  0.5494  0.1797
 3723TIP3    H132660   5.067   4.709  13.810 -0.7362 -1.3031 -1.1938
 3723TIP3    H232661   4.916   4.713  13.821 -0.6139  1.7091  0.3640
 3724TIP3   OH232662   2.152   1.204   1.623 -0.2429 -0.4100 -0.1997
 3724TIP3    H132663   2.205   1.283   1.631 -0.3895 -0.3354  0.0210
 3724TIP3    H232664   2.212   1.133   1.644  0.5184 -0.5606 -2.5187
 3725TIP3   OH232665   4.765   3.048  16.358  0.4137 -0.0930 -0.1536
 3725TIP3    H132666   4.767   3.143  16.353  1.1503  0.1022  2.4466
 3725TIP3    H232667   4.691   3.023  16.302  0.4905  1.9382 -1.2614
 3726TIP3   OH232668   5.898   5.851  15.647 -0.0110 -0.0988 -0.1676
 3726TIP3    H132669   5.913   5.841  15.741  1.9476  1.2018 -0.2728
 3726TIP3    H232670   5.835   5.922  15.640  0.6864  0.5717  0.1753
 3727TIP3   OH232671   6.122   5.511  15.024  0.0277  0.2688  0.4719
 3727TIP3    H132672   6.038   5.535  14.984  0.4831 -0.7448 -1.2112
 3727TIP3    H232673   6.174   5.479  14.950  1.1496 -1.1252  1.8197
 3728TIP3   OH232674   2.418   4.508   2.384  0.1498  0.4240  0.9455
 3728TIP3    H132675   2.401   4.433   2.441  0.7642  0.7560  1.5854
 3728TIP3    H232676   2.417   4.471   2.295  0.3356 -0.3204  1.2458
 3729TIP3   OH232677   4.648   0.034   5.744 -0.3446  0.7074  1.0234
 3729TIP3    H132678   4.706   0.100   5.706 -1.3239  0.8797 -0.2017
 3729TIP3    H232679   4.564   0.046   5.700  0.0023 -2.7761 -0.9526
 3730TIP3   OH232680   4.090   5.222   1.720 -0.7324  0.1256 -0.1211
 3730TIP3    H132681   4.024   5.258   1.778  0.1338 -0.6091  1.3742
 3730TIP3    H232682   4.129   5.298   1.677  0.2078  0.9502  2.0415
 3731TIP3   OH232683   2.635   2.609   1.665  0.0302  0.0319  0.4085
 3731TIP3    H132684   2.656   2.685   1.610  2.0447  0.8424  2.1611
 3731TIP3    H232685   2.699   2.542   1.639  1.1565  0.5003  1.8104
 3732TIP3   OH232686   0.527   2.583   5.877 -0.6366 -0.2109  0.7895
 3732TIP3    H132687   0.522   2.651   5.945 -0.7668 -0.0979  0.6661
 3732TIP3    H232688   0.604   2.607   5.826 -1.3356  0.4867  0.0531
 3733TIP3   OH232689   5.238   0.190  11.222 -0.4587  0.1788  0.7733
 3733TIP3    H132690   5.210   0.166  11.133  0.2696 -2.1343  1.1302
 3733TIP3    H232691   5.311   0.251  11.208 -2.0347  2.0014 -0.1468
 3734TIP3   OH232692   5.588   2.022   3.878  0.2582  0.1875  0.2415
 3734TIP3    H132693   5.601   1.983   3.791 -0.1101  0.7831 -0.0890
 3734TIP3    H232694   5.671   2.067   3.896  0.4240 -0.1412  0.3093
 3735TIP3   OH232695   4.999   1.826   2.480  0.3029 -0.3682 -0.4735
 3735TIP3    H132696   5.038   1.759   2.424  0.2162 -1.1439  0.3691
 3735TIP3    H232697   4.962   1.777   2.554  0.6740  0.6466  0.4057
 3736TIP3   OH232698   5.919   4.003   5.336 -0.2349  0.5969 -0.2205
 3736TIP3    H132699   5.887   4.072   5.394  1.5906  2.0750 -0.8746
 3736TIP3    H232700   5.842   3.977   5.286 -1.5615  0.2064  1.8772
 3737TIP3   OH232701   1.589   6.499  13.433 -0.4597 -0.4073  0.5903
 3737TIP3    H132702   1.660   6.535  13.486  0.4056 -2.3047  0.7688
 3737TIP3    H232703   1.617   6.512  13.342 -0.5173  0.0609  0.6384
 3738TIP3   OH232704   1.958   4.478   5.642  0.1025 -0.0898  0.1148
 3738TIP3    H132705   1.967   4.427   5.561 -2.1523  0.8408 -0.8114
 3738TIP3    H232706   2.043   4.521   5.653  0.1977  0.5134 -2.3243
 3739TIP3   OH232707   2.390   1.416   2.709  0.0560 -0.0514 -0.3327
 3739TIP3    H132708   2.451   1.463   2.765  0.3837  0.6446 -1.2506
 3739TIP3    H232709   2.379   1.472   2.632 -0.2730 -1.0465 -1.0355
 3740TIP3   OH232710   6.274   1.461   2.049 -0.1818  0.0413 -0.1816
 3740TIP3    H132711   6.211   1.444   2.119  0.4730 -0.7613  0.2324
 3740TIP3    H232712   6.227   1.519   1.988 -0.7035  0.8687  0.9794
 3741TIP3   OH232713   1.620   4.627   4.277 -0.2101 -0.2075  0.5164
 3741TIP3    H132714   1.709   4.627   4.241 -0.8060  0.6512 -1.0700
 3741TIP3    H232715   1.631   4.601   4.369  1.4103 -2.3964 -0.2064
 3742TIP3   OH232716   5.224   6.154  16.335 -0.2959 -0.1254 -0.3568
 3742TIP3    H132717   5.298   6.198  16.376  1.4022 -2.3544 -0.8563
 3742TIP3    H232718   5.171   6.123  16.408 -0.5152  1.0462  0.0068
 3743TIP3   OH232719   0.049   2.498  13.379  0.2016 -0.7335 -0.0631
 3743TIP3    H132720   0.043   2.432  13.310  0.6906 -1.8420  0.9050
 3743TIP3    H232721   0.130   2.546  13.360 -0.6862  0.3033 -1.3547
 3744TIP3   OH232722   4.574   1.735   3.010 -0.0848 -0.5152 -0.2284
 3744TIP3    H132723   4.547   1.827   3.009 -0.3322 -0.5915 -0.9991
 3744TIP3    H232724   4.533   1.697   2.932 -0.3506 -1.3835  0.3164
 3745TIP3   OH232725   3.405   4.394  14.616  0.0218  0.2670 -0.0008
 3745TIP3    H132726   3.415   4.473  14.563  0.5229 -0.0170 -0.3349
 3745TIP3    H232727   3.443   4.324  14.562 -1.2265 -0.3674 -0.1084
 3746TIP3   OH232728   5.624   4.577  10.428 -0.4856 -0.3904 -0.5238
 3746TIP3    H132729   5.540   4.599  10.387  0.4152  0.7557 -1.8901
 3746TIP3    H232730   5.605   4.572  10.521 -1.6115  2.5723 -0.4756
 3747TIP3   OH232731   6.511   3.966  17.128  0.4471 -0.3005 -0.1370
 3747TIP3    H132732   6.481   3.892  17.075  0.9106  0.6210 -1.7608
 3747TIP3    H232733   6.606   3.967  17.117  0.7230 -0.8866  1.8509
 3748TIP3   OH232734   4.310   3.887  14.718 -0.3711 -0.1197 -0.0477
 3748TIP3    H132735   4.229   3.918  14.758  1.2165  0.7763  2.7620
 3748TIP3    H232736   4.346   3.825  14.782  0.8414 -1.0270 -1.5451
 3749TIP3   OH232737   5.465   1.121  15.748 -0.2059  0.0245  0.5857
 3749TIP3    H132738   5.463   1.141  15.655  1.0990  1.4761  0.8169
 3749TIP3    H232739   5.483   1.027  15.752 -0.8951 -0.1736 -0.6142
 3750TIP3   OH232740   0.302   3.677  15.152 -0.7428  0.2502 -0.3725
 3750TIP3    H132741   0.312   3.764  15.115  0.4388 -0.3023 -1.4030
 3750TIP3    H232742   0.344   3.683  15.239  0.4730  0.4011 -0.9445
 3751TIP3   OH232743   3.077   0.232   2.195  0.0051  0.0446  0.1114
 3751TIP3    H132744   3.061   0.157   2.138 -2.2412  0.9334 -0.5464
 3751TIP3    H232745   3.069   0.308   2.137 -1.4475  0.9306  1.4074
 3752TIP3   OH232746   5.392   2.963  11.957  0.6074  0.1984  0.0764
 3752TIP3    H132747   5.470   3.014  11.935 -0.0797  1.0966 -0.2885
 3752TIP3    H232748   5.346   3.016  12.021  0.0745 -0.1412 -0.0234
 3753TIP3   OH232749   0.417   6.684  12.715 -0.0272  0.1292 -0.8742
 3753TIP3    H132750   0.352   6.740  12.757 -0.9801 -0.7813 -1.0925
 3753TIP3    H232751   0.472   6.653  12.787  0.6108  1.4294 -0.7677
 3754TIP3   OH232752   4.080   4.902   3.706  0.2796  0.3523 -0.7083
 3754TIP3    H132753   4.047   4.992   3.712 -0.3627  0.1682 -1.4208
 3754TIP3    H232754   4.034   4.864   3.632 -0.9382 -1.1959  0.7430
 3755TIP3   OH232755   0.745   0.812  13.288  0.1454 -0.1139 -0.1961
 3755TIP3    H132756   0.730   0.891  13.341 -4.3335  0.3015 -1.6733
 3755TIP3    H232757   0.743   0.740  13.350  0.6198  0.6714  0.7599
 3756TIP3   OH232758   2.925   0.426   3.188  0.2936 -0.4086 -0.1807
 3756TIP3    H132759   2.925   0.417   3.093  1.1446  1.4999 -0.4050
 3756TIP3    H232760   2.941   0.519   3.204  2.6708 -1.0378  1.8434
 3757TIP3   OH232761   0.102   0.886  12.001 -0.6473 -0.4300  0.2570
 3757TIP3    H132762   0.152   0.808  12.022  0.5605  0.3099  0.2199
 3757TIP3    H232763   0.066   0.915  12.085  0.0358 -0.2729  0.4999
 3758TIP3   OH232764   0.185   4.292   3.941  0.1664  0.5110 -0.3110
 3758TIP3    H132765   0.100   4.336   3.939  0.6673  1.7711  2.0018
 3758TIP3    H232766   0.248   4.364   3.931  0.9883 -0.2978 -1.0761
 3759TIP3   OH232767   4.101   6.499  13.759  0.0251  0.2116  0.5166
 3759TIP3    H132768   4.171   6.472  13.698 -0.0053 -1.5788  1.2289
 3759TIP3    H232769   4.144   6.560  13.819  1.0331 -0.9109  0.9793
 3760TIP3   OH232770   3.683   5.480  13.518  0.2581  0.1606 -0.3600
 3760TIP3    H132771   3.588   5.491  13.526 -0.3865 -3.9389 -0.1905
 3760TIP3    H232772   3.717   5.506  13.604 -0.8765  0.4089  0.0333
 3761TIP3   OH232773   1.934   4.283  13.809  0.6239  0.1088 -0.5185
 3761TIP3    H132774   1.970   4.351  13.751  2.0613 -0.0137  0.1873
 3761TIP3    H232775   1.845   4.312  13.826  0.8427  1.2307 -1.1533
 3762TIP3   OH232776   2.166   0.376  11.716 -0.3789  0.1968 -0.7350
 3762TIP3    H132777   2.223   0.302  11.695 -0.2459  0.5906 -1.8544
 3762TIP3    H232778   2.110   0.385  11.639 -0.3726  1.2618 -0.6269
 3763TIP3   OH232779   4.121   4.124  16.483 -0.7015 -0.3816  0.1851
 3763TIP3    H132780   4.066   4.194  16.447  1.2592  0.4897 -1.2971
 3763TIP3    H232781   4.078   4.044  16.454 -1.8277  0.2373  0.0786
 3764TIP3   OH232782   0.927   4.750   0.271  0.4001 -0.5296 -0.1703
 3764TIP3    H132783   0.853   4.749   0.210  0.3599  1.9928 -0.2712
 3764TIP3    H232784   1.005   4.753   0.215  0.4375 -0.1628 -0.1048
 3765TIP3   OH232785   2.818   3.560  15.381  0.5779 -0.2193 -0.1098
 3765TIP3    H132786   2.880   3.610  15.329  0.0427 -0.5666 -1.1141
 3765TIP3    H232787   2.732   3.582  15.344  0.3520 -2.2314 -0.9454
 3766TIP3   OH232788   5.906   2.004  14.725  0.1893 -0.1872  0.1695
 3766TIP3    H132789   5.976   1.943  14.700 -1.0101 -0.7287 -2.1686
 3766TIP3    H232790   5.928   2.086  14.682  1.2684  0.8405  2.4989
 3767TIP3   OH232791   0.351   3.390   5.223  0.0216  0.0933 -0.0905
 3767TIP3    H132792   0.278   3.331   5.202  1.2337 -1.8065  0.7362
 3767TIP3    H232793   0.420   3.332   5.254  1.2879  1.9977  0.8425
 3768TIP3   OH232794   3.962   6.539   4.563  0.1707 -0.2672  0.3137
 3768TIP3    H132795   4.028   6.537   4.632  1.1732  2.4683 -0.4296
 3768TIP3    H232796   3.888   6.585   4.602  0.3588  0.4076 -0.1051
 3769TIP3   OH232797   4.493   5.461   1.566  0.0603 -0.1915  0.2495
 3769TIP3    H132798   4.515   5.392   1.502 -0.3900 -1.1531  1.1045
 3769TIP3    H232799   4.574   5.510   1.576  0.5953 -1.0185  0.1276
 3770TIP3   OH232800   5.640   6.491  11.143 -0.0040 -0.2511  0.3073
 3770TIP3    H132801   5.625   6.583  11.119 -0.1452 -0.5835 -0.9515
 3770TIP3    H232802   5.710   6.462  11.084 -2.4764 -1.9701 -2.0349
 3771TIP3   OH232803   4.403   4.182  11.316  0.1230 -0.2590 -0.6652
 3771TIP3    H132804   4.449   4.116  11.264 -0.2002 -0.1174 -1.1449
 3771TIP3    H232805   4.312   4.177  11.286 -0.2272 -0.6984  0.4304
 3772TIP3   OH232806   4.310   2.692   0.012  0.3049 -0.1797  0.0344
 3772TIP3    H132807   4.367   2.620   0.039  1.4835  1.1241  1.1293
 3772TIP3    H232808   4.327   2.702  -0.082  1.0590 -0.5152  0.1273
 3773TIP3   OH232809   0.167   1.484  14.681  0.3320 -0.1732 -0.0853
 3773TIP3    H132810   0.184   1.445  14.595 -1.2619 -1.0093 -0.0635
 3773TIP3    H232811   0.158   1.578  14.664  2.2029 -0.0227 -0.4578
 3774TIP3   OH232812   3.916   2.346   2.836 -0.1104  0.0132 -0.2665
 3774TIP3    H132813   3.852   2.415   2.821 -0.1638  0.6973  2.6277
 3774TIP3    H232814   3.962   2.372   2.916  0.1124 -3.0904  0.7527
 3775TIP3   OH232815   0.363   5.675   1.797 -0.0727  0.3078  0.5766
 3775TIP3    H132816   0.287   5.733   1.802 -0.2866  0.0887 -0.0689
 3775TIP3    H232817   0.329   5.590   1.826 -0.3322 -0.0308 -0.6917
 3776TIP3   OH232818   5.288   0.179   0.129  0.0539 -0.1296  0.2169
 3776TIP3    H132819   5.231   0.116   0.172  0.8587 -1.2954 -0.3580
 3776TIP3    H232820   5.336   0.220   0.200 -0.3948 -0.2661  0.5984
 3777TIP3   OH232821   2.691   5.826  12.045  0.2109  0.3923  0.0373
 3777TIP3    H132822   2.710   5.733  12.032  0.7522  0.2993  1.3528
 3777TIP3    H232823   2.738   5.870  11.974  0.5674 -0.2776 -0.1522
 3778TIP3   OH232824   4.918   3.566  16.024  0.4200 -0.2686 -0.1907
 3778TIP3    H132825   4.920   3.644  16.080 -0.8265  0.8628 -1.6231
 3778TIP3    H232826   4.885   3.598  15.940  2.2340 -1.8895 -1.6097
 3779TIP3   OH232827   0.809   4.377  14.197 -0.2171  0.3848 -0.0708
 3779TIP3    H132828   0.814   4.303  14.257  1.0654  1.2830  0.9794
 3779TIP3    H232829   0.725   4.419  14.218  0.1333  0.5797  0.9757
 3780TIP3   OH232830   6.407   3.900   6.728 -0.4088 -0.7181  0.3424
 3780TIP3    H132831   6.345   3.847   6.778 -2.3780 -0.1576 -1.3509
 3780TIP3    H232832   6.415   3.855   6.644 -0.9219  0.8106 -0.5620
 3781TIP3   OH232833   0.762   2.413   0.351 -0.0926  0.1856 -0.7197
 3781TIP3    H132834   0.831   2.459   0.302  1.8512 -0.5695  1.1574
 3781TIP3    H232835   0.807   2.338   0.390 -1.8117  0.1100  1.2551
 3782TIP3   OH232836   1.089   2.628   5.914 -0.4981 -0.4867 -0.2792
 3782TIP3    H132837   1.122   2.545   5.949  0.4952 -0.1825 -0.4798
 3782TIP3    H232838   0.998   2.632   5.945  0.0153 -0.7526  1.3523
 3783TIP3   OH232839   0.512   5.061  13.858 -0.0567 -0.1954 -0.3748
 3783TIP3    H132840   0.489   5.133  13.799  1.3939  1.5626  1.0957
 3783TIP3    H232841   0.495   5.096  13.945  0.9025 -1.5736  0.3806
 3784TIP3   OH232842   3.025   2.139   0.721  0.5252 -0.3205  0.0539
 3784TIP3    H132843   3.027   2.207   0.788  0.0154 -0.7153  0.4747
 3784TIP3    H232844   3.066   2.180   0.644 -0.5886  0.7779  0.0170
 3785TIP3   OH232845   3.551   0.488  17.038 -0.8638  0.5981  0.4464
 3785TIP3    H132846   3.535   0.561  16.978  0.3107  0.4155 -0.1038
 3785TIP3    H232847   3.464   0.451  17.054 -1.0126 -1.8175 -4.2677
 3786TIP3   OH232848   5.937   4.768   2.713  0.6959 -0.5702  0.4284
 3786TIP3    H132849   5.896   4.820   2.783 -0.9723 -0.6520 -0.4362
 3786TIP3    H232850   5.964   4.833   2.648  0.2427 -0.6360  0.1668
 3787TIP3   OH232851   5.519   3.984  13.921 -0.3775  0.6429  0.0176
 3787TIP3    H132852   5.482   3.997  13.834 -1.0320  0.0429  0.2023
 3787TIP3    H232853   5.561   3.898  13.917 -1.9383 -0.1995  0.7964
 3788TIP3   OH232854   4.457   5.573   0.521  0.3982  0.2332 -0.4133
 3788TIP3    H132855   4.385   5.622   0.483 -1.0608 -1.5336 -0.0566
 3788TIP3    H232856   4.483   5.511   0.453 -0.9715 -1.6673  0.6975
 3789TIP3   OH232857   4.738   2.819   1.562  0.9302  0.2312  0.4393
 3789TIP3    H132858   4.697   2.810   1.648  1.1630 -2.0285  0.3770
 3789TIP3    H232859   4.666   2.842   1.504  0.5102  0.4093  1.0166
 3790TIP3   OH232860   0.094   1.577  16.745  0.0972  0.0517  0.8468
 3790TIP3    H132861   0.138   1.661  16.759 -0.1182 -0.0481  2.2196
 3790TIP3    H232862   0.004   1.600  16.723  0.2964  0.1971  0.1582
 3791TIP3   OH232863   4.439   3.516  15.551 -0.0034  0.4418  0.4496
 3791TIP3    H132864   4.489   3.500  15.470 -1.1016 -2.0981  0.1888
 3791TIP3    H232865   4.473   3.452  15.613 -1.4704  0.0901  0.9190
 3792TIP3   OH232866   4.040   1.252  15.208  0.0677 -0.0147 -0.1093
 3792TIP3    H132867   4.050   1.310  15.283 -0.1464 -1.7889  1.3547
 3792TIP3    H232868   4.129   1.242  15.174  0.5247 -0.9285  1.2958
 3793TIP3   OH232869   4.274   6.487  17.084  0.5570  0.2657  0.0984
 3793TIP3    H132870   4.253   6.425  17.154 -0.6489  0.1606 -0.3361
 3793TIP3    H232871   4.351   6.449  17.042 -0.6938 -1.4786 -0.7512
 3794TIP3   OH232872   0.380   1.441  12.656  0.5079 -0.3797 -0.4033
 3794TIP3    H132873   0.447   1.486  12.707  0.5104 -0.1354 -0.6178
 3794TIP3    H232874   0.428   1.373  12.608  0.6417 -0.0572 -0.7310
 3795TIP3   OH232875   3.056   2.205   3.312  0.0028  0.1038  0.0362
 3795TIP3    H132876   3.042   2.249   3.228  1.6161  1.9892  0.6623
 3795TIP3    H232877   3.144   2.168   3.305 -0.1263 -0.3275  0.6416
 3796TIP3   OH232878   0.139   3.066  12.425  0.0060 -0.2237  0.5149
 3796TIP3    H132879   0.143   3.095  12.334  0.7105  1.8160  1.1271
 3796TIP3    H232880   0.128   2.972  12.420  0.0407 -0.1620 -1.6796
 3797TIP3   OH232881   2.037   3.016   5.503  0.0601 -0.3484 -0.1335
 3797TIP3    H132882   2.132   3.023   5.515 -0.0918 -1.1415  1.8059
 3797TIP3    H232883   2.003   3.100   5.532  0.1942  0.2335 -1.5766
 3798TIP3   OH232884   3.232   4.317  13.825  0.1839 -0.3644  0.4101
 3798TIP3    H132885   3.305   4.262  13.795  1.4299  1.5448 -0.2239
 3798TIP3    H232886   3.213   4.285  13.913  1.5735 -1.1280  0.4690
 3799TIP3   OH232887   3.821   2.892   5.560  0.3086  0.7951 -0.5056
 3799TIP3    H132888   3.841   2.922   5.471  0.7805  1.1871 -0.2750
 3799TIP3    H232889   3.764   2.816   5.547  0.5467  0.7123 -1.1511
 3800TIP3   OH232890   2.398   4.949   5.843 -0.3365  0.3365 -0.2908
 3800TIP3    H132891   2.451   4.892   5.899 -0.7594 -0.8593 -1.0563
 3800TIP3    H232892   2.337   4.992   5.903  0.7155  0.8379  0.4430
 3801TIP3   OH232893   0.020   2.760  13.259 -0.6516 -0.3281  0.7289
 3801TIP3    H132894  -0.027   2.838  13.290 -0.8178 -0.7964  1.7097
 3801TIP3    H232895  -0.015   2.688  13.313  0.0898 -0.9443  0.4100
 3802TIP3   OH232896   5.232   2.117   1.846 -0.7688  0.7127  0.3714
 3802TIP3    H132897   5.220   2.181   1.916  0.3798  1.1976  0.1471
 3802TIP3    H232898   5.282   2.046   1.887 -1.5926  0.1915  0.4840
 3803TIP3   OH232899   0.262   3.504   4.074 -0.4800 -0.0955  0.8221
 3803TIP3    H132900   0.280   3.527   4.166  1.8410  0.7761  0.2110
 3803TIP3    H232901   0.340   3.457   4.046 -1.0770 -0.1645 -0.7964
 3804TIP3   OH232902   6.107   1.324  17.182  0.2630  0.0850 -0.1143
 3804TIP3    H132903   6.170   1.392  17.163 -0.8767  0.8062 -1.5514
 3804TIP3    H232904   6.087   1.334  17.275  1.2046  0.7298  0.0268
 3805TIP3   OH232905   5.121   1.607   2.349  0.5991 -0.2664 -0.0148
 3805TIP3    H132906   5.127   1.608   2.254  1.5178  1.0808  0.0286
 3805TIP3    H232907   5.203   1.566   2.378  0.0222 -1.3096  0.2038
 3806TIP3   OH232908   6.326   3.323  13.037  0.4201 -0.9069 -0.4959
 3806TIP3    H132909   6.361   3.412  13.038  1.9135 -1.4661 -0.2398
 3806TIP3    H232910   6.239   3.330  13.078  1.6468 -0.0074  2.1706
 3807TIP3   OH232911   3.951   2.069   5.337  0.5335 -0.8707 -0.6150
 3807TIP3    H132912   3.990   2.010   5.272  3.3232 -1.7042  1.6054
 3807TIP3    H232913   4.007   2.147   5.336  3.1726 -2.4085  3.2151
 3808TIP3   OH232914   4.538   4.202  12.307 -0.0178 -0.0335 -0.3722
 3808TIP3    H132915   4.550   4.296  12.290 -0.3292 -0.5101 -3.9786
 3808TIP3    H232916   4.444   4.192  12.320 -0.1243  0.0305 -1.0672
 3809TIP3   OH232917   4.841   3.212   5.160 -0.1535  0.3798 -0.2118
 3809TIP3    H132918   4.754   3.245   5.140 -0.3299  0.3127  0.4167
 3809TIP3    H232919   4.855   3.140   5.099 -0.5041  0.4428 -0.3663
 3810TIP3   OH232920   1.004   5.083  13.819 -0.1697 -0.6555 -0.3982
 3810TIP3    H132921   0.991   5.007  13.762 -0.9038 -1.0576  0.2842
 3810TIP3    H232922   0.992   5.049  13.908  0.0883  0.1402 -0.0487
 3811TIP3   OH232923   5.635   2.604  16.586  0.4301 -0.5099  0.2706
 3811TIP3    H132924   5.671   2.683  16.626 -0.2172 -1.4048  2.8250
 3811TIP3    H232925   5.549   2.630  16.554  0.0970 -0.2262  1.3662
 3812TIP3   OH232926   5.827   1.106   3.578 -0.4158  0.1436 -0.1230
 3812TIP3    H132927   5.912   1.103   3.534  0.4634 -0.4079  1.5361
 3812TIP3    H232928   5.820   1.195   3.612  0.1263 -0.1816  0.8776
 3813TIP3   OH232929   0.743   1.241   0.679  0.2045 -0.1031 -0.5768
 3813TIP3    H132930   0.661   1.244   0.630 -0.0698 -0.8009 -0.1740
 3813TIP3    H232931   0.740   1.159   0.727  0.5502  0.4759  0.4751
 3814TIP3   OH232932   4.423   2.904   0.933 -0.5299  0.2739  0.3471
 3814TIP3    H132933   4.381   2.956   1.002 -1.6074  0.3582 -0.3470
 3814TIP3    H232934   4.393   2.815   0.949 -1.1167  0.3585 -0.2417
 3815TIP3   OH232935   6.244   5.133  16.973 -0.6262 -0.1599  0.7646
 3815TIP3    H132936   6.298   5.069  17.019 -0.9126  0.4641  2.0381
 3815TIP3    H232937   6.173   5.082  16.934 -0.1287 -0.7636  0.6364
 3816TIP3   OH232938   3.913   3.114  13.567  0.0617 -0.3470 -0.0827
 3816TIP3    H132939   3.841   3.168  13.601  0.2900 -1.8475  3.1094
 3816TIP3    H232940   3.976   3.177  13.532  0.1858  1.5708  3.2165
 3817TIP3   OH232941   1.514   5.632   1.434  0.3103 -0.7868  0.7082
 3817TIP3    H132942   1.528   5.567   1.503  0.7439 -1.8227 -0.3357
 3817TIP3    H232943   1.570   5.603   1.362  2.0868  1.7998  0.8799
 3818TIP3   OH232944   5.808   0.647  15.896  0.7580  0.4216  0.2466
 3818TIP3    H132945   5.742   0.715  15.887  0.0953 -0.3138 -0.6154
 3818TIP3    H232946   5.816   0.610  15.808  0.6367 -1.0359  0.8210
 3819TIP3   OH232947   1.390   3.260  11.946  0.3157  0.5552  0.3962
 3819TIP3    H132948   1.376   3.340  11.995 -0.1020  1.4314 -1.0771
 3819TIP3    H232949   1.448   3.285  11.874 -3.2282  0.7502 -2.7246
 3820TIP3   OH232950   0.262   4.687  12.063  0.2687  0.2802  0.0848
 3820TIP3    H132951   0.205   4.634  12.009  0.1674 -0.4251  0.8687
 3820TIP3    H232952   0.226   4.776  12.057 -0.6489 -0.0774  0.2221
 3821TIP3   OH232953   3.874   5.106   3.758 -0.5455 -0.7993 -0.2166
 3821TIP3    H132954   3.792   5.063   3.733 -0.8620 -0.0266 -0.5395
 3821TIP3    H232955   3.892   5.167   3.686 -0.9452  0.7418  0.9532
 3822TIP3   OH232956   5.150   0.067  12.591 -0.1967 -0.2830 -0.1666
 3822TIP3    H132957   5.058   0.047  12.611 -0.6205 -0.6056 -2.2862
 3822TIP3    H232958   5.199  -0.006  12.630 -0.9373 -0.6641  0.0682
 3823TIP3   OH232959   1.781   2.771  15.777 -0.6519  0.1709  0.1126
 3823TIP3    H132960   1.777   2.799  15.868 -2.1286  0.6021 -0.0551
 3823TIP3    H232961   1.861   2.719  15.771 -1.0902 -0.7773  1.9115
 3824TIP3   OH232962   1.516   2.951   3.458 -0.0157  0.9271  0.1107
 3824TIP3    H132963   1.470   2.941   3.541 -0.4496 -1.0704 -0.3106
 3824TIP3    H232964   1.446   2.947   3.392  0.5678 -0.3469 -0.4571
 3825TIP3   OH232965   5.919   3.061   0.641  0.4227  0.3969  0.2803
 3825TIP3    H132966   6.005   3.094   0.616 -0.2392  2.6146  0.6926
 3825TIP3    H232967   5.937   2.993   0.706  1.8883 -0.4050 -0.9203
 3826TIP3   OH232968   3.790   0.390  14.603  0.0492  0.5780 -0.1349
 3826TIP3    H132969   3.763   0.478  14.630 -0.7491 -0.3962  2.5405
 3826TIP3    H232970   3.708   0.348  14.577  0.0346 -0.1298  1.0110
 3827TIP3   OH232971   5.210   1.704   0.045 -0.1244  0.1646 -0.3349
 3827TIP3    H132972   5.305   1.705   0.033  0.0409  1.9345  0.6861
 3827TIP3    H232973   5.179   1.778  -0.007 -0.6646  0.9852  1.1229
 3828TIP3   OH232974   6.706   5.162   5.329 -0.7026  0.0990 -0.1804
 3828TIP3    H132975   6.698   5.257   5.341  1.7878  0.3884 -0.2685
 3828TIP3    H232976   6.619   5.134   5.301 -1.9912  2.0651  1.5447
 3829TIP3   OH232977   2.932   1.271   4.041  0.1231  0.0055  0.2033
 3829TIP3    H132978   2.993   1.341   4.018 -0.7142  0.8490  0.5058
 3829TIP3    H232979   2.981   1.215   4.101  1.3948 -0.6747 -1.4009
 3830TIP3   OH232980   2.537   3.949   6.349 -0.6184  0.3592 -0.0849
 3830TIP3    H132981   2.529   3.941   6.253 -1.5115 -0.5453  0.0464
 3830TIP3    H232982   2.613   4.005   6.362 -1.5334  2.0310 -1.3780
 3831TIP3   OH232983   0.162   4.887   6.529 -0.1456 -0.4501 -0.1876
 3831TIP3    H132984   0.251   4.917   6.513 -0.4727  0.6029 -0.1191
 3831TIP3    H232985   0.163   4.854   6.619  0.1238 -0.2013 -0.0972
 3832TIP3   OH232986   5.605   6.150   2.254 -0.2090  0.2437 -0.7547
 3832TIP3    H132987   5.687   6.187   2.288 -0.5455 -0.8712  1.4334
 3832TIP3    H232988   5.625   6.127   2.164  1.8586  0.1147 -0.3097
 3833TIP3   OH232989   4.075   1.878  17.126  0.0584  0.0755  0.0988
 3833TIP3    H132990   4.079   1.916  17.039 -1.0620 -1.1052 -0.4965
 3833TIP3    H232991   3.982   1.862  17.142  0.3468 -0.8707  0.9906
 3834TIP3   OH232992   3.671   5.927   4.837  0.1400 -0.5623  0.2040
 3834TIP3    H132993   3.693   5.843   4.879  0.3232 -0.6282 -0.0259
 3834TIP3    H232994   3.617   5.903   4.762  1.3875 -0.5801 -0.7069
 3835TIP3   OH232995   6.036   1.163   1.169  0.2077  0.2771  0.0551
 3835TIP3    H132996   6.028   1.242   1.222 -0.3124  2.2025 -2.6652
 3835TIP3    H232997   6.085   1.191   1.092 -0.5039 -1.9184 -1.3038
 3836TIP3   OH232998   3.556   5.419   5.549 -0.4096  0.1755 -0.0327
 3836TIP3    H132999   3.495   5.365   5.499 -0.1547  0.2997 -0.4943
 3836TIP3    H233000   3.590   5.361   5.618  0.8681 -0.6985 -1.3212
 3837TIP3   OH233001   1.315   3.947  16.282 -1.0040  0.9886  0.5522
 3837TIP3    H133002   1.357   3.957  16.197  0.5103  0.0312  1.1458
 3837TIP3    H233003   1.279   4.034  16.302  0.2041  1.7038 -0.2637
 3838TIP3   OH233004   0.667   2.095  15.674  0.0488 -0.1536  0.3402
 3838TIP3    H133005   0.727   2.167  15.656  0.3342 -0.7891 -1.4584
 3838TIP3    H233006   0.707   2.019  15.631 -0.4708 -1.3039  1.7973
 3839TIP3   OH233007   2.978   0.476  13.766  0.8656  0.1704  0.4025
 3839TIP3    H133008   3.025   0.399  13.798  0.4835 -0.8213 -1.2731
 3839TIP3    H233009   3.037   0.513  13.700  0.2268  0.1852 -0.1662
 3840TIP3   OH233010   5.881   4.772   4.129 -0.2407  0.2066 -0.1634
 3840TIP3    H133011   5.789   4.785   4.107 -0.3622  0.2123  0.3510
 3840TIP3    H233012   5.904   4.689   4.086 -0.6485 -0.1066  0.2145
 3841TIP3   OH233013   5.897   2.911  15.641  0.1115 -0.4861 -0.2486
 3841TIP3    H133014   5.923   2.890  15.552 -0.6575  0.5550 -0.7455
 3841TIP3    H233015   5.979   2.918  15.689  0.5902 -0.1519 -1.0920
 3842TIP3   OH233016   5.093   2.489  16.349 -0.2941 -0.7733 -0.1586
 3842TIP3    H133017   5.010   2.452  16.318 -0.4860 -0.5791  0.1227
 3842TIP3    H233018   5.160   2.429  16.316 -0.7439 -2.9703  2.6239
 3843TIP3   OH233019   2.214   2.664  12.459 -0.4236 -0.3670  0.2803
 3843TIP3    H133020   2.215   2.579  12.416  0.6399  1.2284 -3.1661
 3843TIP3    H233021   2.141   2.711  12.419 -0.0886  0.8499  1.0377
 3844TIP3   OH233022   1.089   0.146   1.793  0.1463  0.1679  0.3933
 3844TIP3    H133023   1.170   0.105   1.823  0.9966  0.8894 -0.8437
 3844TIP3    H233024   1.032   0.143   1.870  1.1433 -0.8225  1.1418
 3845TIP3   OH233025   5.721   2.216  12.969  0.1764 -0.2031  0.1946
 3845TIP3    H133026   5.681   2.171  12.895  1.1914 -1.2148  0.2356
 3845TIP3    H233027   5.791   2.269  12.930  0.7440 -0.7749  0.4232
 3846TIP3   OH233028   3.506   4.601  15.790  0.3528 -0.4305  0.9450
 3846TIP3    H133029   3.507   4.595  15.694 -1.1518 -1.7520  0.9557
 3846TIP3    H233030   3.528   4.513  15.819  3.0445  0.4967  1.9096
 3847TIP3   OH233031   0.604   1.595  16.560  0.3269  0.3704  0.3075
 3847TIP3    H133032   0.694   1.595  16.528  1.0722  1.0679  2.2474
 3847TIP3    H233033   0.591   1.507  16.595  0.3696  0.3533  0.2793
 3848TIP3   OH233034   0.645   5.361   6.015 -0.0989  0.1196  0.6259
 3848TIP3    H133035   0.702   5.354   5.938  1.7253  0.3194  1.8861
 3848TIP3    H233036   0.559   5.382   5.979 -0.1826 -3.2750 -1.5922
 3849TIP3   OH233037   2.866   1.237   1.887 -0.1238 -0.4626 -0.0734
 3849TIP3    H133038   2.950   1.277   1.911  1.3396 -4.0909  1.6862
 3849TIP3    H233039   2.804   1.270   1.952 -0.1905  2.2494 -1.3873
 3850TIP3   OH233040   0.220   0.755   1.526  0.0408  0.1263 -0.0573
 3850TIP3    H133041   0.189   0.737   1.437  2.1322 -2.3166 -0.4056
 3850TIP3    H233042   0.168   0.696   1.581  0.1020  0.1975  0.0769
 3851TIP3   OH233043   6.671   3.542  12.678  0.0619 -0.3214 -0.0076
 3851TIP3    H133044   6.580   3.563  12.697 -0.7348  0.1265 -3.6802
 3851TIP3    H233045   6.673   3.447  12.674 -0.2657 -0.3302 -0.0118
 3852TIP3   OH233046   3.477   3.279  12.024 -0.4346 -0.9628 -0.4444
 3852TIP3    H133047   3.555   3.309  11.977 -0.0835 -0.8985  0.1745
 3852TIP3    H233048   3.449   3.201  11.976 -0.1022 -0.8788 -0.7819
 3853TIP3   OH233049   6.196   0.900  11.848 -0.0447  0.0397  0.0290
 3853TIP3    H133050   6.229   0.857  11.769 -0.4591 -2.2049  1.0185
 3853TIP3    H233051   6.115   0.854  11.869  0.3823  0.1563  2.1243
 3854TIP3   OH233052   5.262   4.137   0.801 -0.4287 -0.1476 -0.0792
 3854TIP3    H133053   5.353   4.112   0.784 -0.3227  0.9469 -1.1835
 3854TIP3    H233054   5.224   4.059   0.842  0.8386 -0.8319 -0.1444
 3855TIP3   OH233055   1.959   0.688   0.391 -0.0815  0.4825  0.1113
 3855TIP3    H133056   1.922   0.638   0.319 -2.3625 -1.0944  2.2139
 3855TIP3    H233057   1.980   0.623   0.458 -0.6840  2.0449  1.9368
 3856TIP3   OH233058   5.487   2.059  16.618 -0.2316  0.2698 -0.0350
 3856TIP3    H133059   5.408   2.010  16.638  0.7641 -0.3303  3.0450
 3856TIP3    H233060   5.481   2.138  16.672  0.4583  1.1266 -1.1626
 3857TIP3   OH233061   1.315   5.994  13.342  0.4453 -0.1519  0.2666
 3857TIP3    H133062   1.358   6.061  13.288 -1.0088  0.3998 -0.2636
 3857TIP3    H233063   1.387   5.941  13.376  1.4981  0.3276 -1.1027
 3858TIP3   OH233064   5.798   4.322  14.753  0.4983  0.3547 -0.3082
 3858TIP3    H133065   5.893   4.315  14.766  0.3744 -1.5189 -0.1146
 3858TIP3    H233066   5.766   4.233  14.769 -1.1320  0.6664 -1.6849
 3859TIP3   OH233067   4.293   4.213   1.489  0.2394 -0.0020  0.7701
 3859TIP3    H133068   4.315   4.291   1.437 -1.1955  0.9888  1.5826
 3859TIP3    H233069   4.307   4.140   1.428 -1.3380  1.1074 -1.0685
 3860TIP3   OH233070   6.007   4.005   3.869 -0.2156 -0.3609 -0.3299
 3860TIP3    H133071   6.037   3.951   3.796 -0.3487 -2.2630  0.9580
 3860TIP3    H233072   6.086   4.025   3.918 -0.2985 -0.2242 -0.2520
 3861TIP3   OH233073   2.296   0.417   5.882  0.4371 -0.1930  0.2683
 3861TIP3    H133074   2.267   0.491   5.936  0.4290  0.1125 -0.1484
 3861TIP3    H233075   2.388   0.406   5.904  0.3862 -0.1960  0.4866
 3862TIP3   OH233076   2.221   3.805   1.095  0.0577 -0.2310  0.0054
 3862TIP3    H133077   2.241   3.887   1.050  0.6801  0.9247  2.2433
 3862TIP3    H233078   2.151   3.765   1.043  0.5532  1.1186 -1.7844
 3863TIP3   OH233079   4.828   3.776  10.939 -0.1420  0.1836  0.0211
 3863TIP3    H133080   4.855   3.865  10.961  0.1678  0.1784 -0.3275
 3863TIP3    H233081   4.798   3.782  10.848 -0.7951  0.0742  0.2221
 3864TIP3   OH233082   6.017   1.796   2.712  0.6312  0.4436 -0.3657
 3864TIP3    H133083   6.043   1.742   2.788  0.1630  0.4590 -0.1946
 3864TIP3    H233084   6.054   1.749   2.637 -0.8520 -0.8361 -0.3434
 3865TIP3   OH233085   4.216   3.824   1.422  0.7934 -0.1878 -0.1459
 3865TIP3    H133086   4.279   3.883   1.380  2.2200 -1.4406  0.1808
 3865TIP3    H233087   4.268   3.773   1.484 -0.9992  0.5222  2.0665
 3866TIP3   OH233088   3.211   4.447  12.515 -0.4779 -0.1527  0.0742
 3866TIP3    H133089   3.173   4.496  12.442 -0.7697  0.9421  0.9400
 3866TIP3    H233090   3.262   4.512  12.563  3.1778 -1.6558 -1.4149
 3867TIP3   OH233091   0.203   4.837  12.852 -0.1616 -0.5633  0.3348
 3867TIP3    H133092   0.176   4.807  12.939 -1.4847 -2.0693 -0.5425
 3867TIP3    H233093   0.289   4.797  12.839  1.4567  1.9870  2.0083
 3868TIP3   OH233094   2.251   2.084   0.062 -0.2877  0.4459 -0.2288
 3868TIP3    H133095   2.270   2.075  -0.032 -0.7320 -1.1266 -0.1966
 3868TIP3    H233096   2.333   2.060   0.105 -0.5220 -0.3191 -0.1981
 3869TIP3   OH233097   4.091   1.211   3.740 -0.2998 -0.0403 -0.0567
 3869TIP3    H133098   4.061   1.124   3.713  1.0161 -0.4868 -0.1422
 3869TIP3    H233099   4.038   1.272   3.689 -2.5544 -0.7166  1.3487
 3870TIP3   OH233100   5.617   3.427   3.700 -0.9099  0.2836  0.5058
 3870TIP3    H133101   5.705   3.428   3.663 -0.5783 -0.1185  1.2556
 3870TIP3    H233102   5.628   3.459   3.789 -1.7568  1.6026  0.1595
 3871TIP3   OH233103   1.286   6.333  16.396  0.2146  0.1837 -0.0599
 3871TIP3    H133104   1.306   6.427  16.403  0.5595  0.0936  0.1797
 3871TIP3    H233105   1.340   6.303  16.324 -0.1072  0.2216 -0.3226
 3872TIP3   OH233106   2.880   2.739   2.337  0.0485  0.3883  0.1473
 3872TIP3    H133107   2.920   2.677   2.276  0.7794  1.9941 -1.0635
 3872TIP3    H233108   2.846   2.809   2.282 -0.5574  1.1955  1.4964
 3873TIP3   OH233109   2.510   3.936  16.480  0.0433  0.0630 -0.2260
 3873TIP3    H133110   2.578   4.000  16.458  1.0569 -0.9085  0.0233
 3873TIP3    H233111   2.541   3.854  16.442 -1.1415 -0.3436 -0.3572
 3874TIP3   OH233112   3.213   5.898   4.225  0.3875  0.1649  0.2821
 3874TIP3    H133113   3.143   5.848   4.266  0.8572 -0.1798  0.6757
 3874TIP3    H233114   3.270   5.832   4.185  0.0652  0.4844 -0.7199
 3875TIP3   OH233115   2.511   4.535  11.635  0.1000  0.3058 -0.4955
 3875TIP3    H133116   2.416   4.548  11.626 -0.1866 -0.5709  0.9694
 3875TIP3    H233117   2.525   4.445  11.607  0.2683 -0.0278  0.6169
 3876TIP3   OH233118   4.400   2.134   2.430 -0.1187  0.6535  1.1174
 3876TIP3    H133119   4.483   2.172   2.401  0.5215 -0.3698  1.5535
 3876TIP3    H233120   4.394   2.052   2.381 -0.0584 -0.0727  2.3136
 3877TIP3   OH233121   5.974   5.450   0.568 -0.3259 -0.2218  0.3222
 3877TIP3    H133122   5.941   5.367   0.534 -1.2782  0.9146 -1.7151
 3877TIP3    H233123   6.060   5.460   0.529 -0.6576  0.2356 -0.3021
 3878TIP3   OH233124   5.296   4.641  11.816  0.0083  0.3593  0.0896
 3878TIP3    H133125   5.256   4.684  11.891  0.0460  0.8366 -0.1601
 3878TIP3    H233126   5.298   4.548  11.839  0.9993  0.6201  1.1249
 3879TIP3   OH233127   0.442   4.663   4.464 -0.3891 -0.2798  0.2456
 3879TIP3    H133128   0.487   4.628   4.387 -1.5993 -0.5556 -0.3594
 3879TIP3    H233129   0.479   4.750   4.476  1.3000 -1.0012  0.6237
 3880TIP3   OH233130   0.119   5.314  14.528  0.0829 -0.4828 -0.1414
 3880TIP3    H133131   0.036   5.302  14.481  0.8440 -1.6675 -1.2515
 3880TIP3    H233132   0.137   5.228  14.567  0.9322 -0.3145 -0.1498
 3881TIP3   OH233133   6.409   6.455   3.186 -0.5494 -0.2642 -0.0639
 3881TIP3    H133134   6.316   6.430   3.187 -0.0261 -2.6738 -2.1446
 3881TIP3    H233135   6.435   6.446   3.094  1.9078 -0.2046  0.5627
 3882TIP3   OH233136   0.549   1.446  15.363 -0.0814 -0.0913 -0.1584
 3882TIP3    H133137   0.468   1.458  15.313 -0.1186 -0.7006 -0.2548
 3882TIP3    H233138   0.522   1.454  15.454 -0.4314 -1.1914 -0.1477
 3883TIP3   OH233139   2.474   6.616   2.661  0.2681  0.3433  0.0741
 3883TIP3    H133140   2.392   6.657   2.689  0.1955 -0.5497  1.2463
 3883TIP3    H233141   2.536   6.688   2.656 -0.0725  0.7349  1.2329
 3884TIP3   OH233142   6.800   2.032  13.142  0.1500 -0.0495  0.2114
 3884TIP3    H133143   6.733   1.965  13.127 -0.5352  0.6244  0.1675
 3884TIP3    H233144   6.807   2.037  13.237 -0.8425  0.7927  0.2645
 3885TIP3   OH233145   3.160   1.424  14.600 -0.6422  0.8813  0.3883
 3885TIP3    H133146   3.108   1.370  14.660 -0.5775  1.1638  0.7034
 3885TIP3    H233147   3.126   1.513  14.614  0.2596  1.1493  0.9656
 3886TIP3   OH233148   0.085   6.784   6.114  0.4217  0.2099  0.7258
 3886TIP3    H133149   0.016   6.742   6.167  1.3430  0.9756  2.6033
 3886TIP3    H233150   0.165   6.774   6.166  2.0378 -1.5492 -1.8298
 3887TIP3   OH233151   1.042   0.639   2.910 -0.4468 -0.7157  0.2915
 3887TIP3    H133152   1.092   0.570   2.867 -2.4069 -2.3132  0.4120
 3887TIP3    H233153   1.074   0.639   3.000  0.3346 -0.7005  0.0167
 3888TIP3   OH233154   0.515   4.925  12.336  0.0692 -0.1636  0.6055
 3888TIP3    H133155   0.499   4.962  12.423  1.1694  1.6698  0.0869
 3888TIP3    H233156   0.582   4.858  12.350  2.6270  2.2346  0.8928
 3889TIP3   OH233157   2.263   6.203   0.057 -0.3836  0.0749 -0.4169
 3889TIP3    H133158   2.309   6.251  -0.012 -1.6171  0.3933 -1.0488
 3889TIP3    H233159   2.187   6.258   0.078 -1.4495 -1.2399 -0.6524
 3890TIP3   OH233160   6.607   5.769   0.874  0.9780  0.4768 -0.6759
 3890TIP3    H133161   6.638   5.833   0.938  0.6106 -0.8558  0.9182
 3890TIP3    H233162   6.569   5.821   0.803 -0.0362  2.0124  0.9335
 3891TIP3   OH233163   4.386   1.794  17.220  0.5462 -0.3574 -0.0947
 3891TIP3    H133164   4.474   1.801  17.183  0.3634  0.8129 -0.3479
 3891TIP3    H233165   4.394   1.731  17.291  1.5975 -0.2233 -0.0895
 3892TIP3   OH233166   3.398   5.659  13.058  0.5587 -0.1369 -0.0496
 3892TIP3    H133167   3.363   5.665  13.147  2.5706  0.4883  0.7662
 3892TIP3    H233168   3.326   5.625  13.005 -1.1739  0.9537  1.5186
 3893TIP3   OH233169   2.309   2.800  14.009 -0.3301  0.1196  0.0832
 3893TIP3    H133170   2.227   2.785  13.962 -1.0597 -1.0165  1.6199
 3893TIP3    H233171   2.282   2.844  14.090  0.9647  2.6676 -0.7559
 3894TIP3   OH233172   2.703   3.344   5.024  1.0221  0.4111  0.4080
 3894TIP3    H133173   2.744   3.326   5.108  1.5860  0.2848  0.1081
 3894TIP3    H233174   2.716   3.438   5.010  0.6593  0.4934  0.5990
 3895TIP3   OH233175   5.217   5.256   6.171  0.7665 -0.0600 -0.4264
 3895TIP3    H133176   5.236   5.163   6.152  0.1611  0.0012 -1.3832
 3895TIP3    H233177   5.270   5.275   6.249 -0.8642 -1.8435  1.2396
 3896TIP3   OH233178   5.132   2.531   5.337  0.5794  0.7568  0.1933
 3896TIP3    H133179   5.219   2.517   5.300  0.2610  1.8518 -1.0524
 3896TIP3    H233180   5.085   2.579   5.269 -0.3803  1.9115  1.6214
 3897TIP3   OH233181   6.653   3.043  11.405  0.0905 -0.1523  0.5585
 3897TIP3    H133182   6.582   3.096  11.371  0.0123 -0.9902 -0.6407
 3897TIP3    H233183   6.731   3.097  11.396  0.0212 -0.2449 -0.7133
 3898TIP3   OH233184   0.774   5.939  11.219  0.0042 -0.0177 -0.2406
 3898TIP3    H133185   0.785   5.906  11.130  0.5398 -0.8256  0.1172
 3898TIP3    H233186   0.861   5.965  11.247 -0.1544  0.2016  0.0590
 3899TIP3   OH233187   2.004   5.682   4.998  0.1861 -0.3912  0.2425
 3899TIP3    H133188   1.941   5.633   4.945  0.0505 -0.7308  0.7076
 3899TIP3    H233189   1.971   5.674   5.087  0.7350 -0.3295  0.4541
 3900TIP3   OH233190   1.663   2.803  14.436  0.2142  0.7376  0.4933
 3900TIP3    H133191   1.648   2.735  14.371 -3.1653  0.3517  1.4628
 3900TIP3    H233192   1.635   2.884  14.393  1.0713  1.0180  0.4391
 3901TIP3   OH233193   1.875   0.587   2.165 -0.2353  0.0010  0.4858
 3901TIP3    H133194   1.846   0.671   2.200  1.3370  0.0187  1.8656
 3901TIP3    H233195   1.870   0.527   2.240  0.3058 -0.7091 -0.0313
 3902TIP3   OH233196   5.359   5.034   1.240 -0.1883 -0.5651  0.0143
 3902TIP3    H133197   5.296   5.101   1.268 -2.1267 -0.7703 -3.3045
 3902TIP3    H233198   5.333   4.955   1.289 -0.6885  0.0441  0.7576
 3903TIP3   OH233199   4.003   3.990   1.994  0.4863 -0.5571 -0.4545
 3903TIP3    H133200   3.944   4.045   2.046  1.0468 -0.5398  0.1752
 3903TIP3    H233201   4.087   3.995   2.039  0.8888 -0.8629 -1.1473
 3904TIP3   OH233202   2.237   4.751  15.195 -0.0101 -0.0266  0.2157
 3904TIP3    H133203   2.305   4.684  15.193 -0.5630 -0.5927  0.2682
 3904TIP3    H233204   2.155   4.703  15.198 -0.4674  0.6344 -1.0310
 3905TIP3   OH233205   4.929   4.631   0.123  0.2778  0.4253 -0.0329
 3905TIP3    H133206   4.986   4.643   0.199  1.0614  0.1728 -0.5695
 3905TIP3    H233207   4.974   4.565   0.069 -0.8169 -0.2269 -0.1776
 3906TIP3   OH233208   1.654   3.806   2.809  0.1817  0.0251  0.1746
 3906TIP3    H133209   1.682   3.810   2.718  1.1968  0.5654  0.4895
 3906TIP3    H233210   1.736   3.806   2.859 -0.2948 -1.8663  1.0530
 3907TIP3   OH233211   1.139   3.163   1.611 -0.4088 -0.0946 -0.5971
 3907TIP3    H133212   1.176   3.249   1.629 -0.8315 -0.1831  0.8454
 3907TIP3    H233213   1.211   3.102   1.628 -0.4787 -0.1017 -0.3174
 3908TIP3   OH233214   1.632   2.576  17.211 -0.1094  0.3001 -0.5729
 3908TIP3    H133215   1.592   2.604  17.294  0.8965  0.2907 -0.0716
 3908TIP3    H233216   1.726   2.579  17.228  0.2560  2.7288 -2.4738
 3909TIP3   OH233217   4.167   0.323   4.030 -0.3851 -0.3621 -0.2841
 3909TIP3    H133218   4.139   0.333   3.939 -0.4285 -1.5536 -0.4156
 3909TIP3    H233219   4.099   0.368   4.080 -0.5906 -0.0647 -0.8122
 3910TIP3   OH233220   3.381   0.921   0.319  0.0314  0.0401  0.4290
 3910TIP3    H133221   3.354   0.966   0.239  0.8657  1.5656  0.9732
 3910TIP3    H233222   3.380   0.988   0.387  1.6246 -0.6637  1.2124
 3911TIP3   OH233223   1.705   5.796   2.418  0.2686  0.1127  0.2990
 3911TIP3    H133224   1.628   5.823   2.369  1.5017  1.5522 -0.9456
 3911TIP3    H233225   1.694   5.837   2.504 -0.0899  0.7702 -0.0517
 3912TIP3   OH233226   6.235   4.332   3.060 -0.0853  0.0797 -0.0005
 3912TIP3    H133227   6.254   4.244   3.028  2.3244  1.8761 -4.5758
 3912TIP3    H233228   6.145   4.349   3.032  0.2014 -0.2538 -1.2140
 3913TIP3   OH233229   6.730   0.552   1.066  0.9460 -0.0913  0.1242
 3913TIP3    H133230   6.740   0.612   1.140 -0.1387 -0.8394  0.9128
 3913TIP3    H233231   6.811   0.501   1.065  0.8578 -0.2652  0.9894
 3914TIP3   OH233232   6.490   4.083   3.709 -0.2313  0.2954  0.5597
 3914TIP3    H133233   6.399   4.065   3.732 -0.5202 -0.3422 -1.0063
 3914TIP3    H233234   6.541   4.047   3.782 -1.1786 -0.2338  0.9660
 3915TIP3   OH233235   3.636   1.917  16.067 -0.0878  0.3625 -0.1054
 3915TIP3    H133236   3.705   1.963  16.020  0.1292  0.1528  0.0049
 3915TIP3    H233237   3.682   1.871  16.137 -0.2977 -0.0459 -0.2355
 3916TIP3   OH233238   2.700   3.040  14.480 -0.1383 -0.3148  0.2005
 3916TIP3    H133239   2.631   3.086  14.433  2.4768  2.6180 -1.1288
 3916TIP3    H233240   2.716   2.961  14.428  1.3635  1.8869 -3.0748
 3917TIP3   OH233241   0.663   5.452   4.216  0.0679  0.2281  0.3548
 3917TIP3    H133242   0.726   5.477   4.283 -1.2536  1.0383  1.3380
 3917TIP3    H233243   0.628   5.368   4.246 -0.0965  0.3000  0.3636
 3918TIP3   OH233244   2.825   3.884  15.400  0.3109  0.8054  0.5534
 3918TIP3    H133245   2.825   3.960  15.459 -0.8340  0.6311  0.8059
 3918TIP3    H233246   2.802   3.810  15.457 -0.7342  0.6194 -0.1019
 3919TIP3   OH233247   1.898   0.395  11.048 -0.2105  0.1908 -0.2179
 3919TIP3    H133248   1.893   0.490  11.038 -0.6751  0.0936 -1.0063
 3919TIP3    H233249   1.992   0.375  11.051 -0.0878  0.8524  1.9383
 3920TIP3   OH233250   6.328   4.546  16.032  0.4374 -0.1156 -0.1562
 3920TIP3    H133251   6.406   4.504  16.068  0.0991  0.5459  1.4231
 3920TIP3    H233252   6.306   4.614  16.095 -0.7910  0.4298 -1.1312
 3921TIP3   OH233253   4.691   6.671  16.582 -0.9546  0.0859 -0.4282
 3921TIP3    H133254   4.636   6.746  16.605 -1.3059 -0.7635  1.7148
 3921TIP3    H233255   4.777   6.692  16.619 -1.1811 -0.7470  0.5997
 3922TIP3   OH233256   0.285   5.415   3.567 -0.0959 -0.0383  0.1810
 3922TIP3    H133257   0.314   5.448   3.482 -2.3292 -0.2869 -0.7564
 3922TIP3    H233258   0.192   5.438   3.571 -0.5399 -1.8213  1.6400
 3923TIP3   OH233259   2.347   1.263  12.222 -0.2455 -0.0993  0.3482
 3923TIP3    H133260   2.367   1.200  12.153 -2.2748 -0.1502 -0.2624
 3923TIP3    H233261   2.425   1.264  12.277  0.5045 -1.8490 -0.6059
 3924TIP3   OH233262   3.517   0.390   4.378  0.2201  0.5163  0.3052
 3924TIP3    H133263   3.528   0.301   4.343 -0.5320  0.1207  1.0487
 3924TIP3    H233264   3.605   0.428   4.374  0.2897  0.2910 -1.4492
 3925TIP3   OH233265   4.456   2.334  12.005 -0.3050  0.4509 -0.1494
 3925TIP3    H133266   4.417   2.247  12.010  1.4567 -0.4567 -0.9475
 3925TIP3    H233267   4.399   2.390  12.056 -1.0098 -1.3718  1.1389
 3926TIP3   OH233268   6.426   1.077  16.876 -0.4128  0.4027  0.4253
 3926TIP3    H133269   6.374   1.090  16.956 -1.3731 -0.3799 -0.0479
 3926TIP3    H233270   6.378   1.125  16.808 -0.2005  0.1618  0.1018
 3927TIP3   OH233271   2.211   3.106   3.727  0.2641 -0.4678 -0.0835
 3927TIP3    H133272   2.187   3.047   3.799  0.4066  1.7704  1.8897
 3927TIP3    H233273   2.270   3.169   3.766  1.5475 -0.0146 -2.5671
 3928TIP3   OH233274   3.926   3.581  14.587 -0.5191  0.7856 -0.4501
 3928TIP3    H133275   3.922   3.676  14.578 -2.5037  0.6720 -1.3217
 3928TIP3    H233276   3.869   3.561  14.661 -0.3147  0.2639 -0.4243
 3929TIP3   OH233277   4.214   3.976   4.675  0.1256 -0.2908  0.1189
 3929TIP3    H133278   4.297   4.015   4.650  0.0081  0.0880  0.3230
 3929TIP3    H233279   4.204   3.997   4.768  0.3744 -1.3611  0.4035
 3930TIP3   OH233280   3.143   6.621  10.997  0.1956 -0.1098 -0.3408
 3930TIP3    H133281   3.119   6.688  10.933  0.9599  1.6961  1.1720
 3930TIP3    H233282   3.206   6.566  10.951 -1.9761 -1.1121 -2.2907
 3931TIP3   OH233283   1.782   4.859  13.259 -0.4534 -0.2974 -0.0704
 3931TIP3    H133284   1.840   4.907  13.318 -0.4071 -1.6334  1.0139
 3931TIP3    H233285   1.822   4.870  13.173  0.6289 -0.0223  0.4429
 3932TIP3   OH233286   3.199   1.452   2.428 -0.4109  0.1247 -0.6362
 3932TIP3    H133287   3.169   1.429   2.516  0.2423 -0.8939 -0.6698
 3932TIP3    H233288   3.237   1.539   2.437  0.6239 -0.4060  0.3251
 3933TIP3   OH233289   3.025   4.524  11.685  0.2773 -0.1415  0.0980
 3933TIP3    H133290   3.064   4.451  11.733  0.9104  0.5316  0.6344
 3933TIP3    H233291   2.933   4.524  11.711  0.3272 -0.5850  0.2834
 3934TIP3   OH233292   3.345   5.196  11.715  0.2664 -0.0027  0.0660
 3934TIP3    H133293   3.393   5.114  11.715  0.2535 -0.1371 -2.8660
 3934TIP3    H233294   3.275   5.183  11.651 -1.9006  1.1761  2.0647
 3935TIP3   OH233295   0.304   5.784   0.279  0.8129  0.6931  0.0606
 3935TIP3    H133296   0.274   5.714   0.336  1.7521  0.4306  0.2410
 3935TIP3    H233297   0.228   5.841   0.270 -0.3765 -0.9710 -1.0849
 3936TIP3   OH233298   6.668   3.190   5.316  0.5229  0.1343 -0.1768
 3936TIP3    H133299   6.646   3.246   5.391  0.1181 -3.6151  2.7828
 3936TIP3    H233300   6.590   3.195   5.259 -0.4996  0.6819  1.2114
 3937TIP3   OH233301   2.209   2.132   6.493 -0.4383  0.1114 -0.1898
 3937TIP3    H133302   2.179   2.222   6.505 -1.0122 -0.1521  0.3454
 3937TIP3    H233303   2.164   2.082   6.560  1.6244 -0.2016  1.0665
 3938TIP3   OH233304   0.313   3.369  10.867  0.4293  0.4887  0.9050
 3938TIP3    H133305   0.315   3.329  10.780  1.7620 -0.7210  1.4753
 3938TIP3    H233306   0.265   3.307  10.921 -2.6950  2.3739  0.5631
 3939TIP3   OH233307   3.650   2.825   1.368  0.0498 -0.5395  0.0099
 3939TIP3    H133308   3.647   2.791   1.457  1.0535 -1.2690 -0.2181
 3939TIP3    H233309   3.740   2.857   1.358 -0.3665  0.5454 -0.3863
 3940TIP3   OH233310   2.191   3.535   5.513  0.1074 -0.0323  0.4516
 3940TIP3    H133311   2.227   3.623   5.506  0.2310  0.0408  1.6683
 3940TIP3    H233312   2.174   3.507   5.423 -0.5595  1.4938  0.0770
 3941TIP3   OH233313   5.824   1.186  13.895 -0.4530  0.3739 -0.3263
 3941TIP3    H133314   5.798   1.135  13.818  0.3376 -1.0415  0.3030
 3941TIP3    H233315   5.920   1.193  13.887 -0.4815  1.1284 -0.0152
 3942TIP3   OH233316   3.281   3.614  14.788 -0.0312 -0.8061  0.2190
 3942TIP3    H133317   3.246   3.698  14.819  3.0143  1.0376 -0.8381
 3942TIP3    H233318   3.312   3.570  14.867 -0.9231 -0.5979  0.7003
 3943TIP3   OH233319   5.678   1.891  16.946 -0.2906 -0.1456  0.0136
 3943TIP3    H133320   5.731   1.886  16.867 -0.4000 -0.7366 -0.0235
 3943TIP3    H233321   5.741   1.880  17.018 -0.3212 -0.5507 -0.0207
 3944TIP3   OH233322   1.405   0.411   5.884  0.0509 -0.3325 -0.5229
 3944TIP3    H133323   1.363   0.478   5.938 -2.8195 -0.2992 -2.5856
 3944TIP3    H233324   1.490   0.450   5.861 -0.3783  1.4003  0.5792
 3945TIP3   OH233325   5.672   3.049  17.236  0.3176  0.5217  0.0501
 3945TIP3    H133326   5.765   3.058  17.252  0.2447  0.1066  0.7450
 3945TIP3    H233327   5.647   3.130  17.192  0.9622  0.7141  0.0303
 3946TIP3   OH233328   4.076   6.534  15.651 -0.3906 -0.2230  0.4590
 3946TIP3    H133329   4.120   6.602  15.601 -0.8578  1.2814  2.0018
 3946TIP3    H233330   4.064   6.462  15.589  1.4096  0.5218 -0.8316
 3947TIP3   OH233331   2.025   0.852   5.202 -0.1243 -0.7669  0.0303
 3947TIP3    H133332   1.976   0.896   5.271  2.3146  1.5616  0.4384
 3947TIP3    H233333   1.974   0.867   5.122 -1.3367 -0.6531  0.8080
 3948TIP3   OH233334   2.193   2.544  16.399 -0.9030  0.1342 -0.3014
 3948TIP3    H133335   2.196   2.574  16.490  0.5824 -0.5982 -0.0741
 3948TIP3    H233336   2.280   2.509  16.383 -1.4207 -0.5654 -1.7433
 3949TIP3   OH233337   1.523   2.753   6.319  0.4043 -0.1485 -0.1342
 3949TIP3    H133338   1.506   2.768   6.412 -0.7528 -0.9294 -0.1976
 3949TIP3    H233339   1.575   2.828   6.292  0.2721  0.3821  1.0065
 3950TIP3   OH233340   5.217   0.234  15.226 -0.6089 -0.1804  0.1475
 3950TIP3    H133341   5.219   0.270  15.315  1.2715  0.2166 -0.0127
 3950TIP3    H233342   5.231   0.140  15.239 -2.0463 -0.3922  0.3458
 3951TIP3   OH233343   5.143   4.056   2.870 -0.4018 -0.0839 -0.0690
 3951TIP3    H133344   5.166   4.149   2.870 -1.2768  0.1395 -0.0657
 3951TIP3    H233345   5.169   4.025   2.783  0.4742  0.0084  0.1510
 3952TIP3   OH233346   4.343   2.810  15.015  0.1283  0.4362 -0.0980
 3952TIP3    H133347   4.423   2.847  15.053  0.9775 -0.2762 -1.1238
 3952TIP3    H233348   4.357   2.715  15.019 -1.0673  0.2677  0.5239
 3953TIP3   OH233349   0.267   2.912   3.608  0.3135  0.0190  0.1741
 3953TIP3    H133350   0.188   2.965   3.623  0.0453 -0.0051 -1.0895
 3953TIP3    H233351   0.242   2.823   3.634  0.0927  0.1137  0.2828
 3954TIP3   OH233352   4.737   1.591  12.311 -0.4852  0.2505 -0.3883
 3954TIP3    H133353   4.683   1.547  12.377 -0.7548 -2.2572 -2.1319
 3954TIP3    H233354   4.687   1.584  12.230  0.5555  1.8099 -1.2213
 3955TIP3   OH233355   3.910   3.228   1.365 -0.0492  0.1416  0.2955
 3955TIP3    H133356   3.951   3.224   1.452 -2.2571  1.1257  1.4518
 3955TIP3    H233357   3.982   3.252   1.306  1.0267  2.0217  2.2306
 3956TIP3   OH233358   4.250   5.940  15.803  0.0561 -0.5945  0.2096
 3956TIP3    H133359   4.169   5.991  15.800  0.5904  0.2798 -2.5157
 3956TIP3    H233360   4.252   5.903  15.891 -3.2912 -0.6597  0.3850
 3957TIP3   OH233361   3.046   2.882  13.396  0.3381  0.3551  0.4035
 3957TIP3    H133362   3.056   2.836  13.479  1.5296  0.2692  0.2334
 3957TIP3    H233363   2.952   2.876  13.376  0.1211 -0.0524  1.4854
 3958TIP3   OH233364   2.990   3.020   4.039 -0.2787  0.6032  0.1684
 3958TIP3    H133365   2.966   3.024   3.946 -0.1621  1.0189  0.1538
 3958TIP3    H233366   2.918   3.062   4.085 -1.1393 -1.0525  0.4351
 3959TIP3   OH233367   4.473   4.474  12.998 -0.1894 -0.0370 -0.1091
 3959TIP3    H133368   4.510   4.386  13.008 -2.6965 -1.3543 -1.3990
 3959TIP3    H233369   4.411   4.482  13.070  1.1940  1.4323  0.9984
 3960TIP3   OH233370   1.619   5.301  12.377 -0.5775 -0.0079  0.0875
 3960TIP3    H133371   1.656   5.220  12.342  1.0852  1.4038 -1.6358
 3960TIP3    H233372   1.675   5.323  12.452 -0.1467  0.2229 -0.2907
 3961TIP3   OH233373   0.377   0.807  13.082  0.1021  0.2476 -0.6994
 3961TIP3    H133374   0.349   0.725  13.122  1.4064 -0.4332 -1.1291
 3961TIP3    H233375   0.459   0.786  13.038  0.4511  1.7819 -0.8535
 3962TIP3   OH233376   1.281   4.096   0.053 -0.4321  0.3251 -0.1840
 3962TIP3    H133377   1.216   4.032   0.024 -1.2578  0.8037  0.5693
 3962TIP3    H233378   1.361   4.045   0.066 -0.9196 -0.4425 -0.1725
 3963TIP3   OH233379   1.659   0.701  12.120 -0.4356 -0.5899 -0.1190
 3963TIP3    H133380   1.675   0.750  12.039 -2.0381  0.0552 -0.0685
 3963TIP3    H233381   1.686   0.612  12.099  1.7934  0.0835 -0.4633
 3964TIP3   OH233382   5.235   2.902   2.294 -0.0549 -0.4035  0.0466
 3964TIP3    H133383   5.240   2.996   2.307 -0.9415 -0.1711 -1.0937
 3964TIP3    H233384   5.188   2.870   2.372  1.6970 -0.1659  1.2639
 3965TIP3   OH233385   0.699   0.177   5.094 -0.4669 -0.2651  0.2000
 3965TIP3    H133386   0.673   0.256   5.046  0.2258 -0.1969 -0.0863
 3965TIP3    H233387   0.726   0.209   5.180 -2.1391 -0.4384  0.8240
 3966TIP3   OH233388   2.335   2.494   0.776 -0.2129 -0.0106 -0.5956
 3966TIP3    H133389   2.386   2.575   0.774 -0.8633  0.5548  2.0537
 3966TIP3    H233390   2.393   2.428   0.738  1.3175  1.1998 -0.4363
 3967TIP3   OH233391   2.459   0.146   3.130  0.1916  0.4795  0.2034
 3967TIP3    H133392   2.488   0.233   3.155  1.1632  0.2810 -0.2015
 3967TIP3    H233393   2.488   0.089   3.202 -0.5277  0.4915  0.5167
 3968TIP3   OH233394   5.701   6.034   1.195 -0.4978  0.0979 -0.2674
 3968TIP3    H133395   5.645   5.999   1.126  0.0846 -0.9554 -0.2263
 3968TIP3    H233396   5.690   5.975   1.269  0.8487 -0.3035 -0.3504
 3969TIP3   OH233397   1.932   6.407  15.495  0.2776  0.1440 -0.5606
 3969TIP3    H133398   1.924   6.412  15.590  0.6674 -0.5459 -0.4855
 3969TIP3    H233399   1.972   6.490  15.469  3.9671 -1.1834  0.3206
 3970TIP3   OH233400   4.487   5.797   1.490  0.1901 -0.2045 -0.0566
 3970TIP3    H133401   4.581   5.811   1.502  0.3846 -1.6445  0.3474
 3970TIP3    H233402   4.452   5.797   1.579 -0.0194 -0.7024 -0.1356
 3971TIP3   OH233403   1.711   3.784  17.109 -0.3308 -0.4191  0.6174
 3971TIP3    H133404   1.658   3.864  17.105 -2.0466 -1.5576 -0.4558
 3971TIP3    H233405   1.668   3.723  17.051  1.0165 -2.1261  1.3111
 3972TIP3   OH233406   3.948   1.234  12.930  0.4068  0.4622 -0.6578
 3972TIP3    H133407   3.855   1.213  12.936  0.5351  0.0603  0.0062
 3972TIP3    H233408   3.980   1.224  13.019  1.3186 -0.4783 -1.0728
 3973TIP3   OH233409   6.389   5.357  14.793  0.2255  0.2402 -0.2018
 3973TIP3    H133410   6.326   5.419  14.757  0.9923  0.2066 -1.6972
 3973TIP3    H233411   6.443   5.409  14.853  0.8522  1.0670 -1.4233
 3974TIP3   OH233412   1.246   3.038  17.183 -0.1649  0.3122  0.2034
 3974TIP3    H133413   1.195   2.962  17.157  0.6133 -0.1576  0.0254
 3974TIP3    H233414   1.213   3.109  17.128  0.1628 -0.2458 -0.7411
 3975TIP3   OH233415   3.835   4.326  14.528 -0.2613 -0.4389 -0.0427
 3975TIP3    H133416   3.811   4.360  14.615 -1.3452  0.4523 -0.6607
 3975TIP3    H233417   3.890   4.395  14.490 -2.2674  0.6167 -1.2095
 3976TIP3   OH233418   2.360   4.146  11.912  0.0725  0.3299 -0.2860
 3976TIP3    H133419   2.315   4.231  11.912  1.3354  1.0374 -0.5473
 3976TIP3    H233420   2.296   4.084  11.946 -1.2110  1.2090 -1.0188
 3977TIP3   OH233421   1.691   6.446   3.309  0.0230  1.1224  0.1400
 3977TIP3    H133422   1.765   6.427   3.250  1.3236  0.0845  2.0181
 3977TIP3    H233423   1.644   6.518   3.265  0.6040  0.0719 -2.3886
 3978TIP3   OH233424   0.904   5.091   0.100  0.1049 -0.5038 -0.2651
 3978TIP3    H133425   0.924   5.172   0.052 -0.6730 -0.9816 -1.4416
 3978TIP3    H233426   0.963   5.094   0.176 -0.0910  1.2804 -0.1256
 3979TIP3   OH233427   2.311   6.365  13.489  0.1315  0.0775 -0.1303
 3979TIP3    H133428   2.388   6.309  13.500  1.3829  1.8780  0.8921
 3979TIP3    H233429   2.317   6.396  13.399  1.4856  1.3077  0.3255
 3980TIP3   OH233430   0.450   5.770   4.011  0.6977 -0.2880  0.0021
 3980TIP3    H133431   0.417   5.681   4.021 -0.0419 -0.1560 -1.0742
 3980TIP3    H233432   0.418   5.817   4.088  0.1028 -0.6607 -0.0157
 3981TIP3   OH233433   5.750   1.013  15.500  0.0309  0.3733 -0.1396
 3981TIP3    H133434   5.688   1.086  15.507 -0.4781  0.1589 -2.0649
 3981TIP3    H233435   5.695   0.935  15.504  0.3634  0.1377 -0.1903
 3982TIP3   OH233436   4.635   2.348  11.516 -0.1538 -0.5444  0.3813
 3982TIP3    H133437   4.658   2.256  11.526 -0.1077 -0.5089  0.6251
 3982TIP3    H233438   4.563   2.362  11.578 -2.3250 -1.1589 -1.8704
 3983TIP3   OH233439   0.418   4.994   5.419  0.2683 -0.6351  0.3962
 3983TIP3    H133440   0.370   4.916   5.390 -0.2520 -0.5973  1.1279
 3983TIP3    H233441   0.350   5.059   5.436  0.7005 -0.0201 -0.1746
 3984TIP3   OH233442   1.266   5.443  16.438  0.7242  0.2413 -0.0436
 3984TIP3    H133443   1.345   5.496  16.447  0.1336  0.9892  0.8427
 3984TIP3    H233444   1.265   5.388  16.516 -0.3434  1.2349  0.6747
 3985TIP3   OH233445   0.441   3.291  12.966  0.4421 -0.4060 -0.0255
 3985TIP3    H133446   0.428   3.198  12.984  1.8626 -0.8266 -1.0164
 3985TIP3    H233447   0.360   3.318  12.922  0.4761 -1.4769 -0.8041
 3986TIP3   OH233448   0.447   0.451   4.064 -0.0613  0.3838  0.0989
 3986TIP3    H133449   0.423   0.362   4.091 -0.2130  0.1901 -0.6295
 3986TIP3    H233450   0.406   0.461   3.978  1.1600  0.6247 -0.4802
 3987TIP3   OH233451   0.989   1.004   5.325 -0.3687 -0.0937 -0.3691
 3987TIP3    H133452   0.946   1.076   5.279 -0.0067  0.1851 -0.2754
 3987TIP3    H233453   1.043   0.961   5.258  0.7946  0.8117 -0.0352
 3988TIP3   OH233454   6.543   5.287   6.274  0.3388  0.5182 -0.0337
 3988TIP3    H133455   6.487   5.210   6.278  1.1298 -0.0562  0.1743
 3988TIP3    H233456   6.587   5.291   6.359  1.5522  0.2246 -0.6207
 3989TIP3   OH233457   0.567   6.403  12.407  0.7003 -0.3231 -0.3443
 3989TIP3    H133458   0.634   6.394  12.474 -0.8758  0.6294  1.4645
 3989TIP3    H233459   0.488   6.364  12.445 -0.3811  0.6973 -1.4090
 3990TIP3   OH233460   2.101   2.653   3.984  0.1707 -0.5518 -0.0955
 3990TIP3    H133461   2.158   2.578   4.000 -1.9253 -2.2485 -0.0597
 3990TIP3    H233462   2.038   2.651   4.056 -0.5300  0.6741 -0.6392
 3991TIP3   OH233463   2.091   4.992  11.398  0.5795  0.4922 -0.3428
 3991TIP3    H133464   2.157   4.994  11.467  0.5307  2.1685 -0.3056
 3991TIP3    H233465   2.035   4.918  11.420  0.4560  1.0863  1.5330
 3992TIP3   OH233466   3.134   5.663   3.620 -0.1387 -0.6897 -0.6816
 3992TIP3    H133467   3.221   5.684   3.586 -0.6529 -0.7437 -2.1191
 3992TIP3    H233468   3.076   5.723   3.575 -0.8183 -0.3571  0.5978
 3993TIP3   OH233469   0.915   2.025  11.266  0.2792  0.3560  0.2169
 3993TIP3    H133470   0.982   1.998  11.329 -0.1856  1.1861  1.0979
 3993TIP3    H233471   0.833   2.020  11.316 -0.1484  0.6440 -0.4489
 3994TIP3   OH233472   1.707   4.391   3.881  0.2690  0.0430  0.1489
 3994TIP3    H133473   1.693   4.485   3.876 -0.1620  0.0202  0.8372
 3994TIP3    H233474   1.653   4.355   3.811 -0.7293  0.2034  0.8093
 3995TIP3   OH233475   0.245   2.620  15.477  0.2044  0.4096  0.0471
 3995TIP3    H133476   0.281   2.588  15.394  2.3121  1.5036  0.4740
 3995TIP3    H233477   0.250   2.544  15.535  1.3082  0.3613 -0.0879
 3996TIP3   OH233478   2.881   4.651   4.309 -0.0530  0.4864  0.5903
 3996TIP3    H133479   2.798   4.680   4.346 -0.0910  3.2046 -1.2566
 3996TIP3    H233480   2.858   4.617   4.222  0.6922  0.9160  0.2140
 3997TIP3   OH233481   1.879   0.374   5.206 -0.1802  0.2086  0.1559
 3997TIP3    H133482   1.906   0.381   5.297  1.0087 -0.3150 -0.1427
 3997TIP3    H233483   1.784   0.387   5.208  0.0537  2.0542  1.2313
 3998TIP3   OH233484   3.899   3.824   3.753 -0.3996  0.3743  0.0087
 3998TIP3    H133485   3.933   3.790   3.670  1.3599 -0.4072  0.9957
 3998TIP3    H233486   3.962   3.892   3.778 -0.6207  0.2384  0.9569
 3999TIP3   OH233487   6.185   2.914  15.404  0.5217  0.0967  0.5606
 3999TIP3    H133488   6.224   2.998  15.378 -0.1335 -0.2234 -1.6729
 3999TIP3    H233489   6.091   2.928  15.395  0.1230  0.2161  3.8552
 4000TIP3   OH233490   0.007   5.497   4.778 -0.3667 -0.1047  0.1254
 4000TIP3    H133491  -0.064   5.553   4.746 -0.4986 -0.3618 -0.0362
 4000TIP3    H233492   0.016   5.520   4.871 -1.0280 -0.4609  0.2770
 4001TIP3   OH233493   2.685   1.000  12.285  0.0336 -0.3470  0.0667
 4001TIP3    H133494   2.759   0.953  12.321  0.4210  0.0511 -0.2009
 4001TIP3    H233495   2.697   1.090  12.315  0.1815 -0.0765 -0.7642
 4002TIP3   OH233496   5.897   1.611  10.455  0.0181  0.5673 -0.4917
 4002TIP3    H133497   5.854   1.661  10.525  0.8007 -0.4158  0.7337
 4002TIP3    H233498   5.874   1.658  10.375 -2.6885  0.5443  0.1492
 4003TIP3   OH233499   2.353   2.303   5.729  0.3167 -0.5790  0.2878
 4003TIP3    H133500   2.431   2.358   5.731  1.6809 -2.3903  0.1130
 4003TIP3    H233501   2.322   2.307   5.639  0.3874 -0.0851  0.2855
 4004TIP3   OH233502   1.900   2.206  13.094 -0.6014 -0.1801  0.2877
 4004TIP3    H133503   1.856   2.277  13.142 -0.5695  1.3099 -1.7601
 4004TIP3    H233504   1.993   2.227  13.102 -0.5636 -0.2895  0.1180
 4005TIP3   OH233505   5.635   5.095   1.468  0.0534 -0.6756 -0.2495
 4005TIP3    H133506   5.559   5.041   1.450  0.1899 -0.8190 -0.4013
 4005TIP3    H233507   5.710   5.038   1.450  0.1962 -0.6303  0.1777
 4006TIP3   OH233508   5.314   2.010  13.462 -0.5292 -0.0590 -0.2882
 4006TIP3    H133509   5.246   2.000  13.530 -1.0847  1.0780 -0.6488
 4006TIP3    H233510   5.375   2.074  13.498 -0.3948 -0.0447 -0.5399
 4007TIP3   OH233511   0.266   3.612   3.072  0.3996 -0.6729  0.1402
 4007TIP3    H133512   0.354   3.613   3.108  0.7559 -1.4179 -0.6854
 4007TIP3    H233513   0.258   3.695   3.024 -0.3899  0.7715  2.5354
 4008TIP3   OH233514   1.882   1.796   5.687 -0.3871  0.0055  0.2727
 4008TIP3    H133515   1.883   1.843   5.770  0.7350 -2.4798  1.7937
 4008TIP3    H233516   1.920   1.711   5.707 -3.3034 -2.0510 -2.0032
 4009TIP3   OH233517   1.828   5.075  17.235  0.1171  0.5046  0.1767
 4009TIP3    H133518   1.844   5.001  17.176  2.9863  2.0191 -1.1499
 4009TIP3    H233519   1.907   5.080  17.290 -1.3664  0.7436  2.4139
 4010TIP3   OH233520   0.270   3.932  15.055  0.0690 -0.0078  0.3019
 4010TIP3    H133521   0.334   3.998  15.030 -0.7757  0.1811 -1.4522
 4010TIP3    H233522   0.188   3.980  15.068  0.1517 -0.2926  2.2146
 4011TIP3   OH233523   6.431   0.773   4.909  0.5783 -0.3416  0.4090
 4011TIP3    H133524   6.520   0.793   4.879  0.2388 -1.3613 -1.4799
 4011TIP3    H233525   6.374   0.828   4.855 -0.0718 -2.4155 -1.1504
 4012TIP3   OH233526   4.234   2.177  10.779  0.4677 -0.1531 -0.1437
 4012TIP3    H133527   4.236   2.082  10.784 -0.9022 -0.2343 -0.6761
 4012TIP3    H233528   4.199   2.205  10.864 -0.3971 -0.2093 -0.4745
 4013TIP3   OH233529   6.273   4.387   0.982 -0.1221  0.7151 -0.2305
 4013TIP3    H133530   6.257   4.334   0.904 -1.9176 -0.7737  1.0666
 4013TIP3    H233531   6.207   4.456   0.979  0.5730  1.3851 -0.5973
 4014TIP3   OH233532   4.241   6.036   0.808  0.2404  0.0796 -0.3874
 4014TIP3    H133533   4.231   6.096   0.882  1.3470  0.4142 -0.4940
 4014TIP3    H233534   4.241   5.949   0.847  0.6321  0.2480 -0.0095
 4015TIP3   OH233535   3.139   0.744  13.835 -0.6388  0.4551  0.6433
 4015TIP3    H133536   3.132   0.839  13.847 -1.1611  0.3057  1.6635
 4015TIP3    H233537   3.049   0.712  13.842 -0.7203  0.0547 -1.5618
 4016TIP3   OH233538   4.222   6.608   1.369 -0.0210  0.1526  0.2521
 4016TIP3    H133539   4.309   6.645   1.380  0.2485 -0.9543  2.2122
 4016TIP3    H233540   4.166   6.660   1.427 -0.3545 -0.1774  0.2307
 4017TIP3   OH233541   0.957   0.564  15.341  0.0841 -1.0409  0.0188
 4017TIP3    H133542   1.033   0.570  15.399 -0.8682  1.1703  1.1588
 4017TIP3    H233543   0.935   0.655  15.320 -0.9799 -1.7054 -2.0212
 4018TIP3   OH233544   0.588   3.829  17.072 -0.4424 -0.1426 -0.0900
 4018TIP3    H133545   0.673   3.787  17.090  0.0697  1.0669  0.4078
 4018TIP3    H233546   0.537   3.760  17.028  0.7879 -0.8987 -0.4157
 4019TIP3   OH233547   3.870   6.546   5.840 -0.1858  0.4340  0.0474
 4019TIP3    H133548   3.788   6.538   5.889  0.1234  1.3887  0.7691
 4019TIP3    H233549   3.866   6.633   5.801  0.4556  0.4737  0.0555
 4020TIP3   OH233550   4.790   6.005   6.171 -0.4090  0.2675  0.4294
 4020TIP3    H133551   4.726   5.997   6.100  0.6829  0.6097 -0.6302
 4020TIP3    H233552   4.850   6.074   6.141 -0.8534  1.5900  2.4341
 4021TIP3   OH233553   4.947   3.374  13.852  0.0611  0.0859 -0.3774
 4021TIP3    H133554   4.871   3.402  13.800 -1.2350 -1.0435  0.8441
 4021TIP3    H233555   5.001   3.325  13.790 -0.2267  0.8274 -1.2447
 4022TIP3   OH233556   4.276   5.185  15.444  0.0085 -0.0746  0.6891
 4022TIP3    H133557   4.206   5.173  15.508 -2.1924  0.8410 -1.3991
 4022TIP3    H233558   4.241   5.147  15.363  0.9822  2.3598 -0.9904
 4023TIP3   OH233559   0.685   6.676  14.282  0.6314 -0.5312 -1.1321
 4023TIP3    H133560   0.773   6.642  14.264  0.0949 -2.0299 -1.1109
 4023TIP3    H233561   0.660   6.634  14.364  0.1473  0.4085 -0.7886
 4024TIP3   OH233562   5.581   2.130   5.236 -0.0217 -0.1439  0.0439
 4024TIP3    H133563   5.676   2.116   5.238  0.3687  1.9868 -0.8906
 4024TIP3    H233564   5.568   2.189   5.162 -1.6486  2.4948  2.2935
 4025TIP3   OH233565   2.148   0.755   6.193  0.0652  0.5867  0.3021
 4025TIP3    H133566   2.061   0.788   6.214 -0.0190  1.2795 -0.9774
 4025TIP3    H233567   2.166   0.791   6.106  0.8855 -1.0270 -0.2315
 4026TIP3   OH233568   0.861   0.370  16.823 -0.2231 -0.0666 -0.5878
 4026TIP3    H133569   0.823   0.298  16.873 -0.0016  0.7300  0.7874
 4026TIP3    H233570   0.826   0.360  16.735  0.0018 -1.9876 -0.4856
 4027TIP3   OH233571   1.363   6.095  16.550 -0.3192 -0.3376  0.3099
 4027TIP3    H133572   1.301   6.166  16.568 -2.2064 -1.7828 -0.1458
 4027TIP3    H233573   1.380   6.102  16.456  1.7852  1.2062  0.7383
 4028TIP3   OH233574   5.664   0.214   4.036  0.3300  0.0129  0.0163
 4028TIP3    H133575   5.642   0.270   3.962 -0.1981 -0.4647 -0.1919
 4028TIP3    H233576   5.687   0.275   4.107  0.4098  0.4760 -0.4049
 4029TIP3   OH233577   5.310   0.396  13.065  0.2795  0.0668 -0.0340
 4029TIP3    H133578   5.233   0.339  13.070 -0.6712  0.9727 -2.6676
 4029TIP3    H233579   5.364   0.357  12.996  0.1370  1.6749 -1.1127
 4030TIP3   OH233580   2.104   2.818  11.580  0.3905 -0.1866 -0.4980
 4030TIP3    H133581   2.008   2.814  11.576  0.3284 -0.3960  0.8641
 4030TIP3    H233582   2.123   2.909  11.602  0.4519 -0.3610  0.1956
 4031TIP3   OH233583   3.765   1.314   5.156 -0.4533 -0.0549 -0.3032
 4031TIP3    H133584   3.831   1.321   5.087  1.1020  0.1463  1.1431
 4031TIP3    H233585   3.764   1.400   5.198 -1.9977  0.0883 -0.5733
 4032TIP3   OH233586   0.588   2.363   0.117  0.7133  0.5327 -0.1672
 4032TIP3    H133587   0.552   2.320   0.039  1.2370 -0.0754 -0.0850
 4032TIP3    H233588   0.671   2.318   0.132 -0.7137 -1.4757  2.5199
 4033TIP3   OH233589   1.160   0.090   2.921 -0.0076 -0.1053  0.1771
 4033TIP3    H133590   1.171   0.082   3.016 -0.3885 -0.2819  0.2046
 4033TIP3    H233591   1.088   0.031   2.899  0.0911 -0.0802 -0.2257
 4034TIP3   OH233592   0.915   4.057  16.391  0.4318  0.0733 -0.2061
 4034TIP3    H133593   0.846   4.024  16.333  0.9929 -2.0495  0.2778
 4034TIP3    H233594   0.871   4.071  16.475  0.4136 -0.5474 -0.1070
 4035TIP3   OH233595   1.626   0.806  11.275 -0.8785  0.4098  0.6294
 4035TIP3    H133596   1.605   0.722  11.233  1.3364  0.7076 -1.2575
 4035TIP3    H233597   1.651   0.863  11.203  0.8209  1.6931  2.1570
 4036TIP3   OH233598   5.396   0.579   0.453  0.4682  0.1379  0.1239
 4036TIP3    H133599   5.425   0.668   0.434 -1.5557  0.7144 -0.5566
 4036TIP3    H233600   5.420   0.564   0.545 -0.0574  1.7906  0.5607
 4037TIP3   OH233601   1.741   5.066   3.617 -0.3941  0.2245  0.2476
 4037TIP3    H133602   1.779   5.137   3.565  0.3007  0.5596  1.1871
 4037TIP3    H233603   1.647   5.073   3.601 -0.3726  1.5901  0.6111
 4038TIP3   OH233604   4.658   3.896   1.090  0.6973  0.0826  0.6089
 4038TIP3    H133605   4.679   3.987   1.112 -0.4727  0.1811  1.3976
 4038TIP3    H233606   4.615   3.901   1.005 -0.6348  0.4507  1.2769
 4039TIP3   OH233607   2.268   3.996  13.876 -0.2232  0.7804 -0.0573
 4039TIP3    H133608   2.284   3.993  13.781  0.2761  1.3990 -0.0000
 4039TIP3    H233609   2.183   4.039  13.885 -0.0727  1.1136 -0.2084
 4040TIP3   OH233610   3.482   1.701   1.061  0.1460 -0.4524  0.1340
 4040TIP3    H133611   3.487   1.609   1.085  1.8619 -0.2787  0.5850
 4040TIP3    H233612   3.390   1.723   1.069 -0.2321 -2.0243  0.4106
 4041TIP3   OH233613   2.479   3.864   3.306  0.1639 -0.1703 -0.3708
 4041TIP3    H133614   2.393   3.829   3.327  0.1803 -0.1993 -0.3520
 4041TIP3    H233615   2.538   3.788   3.309  0.2766 -0.0683  0.1006
 4042TIP3   OH233616   5.493   2.201   4.736  0.1877  0.3376 -0.4998
 4042TIP3    H133617   5.401   2.178   4.750  0.2932  0.6411  0.8626
 4042TIP3    H233618   5.522   2.143   4.666 -1.2041  0.6768 -1.4071
 4043TIP3   OH233619   1.991   4.901   0.789  0.5435  0.9014 -0.1655
 4043TIP3    H133620   2.048   4.896   0.866 -0.0511 -1.4155  0.2091
 4043TIP3    H233621   2.024   4.832   0.731 -0.6449  0.8478 -0.8005
 4044TIP3   OH233622   4.545   1.077   1.227  0.3011 -0.3132 -0.3359
 4044TIP3    H133623   4.547   0.992   1.183 -0.5184 -0.8648  0.6460
 4044TIP3    H233624   4.634   1.088   1.261  0.3204 -0.9595 -0.1597
 4045TIP3   OH233625   2.164   5.178  16.840 -0.6128 -0.1402 -0.3280
 4045TIP3    H133626   2.212   5.182  16.758 -0.4415  0.9918 -0.1888
 4045TIP3    H233627   2.109   5.257  16.840 -2.6380 -1.4772 -0.5666
 4046TIP3   OH233628   2.754   0.888  16.222  0.2287 -0.0588 -0.2156
 4046TIP3    H133629   2.778   0.976  16.193 -1.2950  0.5893  0.3876
 4046TIP3    H233630   2.788   0.881  16.311  1.1811 -0.4606 -0.5948
 4047TIP3   OH233631   0.783   2.521   3.799  0.1295 -0.3947 -0.0649
 4047TIP3    H133632   0.739   2.437   3.809  0.5366 -0.8590 -1.8347
 4047TIP3    H233633   0.731   2.567   3.733  0.7503  0.1347 -0.1886
 4048TIP3   OH233634   1.170   3.271  17.025 -0.5109 -0.1610 -0.5453
 4048TIP3    H133635   1.204   3.361  17.025  4.1894 -1.7019 -1.1086
 4048TIP3    H233636   1.119   3.264  16.944  0.1871  1.6098 -1.1778
 4049TIP3   OH233637   5.913   5.354   5.105  0.1802 -0.5207 -0.3483
 4049TIP3    H133638   5.940   5.439   5.141  0.6393 -0.5122 -0.7005
 4049TIP3    H233639   5.948   5.354   5.016  2.1736 -1.9818  0.3580
 4050TIP3   OH233640   5.996   5.483   4.878 -0.0466  0.2735  0.0072
 4050TIP3    H133641   6.082   5.479   4.918 -0.0330  0.9002  0.0358
 4050TIP3    H233642   5.969   5.574   4.885 -0.7043  0.0894 -0.0228
 4051TIP3   OH233643   6.235   1.938   3.806  0.5033 -0.0512  0.1316
 4051TIP3    H133644   6.164   1.975   3.754  0.4584 -0.3751 -0.0400
 4051TIP3    H233645   6.269   2.012   3.857 -0.4370 -0.0379  0.7762
 4052TIP3   OH233646   6.697   0.119   0.741 -0.2688  0.2407 -0.1133
 4052TIP3    H133647   6.631   0.188   0.737 -0.8712 -0.3346 -0.5111
 4052TIP3    H233648   6.647   0.038   0.727  0.1895 -0.4173  1.8221
 4053TIP3   OH233649   3.736   6.467  11.470 -0.4665 -0.4349 -0.4336
 4053TIP3    H133650   3.805   6.444  11.532 -1.1652  1.4694  1.1484
 4053TIP3    H233651   3.732   6.563  11.472 -1.8102 -0.4057 -2.0026
 4054TIP3   OH233652   0.409   2.757   1.200 -0.0459  0.8414 -0.5130
 4054TIP3    H133653   0.431   2.840   1.242 -2.8662  1.7827 -0.7039
 4054TIP3    H233654   0.424   2.774   1.107  0.3510  0.8016 -0.4566
 4055TIP3   OH233655   1.531   3.235  14.424 -0.3621  0.4266 -0.2373
 4055TIP3    H133656   1.440   3.264  14.433 -0.4818 -0.2183  0.7949
 4055TIP3    H233657   1.527   3.158  14.368 -0.5575 -0.0551  0.4257
 4056TIP3   OH233658   4.511   1.447   5.844 -0.2456  0.0794 -0.1793
 4056TIP3    H133659   4.504   1.530   5.892  0.1688  0.1152 -0.1781
 4056TIP3    H233660   4.486   1.380   5.908  0.2306  0.1349  0.0675
 4057TIP3   OH233661   6.270   4.909   1.211 -0.1069  0.3534 -0.1362
 4057TIP3    H133662   6.206   4.967   1.170 -0.3669 -0.4475 -0.8901
 4057TIP3    H233663   6.348   4.963   1.222 -0.0450  0.6197 -1.6635
 4058TIP3   OH233664   1.952   0.685  12.192 -0.2062  0.1445  0.1123
 4058TIP3    H133665   1.950   0.590  12.190  1.7766  0.0485  0.6947
 4058TIP3    H233666   1.982   0.707  12.280 -1.6343  1.3687  0.3356
 4059TIP3   OH233667   4.904   5.558   2.071 -0.4574  0.3756  0.2589
 4059TIP3    H133668   4.819   5.560   2.027  0.7122 -0.4621 -2.2566
 4059TIP3    H233669   4.912   5.467   2.102  0.8643 -0.6386 -2.6619
 4060TIP3   OH233670   5.618   0.972  12.523 -0.0666 -0.4147 -0.6607
 4060TIP3    H133671   5.602   1.056  12.567  0.4232 -0.6717  0.0187
 4060TIP3    H233672   5.550   0.914  12.556  0.6173 -0.7561  0.1792
 4061TIP3   OH233673   2.441   2.128   5.339 -0.3118 -0.0442  0.1767
 4061TIP3    H133674   2.460   2.117   5.246  0.6463  0.8312  0.2626
 4061TIP3    H233675   2.513   2.084   5.384 -0.4468  0.0720  0.5096
 4062TIP3   OH233676   3.727   3.612   3.694 -0.3646 -0.5941 -0.5633
 4062TIP3    H133677   3.782   3.688   3.715 -1.9269  0.4979 -0.2008
 4062TIP3    H233678   3.716   3.617   3.599 -0.4202 -0.3862 -0.5481
 4063TIP3   OH233679   1.389   5.034   4.939 -0.1886 -0.2121 -0.0783
 4063TIP3    H133680   1.325   4.973   4.904 -0.5961 -0.7744  1.5431
 4063TIP3    H233681   1.357   5.121   4.913 -0.6199 -0.5869 -0.8097
 4064TIP3   OH233682   3.952   6.581  14.071 -0.0181  0.4527 -0.2540
 4064TIP3    H133683   3.868   6.571  14.027  1.0728  0.2551 -2.4051
 4064TIP3    H233684   3.958   6.674  14.091 -0.5231  0.5605 -0.5991
 4065TIP3   OH233685   5.872   0.344  16.026  0.0045  0.2880 -0.7499
 4065TIP3    H133686   5.777   0.345  16.019 -0.2006  1.6193  1.2297
 4065TIP3    H233687   5.903   0.374  15.941 -1.4527  1.9875 -0.7426
 4066TIP3   OH233688   6.100   5.544   5.185  0.1191  0.3549  0.3435
 4066TIP3    H133689   6.178   5.526   5.133  0.7429 -0.0480  1.3846
 4066TIP3    H233690   6.116   5.500   5.269 -0.6370  1.3966  1.0596
 4067TIP3   OH233691   2.004   4.069  13.651  0.0958 -0.2757 -0.5022
 4067TIP3    H133692   1.965   4.126  13.716  0.9938  1.4652 -1.4210
 4067TIP3    H233693   2.082   4.116  13.620  0.9379 -2.0387 -1.2411
 4068TIP3   OH233694   4.900   3.318  14.571  0.3848  0.4406  0.3511
 4068TIP3    H133695   4.905   3.412  14.559  1.3519  0.2740 -0.7059
 4068TIP3    H233696   4.989   3.291  14.592  0.5097 -0.4450 -1.1381
 4069TIP3   OH233697   4.650   5.667   5.759  0.1549  0.2873  0.1222
 4069TIP3    H133698   4.667   5.736   5.823 -0.4307  0.9515 -0.4181
 4069TIP3    H233699   4.689   5.698   5.678 -1.0551  0.5096 -0.4050
 4070TIP3   OH233700   1.432   0.599   0.258  0.0505 -0.0235  0.4417
 4070TIP3    H133701   1.349   0.553   0.270 -0.9221  1.6416  0.3567
 4070TIP3    H233702   1.459   0.623   0.346 -0.6709  1.2676  0.3379
 4071TIP3   OH233703   4.294   3.769  14.013 -0.7775  0.3036  0.1274
 4071TIP3    H133704   4.386   3.744  14.006 -1.2334 -1.2469 -0.7247
 4071TIP3    H233705   4.260   3.718  14.086 -1.0401  0.6690  0.2668
 4072TIP3   OH233706   5.532   4.566   1.941  0.3010  0.3014 -0.3608
 4072TIP3    H133707   5.528   4.662   1.941 -0.1953  0.2897  0.6323
 4072TIP3    H233708   5.626   4.546   1.945  0.5562  0.7070 -2.7344
 4073TIP3   OH233709   1.498   2.412  10.954 -0.7733 -0.5964 -0.1994
 4073TIP3    H133710   1.415   2.368  10.939 -0.8852 -0.3555 -0.2939
 4073TIP3    H233711   1.476   2.505  10.954 -0.8200 -0.5773  1.7232
 4074TIP3   OH233712   6.226   6.112  15.775 -0.3791  0.2224 -0.5079
 4074TIP3    H133713   6.259   6.024  15.794 -2.3383  0.0204  2.7279
 4074TIP3    H233714   6.289   6.170  15.817 -1.7258  0.0184  1.9856
 4075TIP3   OH233715   5.354   4.190   3.907  0.1528 -0.4063 -0.3747
 4075TIP3    H133716   5.402   4.111   3.932 -0.1160 -0.3238  0.4256
 4075TIP3    H233717   5.264   4.159   3.893  0.3117 -0.4648 -1.3430
 4076TIP3   OH233718   3.372   3.718  11.200 -0.2504  0.2662 -0.8014
 4076TIP3    H133719   3.296   3.698  11.255 -0.6381  1.6929 -0.8015
 4076TIP3    H233720   3.376   3.645  11.138  1.2309 -2.3815  2.0758
 4077TIP3   OH233721   5.738   0.671  12.198 -0.2960  0.9679  0.2742
 4077TIP3    H133722   5.778   0.625  12.124 -3.4764 -0.2875 -0.8580
 4077TIP3    H233723   5.807   0.728  12.231  2.5184 -1.4213 -1.0469
 4078TIP3   OH233724   3.778   1.530  14.053  0.6330  0.1136 -0.3165
 4078TIP3    H133725   3.713   1.541  13.984 -0.0191  0.0189  0.2695
 4078TIP3    H233726   3.727   1.503  14.129  1.5213 -1.4496 -0.2323
 4079TIP3   OH233727   1.186   2.351   0.287  0.3122 -0.2858  0.1438
 4079TIP3    H133728   1.234   2.361   0.369 -0.2906 -0.1188  0.4911
 4079TIP3    H233729   1.098   2.323   0.315  0.0073  0.0796 -0.4207
 4080TIP3   OH233730   0.024   5.403  10.753 -0.1606 -0.3114 -0.6609
 4080TIP3    H133731   0.116   5.417  10.775 -1.3017  3.3604  3.0944
 4080TIP3    H233732  -0.006   5.337  10.815 -0.8320  1.5656  1.1255
 4081TIP3   OH233733   4.305   6.693   4.559 -0.0386  0.5357 -0.0261
 4081TIP3    H133734   4.334   6.607   4.587 -0.4112  0.7422  1.0516
 4081TIP3    H233735   4.368   6.720   4.493 -0.5525 -1.0291 -1.2152
 4082TIP3   OH233736   0.728   2.164  15.934 -0.0062 -0.1737  0.1804
 4082TIP3    H133737   0.636   2.182  15.953 -0.0814 -0.0127 -0.3330
 4082TIP3    H233738   0.729   2.134  15.843  0.1884 -2.1809  0.7818
 4083TIP3   OH233739   4.724   1.882   0.221 -0.0900 -0.4966 -0.2535
 4083TIP3    H133740   4.762   1.851   0.139 -0.0330  0.4310 -0.5969
 4083TIP3    H233741   4.748   1.816   0.286  0.4784 -0.8791 -0.8405
 4084TIP3   OH233742   2.368   6.662  16.981  0.2141 -0.3786 -0.0767
 4084TIP3    H133743   2.463   6.666  16.971  0.1198  0.7510 -0.6356
 4084TIP3    H233744   2.342   6.752  17.003 -0.6530 -0.8120  0.7344
 4085TIP3   OH233745   2.975   2.788   1.609  0.0725 -0.3630  0.3947
 4085TIP3    H133746   2.981   2.711   1.665 -1.6173 -1.1339 -0.4116
 4085TIP3    H233747   3.065   2.807   1.583  0.4241 -2.9057 -0.4565
 4086TIP3   OH233748   2.295   1.614   2.520 -0.5413  0.3613 -0.3874
 4086TIP3    H133749   2.216   1.649   2.559 -0.2049 -1.0491  1.7324
 4086TIP3    H233750   2.264   1.563   2.444 -2.0567 -2.2059  1.7721
 4087TIP3   OH233751   5.115   1.415   1.443 -0.1834 -0.2316  0.3267
 4087TIP3    H133752   5.093   1.396   1.534 -3.5582  0.0338 -0.3177
 4087TIP3    H233753   5.079   1.503   1.428 -1.5433 -1.0733 -1.7571
 4088TIP3   OH233754   5.745   2.831  12.056  0.0853  0.1363 -0.5443
 4088TIP3    H133755   5.704   2.888  11.991  0.2828  2.1018  0.9536
 4088TIP3    H233756   5.741   2.881  12.137  1.4251 -1.4979  0.5966
 4089TIP3   OH233757   3.137   1.181   2.404  0.4280  0.8055 -0.0605
 4089TIP3    H133758   3.204   1.236   2.364  2.0234 -1.2287 -0.3487
 4089TIP3    H233759   3.181   1.137   2.476 -0.3483 -1.1665 -0.7196
 4090TIP3   OH233760   0.432   3.426   4.365 -0.4775 -0.2984 -0.0671
 4090TIP3    H133761   0.449   3.339   4.402  1.1055 -0.4976 -1.1178
 4090TIP3    H233762   0.477   3.424   4.280 -0.0957  1.6609  0.0448
 4091TIP3   OH233763   4.303   3.667  12.883  0.4145  0.6665  0.8379
 4091TIP3    H133764   4.274   3.599  12.944  0.7203  0.3735  0.6598
 4091TIP3    H233765   4.328   3.741  12.938 -2.1376  1.5364  0.9635
 4092TIP3   OH233766   0.062   3.392  15.711 -0.3398  0.1283  0.0566
 4092TIP3    H133767   0.099   3.455  15.649 -1.2645  0.7941  0.1729
 4092TIP3    H233768   0.070   3.307  15.667 -0.3698  0.5077 -0.6868
 4093TIP3   OH233769   4.901   5.830  17.123 -0.2840 -0.0536 -0.0532
 4093TIP3    H133770   4.843   5.788  17.186 -1.1738  0.2235 -0.6749
 4093TIP3    H233771   4.935   5.907  17.168 -1.7517  0.7462 -0.2447
 4094TIP3   OH233772   5.257   4.138   1.576  0.2422 -0.0406  0.5553
 4094TIP3    H133773   5.278   4.083   1.651 -0.9537 -0.1954  0.8004
 4094TIP3    H233774   5.286   4.088   1.500  0.9515 -0.1293  0.8818
 4095TIP3   OH233775   3.318   5.686   4.847  0.3528 -0.2134 -0.5344
 4095TIP3    H133776   3.382   5.741   4.803 -0.0871  1.4332  0.7759
 4095TIP3    H233777   3.358   5.665   4.932 -0.8066  0.8450  0.3029
 4096TIP3   OH233778   3.889   1.330   1.029 -0.3151 -0.0398  0.3387
 4096TIP3    H133779   3.934   1.255   0.990 -0.9907  0.0304 -0.6071
 4096TIP3    H233780   3.906   1.322   1.123  0.1478 -1.0260  0.1830
 4097TIP3   OH233781   0.049   6.710  14.504 -0.6965 -0.6796  0.3830
 4097TIP3    H133782  -0.033   6.685  14.462 -0.6605 -2.2525  1.1852
 4097TIP3    H233783   0.023   6.762  14.580 -0.8639  0.1202 -0.2098
 4098TIP3   OH233784   0.534   5.434   2.810  0.1985 -0.5131 -0.7728
 4098TIP3    H133785   0.586   5.392   2.878  0.8113 -0.2437 -1.0695
 4098TIP3    H233786   0.596   5.451   2.739  0.4228  2.4871 -0.0006
 4099TIP3   OH233787   1.640   5.711   6.130 -0.1042  0.1055 -0.0094
 4099TIP3    H133788   1.598   5.730   6.046  0.1367 -0.9824 -0.3965
 4099TIP3    H233789   1.660   5.797   6.167  0.5866  0.6226 -1.4855
 4100TIP3   OH233790   1.244   4.631  14.279  0.3765 -0.1465  0.3556
 4100TIP3    H133791   1.155   4.597  14.279  0.8932 -1.7589 -2.2179
 4100TIP3    H233792   1.290   4.577  14.343  0.2634 -1.6951 -0.8261
 4101TIP3   OH233793   3.688   6.547  14.469  0.1495 -0.0776  0.3109
 4101TIP3    H133794   3.618   6.518  14.527 -0.8058  1.9695  0.2731
 4101TIP3    H233795   3.768   6.537  14.520 -0.2959 -1.2829  0.8012
 4102TIP3   OH233796   1.822   4.071   2.378 -0.0736  0.3599 -0.3343
 4102TIP3    H133797   1.911   4.057   2.410 -0.8237  1.4321  2.4975
 4102TIP3    H233798   1.813   4.166   2.372 -1.6269  0.3696  1.4609
 4103TIP3   OH233799   3.356   4.148  12.190 -0.8709  0.1646  0.2200
 4103TIP3    H133800   3.436   4.198  12.171 -1.6795  2.0696  1.5450
 4103TIP3    H233801   3.387   4.076  12.246  0.5852 -2.0475 -3.1252
 4104TIP3   OH233802   5.958   5.848  15.921 -0.7046  0.3139 -0.6351
 4104TIP3    H133803   5.872   5.827  15.957  0.1448  0.0587  1.4085
 4104TIP3    H233804   5.992   5.916  15.980  0.2963  0.7850 -1.7193
 4105TIP3   OH233805   0.948   3.410  14.195  0.8569  0.0485 -0.0969
 4105TIP3    H133806   0.995   3.396  14.113 -0.5153 -0.3488 -0.8383
 4105TIP3    H233807   0.900   3.328  14.210 -1.0029  1.0427 -0.3180
 4106TIP3   OH233808   2.937   1.981  14.346 -0.4807 -0.2954  0.4283
 4106TIP3    H133809   2.870   1.932  14.298 -0.8980 -0.1274  0.8304
 4106TIP3    H233810   3.001   1.915  14.373 -0.7411 -0.5338  0.4681
 4107TIP3   OH233811   0.034   0.289  12.769  0.3874  1.1435 -0.2698
 4107TIP3    H133812   0.072   0.220  12.714 -0.6887  0.3359 -0.0201
 4107TIP3    H233813  -0.038   0.324  12.716 -0.3990  0.6353  0.4532
 4108TIP3   OH233814   3.378   4.302   2.958  0.5873 -0.2312 -0.2898
 4108TIP3    H133815   3.343   4.242   2.892  2.4584 -0.9076 -0.7128
 4108TIP3    H233816   3.416   4.244   3.024  0.7011  0.4812  0.2686
 4109TIP3   OH233817   3.423   3.007  14.049  0.3927  0.1267 -0.3555
 4109TIP3    H133818   3.458   3.095  14.065  0.0054  0.4803 -1.3945
 4109TIP3    H233819   3.490   2.948  14.084 -0.2768  0.8083  2.3067
 4110TIP3   OH233820   4.771   1.863  16.708 -0.0541 -0.4999 -0.0487
 4110TIP3    H133821   4.724   1.932  16.755  1.8394  0.2243  0.8365
 4110TIP3    H233822   4.732   1.782  16.740  0.4674  0.0099  2.0270
 4111TIP3   OH233823   0.817   1.487  13.774  0.4583 -0.2432  0.1065
 4111TIP3    H133824   0.762   1.541  13.830 -0.3423  0.8125 -1.6020
 4111TIP3    H233825   0.906   1.517  13.792  0.1894  0.3136  0.5636
 4112TIP3   OH233826   4.845   2.037   2.285 -0.1407 -0.5498 -0.0984
 4112TIP3    H133827   4.897   1.961   2.313  0.5712  0.7465  2.3345
 4112TIP3    H233828   4.812   2.075   2.366  0.2228  2.2431 -1.1550
 4113TIP3   OH233829   4.949   0.931  14.541 -0.0024 -0.3765 -0.1294
 4113TIP3    H133830   5.030   0.913  14.589  0.5983 -0.2755 -1.0668
 4113TIP3    H233831   4.887   0.867  14.575  0.1108  0.3230  1.4531
 4114TIP3   OH233832   5.231   0.511  16.846  0.3034 -0.0740  0.5014
 4114TIP3    H133833   5.322   0.537  16.834  0.3254 -0.1078  0.5972
 4114TIP3    H233834   5.181   0.571  16.791  0.2722  0.7848  1.4413
 4115TIP3   OH233835   1.619   2.095   4.812 -0.2815 -0.6166  0.1763
 4115TIP3    H133836   1.583   2.159   4.874 -0.1130 -0.4673  0.1200
 4115TIP3    H233837   1.572   2.112   4.730  0.1842 -0.1619 -0.0054
 4116TIP3   OH233838   5.818   2.026   5.199  0.2107  0.4060  0.2107
 4116TIP3    H133839   5.830   1.981   5.116  0.1685 -1.6153  1.2416
 4116TIP3    H233840   5.907   2.051   5.225  0.6437 -1.6470  0.9294
 4117TIP3   OH233841   2.038   6.157  17.114  0.1481  0.0325  0.1908
 4117TIP3    H133842   2.119   6.207  17.127  0.4871 -0.8886  2.0671
 4117TIP3    H233843   1.998   6.153  17.201 -0.9683 -1.0933 -0.3373
 4118TIP3   OH233844   3.391   2.772   1.282 -0.1921  0.1570  0.0562
 4118TIP3    H133845   3.474   2.794   1.324 -0.6279 -0.5211  1.3444
 4118TIP3    H233846   3.388   2.676   1.282 -0.9342  0.1709 -0.0364
 4119TIP3   OH233847   2.213   5.196   3.124 -0.5664 -0.2931 -0.2229
 4119TIP3    H133848   2.124   5.161   3.126  0.0559 -1.9794 -0.3132
 4119TIP3    H233849   2.252   5.158   3.046  0.2771  0.3090 -0.1052
 4120TIP3   OH233850   5.461   0.265  14.164 -0.1594 -0.4853  0.6860
 4120TIP3    H133851   5.457   0.209  14.087  2.0703 -0.0827  0.2090
 4120TIP3    H233852   5.425   0.211  14.235 -1.0358 -1.3324 -0.3707
 4121TIP3   OH233853   1.539   6.613  12.782  0.5143 -0.3991  0.0764
 4121TIP3    H133854   1.574   6.575  12.701 -0.2282 -0.6547 -0.1309
 4121TIP3    H233855   1.610   6.669  12.815  0.4496  0.5431 -1.2969
 4122TIP3   OH233856   3.197   2.378  15.488 -0.1974 -0.0206 -0.3464
 4122TIP3    H133857   3.178   2.470  15.472  2.4988  0.5164 -0.8391
 4122TIP3    H233858   3.149   2.331  15.420  0.1282  1.2050 -1.4563
 4123TIP3   OH233859   5.181   3.840   2.048  0.0576  0.2742  0.1704
 4123TIP3    H133860   5.164   3.754   2.009 -0.0473  0.8889 -1.1938
 4123TIP3    H233861   5.156   3.829   2.140 -0.6444 -0.9479 -0.1296
 4124TIP3   OH233862   6.591   4.777  13.950 -0.1086 -0.0002  0.2035
 4124TIP3    H133863   6.542   4.712  14.000 -0.4373  1.0244  1.2654
 4124TIP3    H233864   6.589   4.745  13.860  0.1624 -1.6937  0.7648
 4125TIP3   OH233865   6.676   5.009  13.699 -0.2986  0.0128  0.0024
 4125TIP3    H133866   6.625   4.990  13.778 -0.3782  0.6007  0.0908
 4125TIP3    H233867   6.611   5.025  13.631 -0.2672 -2.0927 -0.6104
 4126TIP3   OH233868   6.043   0.481   1.764  0.2828 -0.1763  0.6043
 4126TIP3    H133869   6.131   0.463   1.731 -0.5603 -1.7186 -0.9539
 4126TIP3    H233870   6.047   0.571   1.796  1.7115  0.7413 -1.9303
 4127TIP3   OH233871   0.321   6.447   2.169 -0.2385  0.2894 -0.0716
 4127TIP3    H133872   0.410   6.452   2.133 -0.1177  0.1012  0.1951
 4127TIP3    H233873   0.279   6.377   2.119 -0.5157  0.9531 -0.7862
 4128TIP3   OH233874   2.469   5.243   2.168  0.3175  0.8202 -0.6694
 4128TIP3    H133875   2.466   5.157   2.125 -1.0816  0.3687  0.2744
 4128TIP3    H233876   2.548   5.241   2.221 -1.8646 -1.7387  2.9021
 4129TIP3   OH233877   0.561   5.332  16.348  0.0302  0.4749  0.1620
 4129TIP3    H133878   0.637   5.377  16.385  2.2626 -2.4882 -0.4631
 4129TIP3    H233879   0.510   5.402  16.307  1.4433  2.8216  2.0919
 4130TIP3   OH233880   1.410   4.254   2.305  0.2916 -0.1621 -0.8016
 4130TIP3    H133881   1.344   4.241   2.374 -0.4773 -1.0253 -1.6591
 4130TIP3    H233882   1.405   4.173   2.253  0.6700  0.5788 -2.0150
 4131TIP3   OH233883   4.102   2.938  11.052 -0.1025  0.2846 -0.0505
 4131TIP3    H133884   4.173   2.956  10.990 -0.8922 -1.0986 -1.4119
 4131TIP3    H233885   4.054   2.865  11.013 -0.3789 -0.9494  2.4077
 4132TIP3   OH233886   1.464   2.675  11.060 -0.2500  0.3356  0.1179
 4132TIP3    H133887   1.483   2.768  11.070  0.2612  0.1732  0.7184
 4132TIP3    H233888   1.479   2.638  11.147 -2.1991 -0.0158  0.3530
 4133TIP3   OH233889   4.802   0.385  12.323 -0.1285  0.0337 -0.4427
 4133TIP3    H133890   4.744   0.395  12.399  1.0390  1.5429  0.3062
 4133TIP3    H233891   4.801   0.472  12.282  0.2415 -0.4216 -1.4463
 4134TIP3   OH233892   5.562   5.676   4.998  0.0770  0.4585 -0.0944
 4134TIP3    H133893   5.493   5.688   4.933 -0.4357 -0.7539  0.2046
 4134TIP3    H233894   5.583   5.582   4.994 -1.6224 -0.1929  3.0908
 4135TIP3   OH233895   3.166   4.861  16.964  0.3096  0.1879 -0.0115
 4135TIP3    H133896   3.213   4.922  17.020  0.6583  0.1203 -0.2299
 4135TIP3    H233897   3.135   4.914  16.890 -2.1220  0.7806  1.3293
 4136TIP3   OH233898   5.175   6.682   1.604  0.0453 -0.9636 -0.4381
 4136TIP3    H133899   5.235   6.746   1.565  0.1556 -0.3271  0.7313
 4136TIP3    H233900   5.176   6.702   1.697 -0.8953 -1.8746 -0.2147
 4137TIP3   OH233901   6.065   3.481  16.716  0.1728 -0.2723 -0.0915
 4137TIP3    H133902   6.119   3.514  16.644  0.9119 -0.6986  0.2580
 4137TIP3    H233903   6.047   3.559  16.769 -0.9340  0.1630 -1.0823
 4138TIP3   OH233904   4.904   0.512   0.871 -0.4858  0.2531 -0.0159
 4138TIP3    H133905   4.985   0.471   0.839 -1.4403 -2.6590  0.9574
 4138TIP3    H233906   4.846   0.514   0.795 -1.0880 -2.2184  0.2667
 4139TIP3   OH233907   5.121   4.681  16.553 -0.5294  0.2978 -0.6098
 4139TIP3    H133908   5.141   4.762  16.599 -1.3205 -0.1812  0.6140
 4139TIP3    H233909   5.114   4.707  16.461 -2.4959  1.9892 -0.0700
 4140TIP3   OH233910   6.074   2.964   6.433  0.2733  0.4053 -0.4376
 4140TIP3    H133911   6.159   2.920   6.426  0.9781  1.6874 -0.2209
 4140TIP3    H233912   6.078   3.010   6.517  0.3360  2.4371 -1.5011
 4141TIP3   OH233913   1.398   5.263  16.261  0.6832 -0.6912  0.3680
 4141TIP3    H133914   1.362   5.186  16.306  1.1927 -0.2668  1.5616
 4141TIP3    H233915   1.345   5.336  16.295  0.0144 -0.5316 -0.9705
 4142TIP3   OH233916   2.009   4.762   0.424 -0.2878  0.3008 -1.0460
 4142TIP3    H133917   2.037   4.685   0.375  1.7645 -0.4569  1.1059
 4142TIP3    H233918   2.089   4.812   0.438 -0.9045  0.8904  0.7484
 4143TIP3   OH233919   4.946   2.314   3.112  0.4113  0.2450 -0.0727
 4143TIP3    H133920   4.928   2.405   3.087  0.7763  0.7665  1.4851
 4143TIP3    H233921   4.935   2.265   3.031 -1.0146  1.5020 -0.6918
 4144TIP3   OH233922   5.345   3.990  16.791 -0.8820 -0.0928 -0.1533
 4144TIP3    H133923   5.291   3.927  16.839 -1.3249  0.2597 -0.1894
 4144TIP3    H233924   5.318   3.980  16.700 -0.5093 -0.2896 -0.2449
 4145TIP3   OH233925   2.206   1.789  15.784  0.2019 -0.2964 -0.1195
 4145TIP3    H133926   2.178   1.698  15.794  0.2309 -0.2403  0.5177
 4145TIP3    H233927   2.198   1.807  15.690 -0.1082 -0.8569 -0.2025
 4146TIP3   OH233928   6.022   5.298   3.632 -0.0153  0.3213 -0.2031
 4146TIP3    H133929   5.983   5.283   3.718 -0.1349  1.0017 -0.1300
 4146TIP3    H233930   6.013   5.214   3.587 -3.0841  0.8103 -0.7791
 4147TIP3   OH233931   0.326   0.377  13.440 -0.4593  0.3455 -0.5158
 4147TIP3    H133932   0.301   0.351  13.529  1.3618 -0.0813 -0.0819
 4147TIP3    H233933   0.419   0.399  13.447 -0.3613  0.6236 -2.2594
 4148TIP3   OH233934   0.285   5.621  13.327 -0.3201 -0.4031 -0.7674
 4148TIP3    H133935   0.219   5.645  13.391  1.9989 -0.3020  1.7598
 4148TIP3    H233936   0.300   5.528  13.341 -0.4462 -0.5963 -1.8390
 4149TIP3   OH233937   1.523   2.070  12.632  0.2148 -0.3666  0.0261
 4149TIP3    H133938   1.441   2.021  12.622  1.0299 -1.6374 -0.5341
 4149TIP3    H233939   1.588   2.019  12.585  1.1993  1.0159 -0.1697
 4150TIP3   OH233940   6.259   4.485  14.485  0.2174  0.3727 -0.0975
 4150TIP3    H133941   6.186   4.444  14.437  1.5744 -1.1558 -0.9764
 4150TIP3    H233942   6.324   4.503  14.417  2.7809 -3.1110  1.1667
 4151TIP3   OH233943   0.905   4.933  17.073  0.0374  0.0245 -0.0518
 4151TIP3    H133944   0.846   4.959  17.144 -1.1403  0.7282 -1.2432
 4151TIP3    H233945   0.970   5.003  17.069 -0.9475  0.9262 -0.8132
 4152TIP3   OH233946   6.530   2.811   5.643  0.3360 -0.3242  0.0259
 4152TIP3    H133947   6.574   2.884   5.599 -2.8305  0.7162 -1.7633
 4152TIP3    H233948   6.570   2.733   5.605  0.3709  0.5648 -1.9250
 4153TIP3   OH233949   0.548   2.269  13.004 -0.3151 -0.3029 -0.5695
 4153TIP3    H133950   0.602   2.221  12.942 -0.1445  1.2346 -1.6830
 4153TIP3    H233951   0.459   2.261  12.970 -0.3930 -0.4699 -0.3277
 4154TIP3   OH233952   4.164   2.352   1.475 -0.2193 -0.3953  0.5883
 4154TIP3    H133953   4.191   2.443   1.486 -2.7707  0.7028 -1.2654
 4154TIP3    H233954   4.244   2.306   1.450  0.8737  1.6368  0.1111
 4155TIP3   OH233955   1.484   6.271   6.003 -0.2188  0.1612 -0.5102
 4155TIP3    H133956   1.405   6.325   6.005 -0.8898 -0.7418 -1.4085
 4155TIP3    H233957   1.508   6.267   5.910  1.5907  1.3773 -0.1405
 4156TIP3   OH233958   2.435   0.630  16.508  0.1034  0.1449  0.0310
 4156TIP3    H133959   2.502   0.573  16.470  0.4098 -0.5514  1.5396
 4156TIP3    H233960   2.352   0.600  16.469  0.4132 -0.4985 -0.1368
 4157TIP3   OH233961   2.935   6.810  12.553 -0.3405  0.1450 -0.1469
 4157TIP3    H133962   2.869   6.741  12.548  0.8859 -1.3304  2.1247
 4157TIP3    H233963   2.954   6.832  12.462 -0.9888 -2.3347 -0.9642
 4158TIP3   OH233964   0.266   6.393   1.729 -0.0861 -0.3220 -0.2210
 4158TIP3    H133965   0.188   6.366   1.679  0.2924  0.2198 -1.1319
 4158TIP3    H233966   0.275   6.487   1.710  2.2974 -0.8558 -2.3430
 4159TIP3   OH233967   1.233   4.789  12.430  0.0796  0.4539 -0.4961
 4159TIP3    H133968   1.267   4.753  12.512 -0.3410  0.1845 -0.4392
 4159TIP3    H233969   1.305   4.844  12.397  1.0241 -0.9925 -0.9627
 4160TIP3   OH233970   3.107   6.494  13.758  0.3299  0.4989  0.2753
 4160TIP3    H133971   3.168   6.566  13.742  1.9843 -0.8951  0.0122
 4160TIP3    H233972   3.140   6.421  13.705 -0.8760 -0.6709  1.0518
 4161TIP3   OH233973   0.546   4.484   0.969  0.1105 -0.1313 -0.0886
 4161TIP3    H133974   0.549   4.396   0.932  0.8535 -0.0567 -0.2285
 4161TIP3    H233975   0.511   4.472   1.057  1.2302 -0.7181  0.2964
 4162TIP3   OH233976   2.159   3.077   0.231  0.4328 -0.0051 -0.3526
 4162TIP3    H133977   2.140   3.144   0.165  0.7207 -2.2488 -2.8787
 4162TIP3    H233978   2.076   3.062   0.276 -0.0485  0.7960 -0.9656
 4163TIP3   OH233979   0.569   6.663  12.955  0.5377 -0.0391 -0.0569
 4163TIP3    H133980   0.649   6.627  12.994  0.1588 -1.1575 -0.2708
 4163TIP3    H233981   0.508   6.670  13.029  0.4399 -0.3273 -0.1120
 4164TIP3   OH233982   0.552   6.038   4.307  0.3001  0.6049 -0.2009
 4164TIP3    H133983   0.633   6.008   4.267  0.7973  2.1047 -0.3789
 4164TIP3    H233984   0.483   6.000   4.253  0.9228  0.7391 -1.1171
 4165TIP3   OH233985   6.166   5.834  12.765 -0.1275  0.2417  0.1642
 4165TIP3    H133986   6.087   5.837  12.711  0.3475 -1.2090 -0.6634
 4165TIP3    H233987   6.232   5.796  12.708  0.5921 -0.6260  1.5304
 4166TIP3   OH233988   4.206   2.518  16.922  0.5737  0.1706  0.3478
 4166TIP3    H133989   4.221   2.612  16.926  0.5485  0.3777 -2.6834
 4166TIP3    H233990   4.157   2.499  17.002 -0.1390  2.8613  0.6573
 4167TIP3   OH233991   1.522   2.411  13.071  0.2763 -0.0746 -0.4661
 4167TIP3    H133992   1.529   2.448  12.984  2.5883 -2.6037 -1.4861
 4167TIP3    H233993   1.604   2.434  13.115  1.8208 -3.6400 -1.1486
 4168TIP3   OH233994   6.605   1.914  12.724 -0.3255  0.3365  0.0587
 4168TIP3    H133995   6.599   1.840  12.784 -0.7261  1.1054  0.9942
 4168TIP3    H233996   6.588   1.991  12.779 -2.7131  0.9399 -1.3717
 4169TIP3   OH233997   1.076   0.409  12.942 -0.2217  0.4132 -0.2322
 4169TIP3    H133998   1.040   0.396  12.854 -0.1438 -0.2131 -0.1786
 4169TIP3    H233999   1.154   0.354  12.944 -1.5248 -1.5174  1.0177
 4170TIP3   OH234000   3.021   0.262  16.649 -0.1425  0.0108  0.3989
 4170TIP3    H134001   3.058   0.237  16.734 -0.3258 -2.0648 -0.0830
 4170TIP3    H234002   3.094   0.254  16.588 -0.1785  0.8576  0.2292
 4171TIP3   OH234003   4.791   6.692  10.446 -0.3516 -0.0393  0.0123
 4171TIP3    H134004   4.844   6.660  10.373  0.0568 -0.7069  0.5906
 4171TIP3    H234005   4.806   6.629  10.516 -0.0027  1.0839  0.9851
 4172TIP3   OH234006   0.205   3.999   3.418  0.1572 -0.2504  0.0961
 4172TIP3    H134007   0.152   4.078   3.423 -0.6354 -0.7890  0.4282
 4172TIP3    H234008   0.232   3.983   3.509  1.0885  0.1404 -0.0985
 4173TIP3   OH234009   0.272   4.089  12.489  0.0703  0.2062 -0.4552
 4173TIP3    H134010   0.217   4.136  12.551  1.4889  0.8938  0.3343
 4173TIP3    H234011   0.299   4.010  12.535 -2.7796 -1.8535 -1.9770
 4174TIP3   OH234012   6.378   4.612  11.009 -0.2772  0.3643  0.0507
 4174TIP3    H134013   6.409   4.685  10.955  0.3753  0.1123  0.0755
 4174TIP3    H234014   6.382   4.646  11.098  1.9575 -0.3337  0.2640
 4175TIP3   OH234015   5.964   4.921  12.678  0.0354  0.4955  0.4385
 4175TIP3    H134016   5.885   4.871  12.696 -0.0799 -0.1321 -1.5517
 4175TIP3    H234017   6.023   4.858  12.637  0.4620  1.6174 -0.7340
 4176TIP3   OH234018   0.742   0.605   4.825 -0.7085 -0.9666 -0.3613
 4176TIP3    H134019   0.786   0.596   4.740 -2.1202 -0.2185 -1.2201
 4176TIP3    H234020   0.695   0.688   4.818 -0.9944 -0.9836  1.1087
 4177TIP3   OH234021   0.710   2.973   1.268 -0.0620 -0.4243 -0.2296
 4177TIP3    H134022   0.767   3.033   1.315 -0.9893 -0.4217  0.9417
 4177TIP3    H234023   0.677   2.913   1.335 -2.0699  0.0852 -0.6981
 4178TIP3   OH234024   3.670   1.369  12.588  0.1653  0.1127 -0.1271
 4178TIP3    H134025   3.739   1.435  12.575 -1.8519  2.6481  1.0983
 4178TIP3    H234026   3.696   1.323  12.668  0.3991  1.1508  0.4142
 4179TIP3   OH234027   3.900   5.124  16.362  0.3949 -0.0600  0.1271
 4179TIP3    H134028   3.961   5.184  16.319  1.8285 -1.2561  0.4070
 4179TIP3    H234029   3.883   5.055  16.298  0.1804 -0.2841  0.4172
 4180TIP3   OH234030   0.209   1.732  12.529  0.2464 -0.3524  0.5650
 4180TIP3    H134031   0.121   1.749  12.562 -0.0005  0.3625 -0.4130
 4180TIP3    H234032   0.197   1.666  12.461  0.4943 -0.3710  0.5378
 4181TIP3   OH234033   5.211   6.401   6.118  0.1245  0.1548  0.5003
 4181TIP3    H134034   5.145   6.403   6.187 -0.0581  1.1173  0.3154
 4181TIP3    H234035   5.294   6.385   6.165  0.0439  1.0811  0.9909
 4182TIP3   OH234036   4.110   3.324  10.785  0.2506  0.4675 -0.1927
 4182TIP3    H134037   4.118   3.288  10.696 -0.7859  0.4308 -0.2890
 4182TIP3    H234038   4.193   3.303  10.827  0.1734 -0.8860 -0.6671
 4183TIP3   OH234039   6.276   0.452   0.445  0.1076 -0.3568 -0.1963
 4183TIP3    H134040   6.283   0.412   0.531 -0.3594  1.5484  0.7963
 4183TIP3    H234041   6.223   0.531   0.460 -0.4400 -0.2526 -2.3301
 4184TIP3   OH234042   5.446   3.309   5.603  0.5098 -0.3813  0.0066
 4184TIP3    H134043   5.432   3.404   5.602  4.6788  0.4199 -1.1565
 4184TIP3    H234044   5.400   3.279   5.681 -0.7832  2.6078  0.5458
 4185TIP3   OH234045   2.980   5.186  15.986 -0.4422 -0.6482  0.5351
 4185TIP3    H134046   2.914   5.175  15.917  0.1980 -1.7999  0.0721
 4185TIP3    H234047   2.953   5.125  16.054  0.8026 -2.0589 -0.1936
 4186TIP3   OH234048   5.289   3.413  12.097 -0.1036 -0.2993 -0.3618
 4186TIP3    H134049   5.365   3.426  12.154  1.5203 -3.2509 -1.6458
 4186TIP3    H234050   5.318   3.443  12.011 -0.8132 -0.3868 -0.6387
 4187TIP3   OH234051   4.140   3.682  17.044 -0.3604  0.0597  0.4399
 4187TIP3    H134052   4.078   3.647  16.981  1.0148 -1.1181 -0.3170
 4187TIP3    H234053   4.205   3.728  16.991  0.2571 -0.0646  1.0720
 4188TIP3   OH234054   1.317   4.232  11.544  0.3468  0.2717  0.2768
 4188TIP3    H134055   1.375   4.161  11.568  0.4435  0.2325 -0.0734
 4188TIP3    H234056   1.231   4.191  11.534  0.1801  0.3890  1.1443
 4189TIP3   OH234057   4.824   2.450   2.581 -0.6311 -0.0609  0.4258
 4189TIP3    H134058   4.850   2.458   2.672 -0.9026 -0.2759  0.5248
 4189TIP3    H234059   4.861   2.527   2.538 -0.9475  0.3155  0.8187
 4190TIP3   OH234060   4.102   5.125  15.253 -0.0889  0.2980 -0.4203
 4190TIP3    H134061   4.084   5.220  15.252  0.8775  0.5089 -2.3092
 4190TIP3    H234062   4.079   5.096  15.164  0.3590 -1.1070 -0.0962
 4191TIP3   OH234063   2.971   3.310   4.667  0.5311 -0.7451 -0.3864
 4191TIP3    H134064   3.025   3.281   4.594 -1.2539 -0.2722 -2.0093
 4191TIP3    H234065   2.905   3.241   4.677  0.6411 -0.7062  0.6514
 4192TIP3   OH234066   5.002   0.361  15.444 -0.1240  0.3533  0.3732
 4192TIP3    H134067   4.979   0.269  15.454 -1.1289  0.4316 -0.8459
 4192TIP3    H234068   5.097   0.362  15.435 -0.2467 -0.8716 -1.8842
 4193TIP3   OH234069   5.425   6.304  16.484  0.4108 -0.1684 -0.0128
 4193TIP3    H134070   5.494   6.333  16.424  0.0840  1.1707  0.2345
 4193TIP3    H234071   5.425   6.369  16.554  0.2751 -1.2921  1.0760
 4194TIP3   OH234072   1.331   2.773   1.292 -0.8024  0.0561  0.6539
 4194TIP3    H134073   1.350   2.758   1.200 -1.8183 -0.3144  0.4846
 4194TIP3    H234074   1.249   2.824   1.292 -0.3780  0.7694  1.3375
 4195TIP3   OH234075   0.786   5.639  14.862 -0.0139  0.4406 -0.3330
 4195TIP3    H134076   0.861   5.698  14.869 -0.8588  1.5487 -0.2538
 4195TIP3    H234077   0.824   5.553  14.845  1.2538  1.0204 -0.5439
 4196TIP3   OH234078   1.699   2.180   2.659  0.2688 -0.4151  0.2552
 4196TIP3    H134079   1.771   2.182   2.596  1.1085  1.4631  1.1776
 4196TIP3    H234080   1.741   2.186   2.745 -0.9173 -1.3502  0.9440
 4197TIP3   OH234081   5.132   5.257  10.846  0.1737 -0.1854 -0.4016
 4197TIP3    H134082   5.071   5.191  10.882  0.6142 -0.8846 -0.9117
 4197TIP3    H234083   5.075   5.327  10.814 -0.2705  0.1440  1.0010
 4198TIP3   OH234084   0.064   1.904  11.888 -0.1683  0.1146  0.2821
 4198TIP3    H134085  -0.002   1.836  11.879  0.0019  0.1142 -1.0669
 4198TIP3    H234086   0.090   1.900  11.981 -1.6755 -0.2160  0.7179
 4199TIP3   OH234087   4.861   1.460  11.336  0.0840  0.6573 -0.0080
 4199TIP3    H134088   4.826   1.485  11.251  1.5312  0.8204 -0.5785
 4199TIP3    H234089   4.906   1.539  11.367 -1.7061  1.1146  1.6333
 4200TIP3   OH234090   0.561   4.188   0.241 -0.0564  0.0276 -0.0031
 4200TIP3    H134091   0.602   4.265   0.201 -3.4545  2.3096  0.5272
 4200TIP3    H234092   0.524   4.139   0.167  1.1039 -0.5421 -0.2366
 4201TIP3   OH234093   6.031   1.674  11.832  0.5434  0.2934 -0.1183
 4201TIP3    H134094   6.084   1.605  11.871 -0.3429  0.6545  1.8241
 4201TIP3    H234095   6.031   1.654  11.738  2.7935 -0.5842  0.0179
 4202TIP3   OH234096   4.770   2.685   5.056 -0.4112  0.3423  0.2026
 4202TIP3    H134097   4.857   2.718   5.032 -1.2460  1.5283 -1.3752
 4202TIP3    H234098   4.764   2.601   5.011  0.5379 -0.5640  1.7032
 4203TIP3   OH234099   4.502   4.345  11.524 -0.6390  0.0747 -0.0543
 4203TIP3    H134100   4.477   4.314  11.437 -0.1868 -0.6932  0.0851
 4203TIP3    H234101   4.447   4.422  11.539  0.8787  1.6552 -1.9997
 4204TIP3   OH234102   5.940   3.320  11.256  0.4460  0.0819  0.3511
 4204TIP3    H134103   5.994   3.250  11.291  1.7319  0.4542 -0.7926
 4204TIP3    H234104   5.930   3.382  11.328 -0.3012 -1.0122  1.2207
 4205TIP3   OH234105   6.082   6.414  16.299 -0.0560 -0.4574 -0.1973
 4205TIP3    H134106   6.061   6.464  16.220  3.0791  0.5710 -0.5325
 4205TIP3    H234107   6.174   6.390  16.288  0.2817 -0.9238  2.8305
 4206TIP3   OH234108   0.461   1.640  14.759 -0.5776 -0.3860 -0.1093
 4206TIP3    H134109   0.468   1.721  14.811 -2.2923 -0.6356  0.5654
 4206TIP3    H234110   0.367   1.630  14.743 -0.2276 -1.2625 -1.7954
 4207TIP3   OH234111   2.105   2.163   1.369 -0.2757  0.0146  0.9012
 4207TIP3    H134112   2.102   2.067   1.375  0.2931 -0.0295  0.5502
 4207TIP3    H234113   2.112   2.181   1.275  2.7428  0.2756  1.0793
 4208TIP3   OH234114   3.626   4.537   4.066 -0.1017  0.0520  0.2484
 4208TIP3    H134115   3.642   4.449   4.101 -1.9425 -0.4681 -0.1273
 4208TIP3    H234116   3.588   4.521   3.979  0.0024  1.2411 -0.0271
 4209TIP3   OH234117   0.924   4.801  11.173 -0.3840  0.2847 -0.2713
 4209TIP3    H134118   0.854   4.814  11.108  0.2522 -0.6527 -1.1974
 4209TIP3    H234119   0.960   4.888  11.188 -1.2205  0.6629 -0.4038
 4210TIP3   OH234120   2.783   1.022  17.064  0.7290 -0.3472  0.2042
 4210TIP3    H134121   2.837   1.025  16.985  0.9721 -0.3226  0.3694
 4210TIP3    H234122   2.758   0.930  17.072 -2.4036  0.1566 -1.9717
 4211TIP3   OH234123   1.689   3.124   3.220 -0.0688 -0.0571 -0.0677
 4211TIP3    H134124   1.675   3.185   3.291 -0.5886 -0.1794 -0.0587
 4211TIP3    H234125   1.601   3.103   3.188  0.1829  0.5755 -1.2362
 4212TIP3   OH234126   2.218   0.118  10.516  0.1280 -0.3926  0.2246
 4212TIP3    H134127   2.277   0.124  10.591  1.6749 -1.5083 -0.8285
 4212TIP3    H234128   2.229   0.029  10.484 -0.6448 -0.0108 -1.2014
 4213TIP3   OH234129   4.876   4.176  14.112  0.3293 -0.9493  0.2592
 4213TIP3    H134130   4.880   4.175  14.207  0.2621 -1.4321  0.2612
 4213TIP3    H234131   4.906   4.089  14.086  1.5787 -0.4029 -0.2166
 4214TIP3   OH234132   1.449   5.375  12.707  0.0911 -0.2928  0.2647
 4214TIP3    H134133   1.471   5.290  12.746  1.4133 -0.3200 -0.5026
 4214TIP3    H234134   1.415   5.354  12.620  2.6093  0.0051 -0.8931
 4215TIP3   OH234135   2.155   3.135   5.906  0.5857 -0.8239  0.1427
 4215TIP3    H134136   2.199   3.073   5.964  0.6551 -1.3358 -0.4474
 4215TIP3    H234137   2.115   3.081   5.838 -0.5769 -0.3279  0.4134
 4216TIP3   OH234138   4.890   5.978  13.121  0.3271 -0.4475 -0.2677
 4216TIP3    H134139   4.958   5.948  13.182 -0.5135 -0.4737  0.6973
 4216TIP3    H234140   4.879   6.071  13.141 -0.6265 -0.6707  0.3125
 4217TIP3   OH234141   1.987   2.771   6.890 -0.0950 -0.4481 -0.2061
 4217TIP3    H134142   1.999   2.782   6.796  0.6384 -2.7728 -0.4498
 4217TIP3    H234143   1.893   2.759   6.901 -0.1877 -0.1413 -0.6173
 4218TIP3   OH234144   5.407   6.032  12.599 -0.4994  0.2858 -0.5421
 4218TIP3    H134145   5.350   6.106  12.578 -0.0646  0.8113  0.0991
 4218TIP3    H234146   5.455   6.015  12.517 -0.5785  0.7332 -0.6837
 4219TIP3   OH234147   0.472   1.705   5.759  0.1120  0.2055 -0.0373
 4219TIP3    H134148   0.521   1.699   5.841 -2.0339 -0.2392  1.2960
 4219TIP3    H234149   0.510   1.638   5.703  1.0840 -0.0338  0.8840
 4220TIP3   OH234150   3.927   6.441   4.200 -0.0912 -0.1616 -0.0702
 4220TIP3    H134151   3.954   6.361   4.246  1.9647  0.4781 -0.0645
 4220TIP3    H234152   3.984   6.509   4.235 -2.0060  1.4084  0.1414
 4221TIP3   OH234153   0.556   0.525   3.746 -0.2018 -0.0979 -0.2943
 4221TIP3    H134154   0.582   0.617   3.757  1.7813 -0.3932 -1.8144
 4221TIP3    H234155   0.594   0.500   3.661 -1.6619 -2.0131 -0.4442
 4222TIP3   OH234156   5.769   1.588  12.970 -0.3350  0.0923  0.0422
 4222TIP3    H134157   5.677   1.612  12.986 -0.3374  0.3772 -0.3677
 4222TIP3    H234158   5.785   1.514  13.029 -1.2245 -0.8293 -0.8326
 4223TIP3   OH234159   6.087   1.576   3.249 -0.1093  0.1038 -0.5077
 4223TIP3    H134160   6.007   1.612   3.289  0.4224  1.0822 -0.2885
 4223TIP3    H234161   6.059   1.546   3.163 -0.8899 -0.3359 -0.1185
 4224TIP3   OH234162   4.037   2.476   0.534  0.0082  0.4312  0.6706
 4224TIP3    H134163   3.962   2.416   0.538  0.0937  0.3469  1.0561
 4224TIP3    H234164   4.046   2.509   0.623 -1.1767  2.4256  0.1101
 4225TIP3   OH234165   6.357   5.155  14.122  0.0225 -0.1748 -0.2498
 4225TIP3    H134166   6.426   5.122  14.065 -0.2089  0.2299 -0.7691
 4225TIP3    H234167   6.276   5.118  14.087 -0.4961  2.4305 -2.0644
 4226TIP3   OH234168   6.013   2.975   1.086 -0.4387 -0.2194  0.1634
 4226TIP3    H134169   6.035   3.041   1.152 -0.0953  0.1523 -0.3125
 4226TIP3    H234170   6.054   2.895   1.118  2.6936  0.6643 -1.2049
 4227TIP3   OH234171   1.690   2.363  15.268 -0.0693  0.3707  0.9426
 4227TIP3    H134172   1.760   2.303  15.295 -0.0510  0.1082  0.3264
 4227TIP3    H234173   1.673   2.340  15.177 -1.4567 -0.0663  1.2825
 4228TIP3   OH234174   1.627   5.270  13.646  0.3936  0.4399  0.0401
 4228TIP3    H134175   1.587   5.214  13.579  2.1242  0.1337 -0.7891
 4228TIP3    H234176   1.721   5.255  13.638  0.6625 -0.9321  3.7204
 4229TIP3   OH234177   4.097   5.397  15.213  0.0620 -0.2214  0.0664
 4229TIP3    H134178   4.117   5.412  15.120  0.5977 -2.5172 -0.2261
 4229TIP3    H234179   4.166   5.444  15.260  2.4236 -2.5744 -0.8233
 4230TIP3   OH234180   0.684   0.407   5.274 -0.2033  0.1266 -0.5210
 4230TIP3    H134181   0.748   0.478   5.268 -0.7143  0.5531 -0.9310
 4230TIP3    H234182   0.656   0.407   5.365 -0.3656  0.5954 -0.5705
 4231TIP3   OH234183   5.547   2.968  12.692 -0.4328 -0.2570 -0.2117
 4231TIP3    H134184   5.552   3.062  12.674 -2.9668 -0.3856 -2.1472
 4231TIP3    H234185   5.589   2.926  12.617  1.0896 -0.7274  0.8540
 4232TIP3   OH234186   0.173   4.842  16.346  0.1902 -0.6390  0.1247
 4232TIP3    H134187   0.121   4.874  16.420 -1.7300 -1.4185 -0.8356
 4232TIP3    H234188   0.168   4.912  16.281 -0.8191 -1.2450 -0.4828
 4233TIP3   OH234189   3.498   1.709   6.006 -0.6972  0.0400 -0.1484
 4233TIP3    H134190   3.545   1.627   6.024 -0.3893 -0.0450 -1.2992
 4233TIP3    H234191   3.491   1.751   6.092 -1.3298 -1.4289  0.5522
 4234TIP3   OH234192   0.127   6.015  16.593 -0.0106  0.6509 -0.2584
 4234TIP3    H134193   0.115   6.092  16.538 -0.9510  0.0012 -1.0215
 4234TIP3    H234194   0.040   5.999  16.630 -0.3935 -1.2102 -1.7655
 4235TIP3   OH234195   4.997   3.158  13.545 -0.0541 -0.3447  0.2785
 4235TIP3    H134196   4.950   3.162  13.461  1.3237 -1.8365 -0.6059
 4235TIP3    H234197   4.943   3.101  13.599 -0.3614 -0.3061  0.0190
 4236TIP3   OH234198   3.815   5.374  16.050 -0.7162 -0.5760 -0.0756
 4236TIP3    H134199   3.779   5.397  15.964 -1.7479  0.1417  0.5260
 4236TIP3    H234200   3.833   5.457  16.092 -0.1747 -0.9249  0.3900
 4237TIP3   OH234201   5.406   2.666  14.169  0.7598  0.0664  0.5360
 4237TIP3    H134202   5.452   2.670  14.253 -0.2703 -0.8483  1.1572
 4237TIP3    H234203   5.468   2.623  14.110  0.6923 -1.2800  1.3996
 4238TIP3   OH234204   4.573   6.597  11.509 -0.0970 -0.0014  0.4977
 4238TIP3    H134205   4.561   6.671  11.569  0.0200  0.6546 -0.2677
 4238TIP3    H234206   4.667   6.596  11.491 -0.2927  0.6920 -0.7362
 4239TIP3   OH234207   4.680   1.307  15.262 -0.0542  0.3764  0.0259
 4239TIP3    H134208   4.637   1.261  15.190  0.1257  0.6756 -0.2752
 4239TIP3    H234209   4.609   1.355  15.305 -0.7621 -2.1546  1.9530
 4240TIP3   OH234210   1.086   4.578   3.445  0.3510 -0.0854 -0.5049
 4240TIP3    H134211   1.137   4.658   3.434  0.9521 -0.2515  0.7764
 4240TIP3    H234212   1.135   4.528   3.511 -0.1323 -1.4013 -1.1116
 4241TIP3   OH234213   0.237   2.669   3.739  0.9153 -0.1066  0.1026
 4241TIP3    H134214   0.167   2.604   3.746  1.1826 -0.4208 -0.1054
 4241TIP3    H234215   0.302   2.641   3.804 -0.0648  1.3646  1.8313
 4242TIP3   OH234216   4.197   6.304  16.835 -0.6912  0.1734  0.2844
 4242TIP3    H134217   4.226   6.384  16.878  0.7843 -0.6836  0.9422
 4242TIP3    H234218   4.183   6.242  16.906  0.3614 -0.8179 -0.3400
 4243TIP3   OH234219   1.580   4.776   1.806  0.4055 -0.0025 -0.0924
 4243TIP3    H134220   1.608   4.859   1.843 -0.0092 -0.5674  1.5817
 4243TIP3    H234221   1.551   4.797   1.717  0.7041  1.5422  0.1541
 4244TIP3   OH234222   0.629   2.122  16.647 -0.2150 -0.0608 -0.2467
 4244TIP3    H134223   0.620   2.103  16.740 -0.6318  2.9603  0.4535
 4244TIP3    H234224   0.724   2.130  16.633 -0.2070  1.0828  0.3476
 4245TIP3   OH234225   3.241   5.922   2.135  0.0289 -0.0824  0.6479
 4245TIP3    H134226   3.323   5.936   2.089 -1.2493  2.0617 -1.1794
 4245TIP3    H234227   3.230   6.001   2.189 -1.5052  0.3777 -0.2829
 4246TIP3   OH234228   3.576   6.403  16.491 -0.0403 -0.1406  0.5402
 4246TIP3    H134229   3.528   6.400  16.574 -0.0507 -0.6672  0.5156
 4246TIP3    H234230   3.614   6.316  16.482 -2.7745 -1.2442 -1.6358
 4247TIP3   OH234231   6.695   3.968   4.843 -0.5063  0.3893 -0.2337
 4247TIP3    H134232   6.790   3.978   4.849 -0.1311 -2.1695 -0.8322
 4247TIP3    H234233   6.662   4.012   4.922  1.3851 -0.6589  1.2422
 4248TIP3   OH234234   4.353   3.719  11.538  0.1005 -0.1984  0.7616
 4248TIP3    H134235   4.325   3.807  11.564 -1.8019 -1.3234  2.7994
 4248TIP3    H234236   4.437   3.707  11.582  0.4928  0.6616  0.2740
 4249TIP3   OH234237   3.480   5.816   3.694 -0.9672  0.0219  0.0365
 4249TIP3    H134238   3.575   5.826   3.685 -0.4756 -1.6997  2.3603
 4249TIP3    H234239   3.458   5.742   3.637 -0.9401  0.4970 -0.5945
 4250TIP3   OH234240   3.964   2.160  11.571 -0.0850  0.2561 -0.4625
 4250TIP3    H134241   3.963   2.151  11.666 -0.5665 -2.1247 -0.6360
 4250TIP3    H234242   3.916   2.084  11.539 -1.0879  1.7022 -2.5931
 4251TIP3   OH234243   3.921   3.262  13.186 -0.2103 -0.4120  0.2662
 4251TIP3    H134244   3.964   3.184  13.219  1.8710  0.9942  1.0739
 4251TIP3    H234245   3.937   3.260  13.091  1.7856  0.1091  0.5543
 4252TIP3   OH234246   3.155   1.891  12.553 -0.0970 -0.4118  0.2242
 4252TIP3    H134247   3.096   1.847  12.614 -0.5611  1.5611  1.3183
 4252TIP3    H234248   3.134   1.854  12.467 -1.2690 -1.4187  0.9197
 4253TIP3   OH234249   5.608   5.701  12.360 -0.4222  0.2785  0.0797
 4253TIP3    H134250   5.583   5.701  12.268 -1.6872 -1.9401  0.3529
 4253TIP3    H234251   5.566   5.778  12.397 -1.6285  0.0619 -0.7915
 4254TIP3   OH234252   2.664   3.530  17.013 -0.2738  0.0318 -0.5228
 4254TIP3    H134253   2.633   3.588  16.944  2.0448  1.1288 -0.7647
 4254TIP3    H234254   2.717   3.587  17.069  0.8157 -1.5512  0.1247
 4255TIP3   OH234255   4.800   5.645   0.974 -0.8394  0.1634 -0.2938
 4255TIP3    H134256   4.781   5.601   0.891 -1.1784 -1.4359  0.5796
 4255TIP3    H234257   4.719   5.692   0.996 -1.0398 -0.0960 -0.4706
 4256TIP3   OH234258   1.986   5.885  14.789  0.0220  0.1411 -0.0161
 4256TIP3    H134259   1.923   5.943  14.831  1.0218  0.8517  0.5311
 4256TIP3    H234260   2.002   5.816  14.854 -0.8777 -0.5767 -0.5203
 4257TIP3   OH234261   1.794   0.950   2.602  0.2319  0.3216 -0.2435
 4257TIP3    H134262   1.711   0.904   2.611 -0.1436  0.9838 -0.2672
 4257TIP3    H234263   1.771   1.043   2.605  0.9060  0.5174 -0.7888
 4258TIP3   OH234264   5.273   3.995   5.868 -0.0261  0.3260 -0.3174
 4258TIP3    H134265   5.190   4.016   5.911 -0.2604 -1.3553  0.1547
 4258TIP3    H234266   5.337   4.054   5.908 -0.1621 -1.3177  2.6800
 4259TIP3   OH234267   4.284   5.985  11.602 -0.1363 -0.0512  0.6461
 4259TIP3    H134268   4.293   5.989  11.697  0.5218  0.5330  0.5674
 4259TIP3    H234269   4.362   6.029  11.568  0.0247 -0.9225 -0.1805
 4260TIP3   OH234270   4.653   1.473  11.629 -0.1910 -0.3175  0.4302
 4260TIP3    H134271   4.594   1.403  11.601 -1.0553 -0.1888  1.8471
 4260TIP3    H234272   4.735   1.428  11.649  0.1394 -0.5355 -1.2779
 4261TIP3   OH234273   4.750   0.970   0.510 -0.2980 -0.0722 -0.3780
 4261TIP3    H134274   4.825   0.912   0.523 -0.2004  0.1903  0.2948
 4261TIP3    H234275   4.733   0.968   0.416  1.0713  0.4998 -0.6555
 4262TIP3   OH234276   0.459   3.382  12.602  0.3087 -0.2797  0.2803
 4262TIP3    H134277   0.403   3.306  12.621  0.1733 -1.4617 -3.9090
 4262TIP3    H234278   0.546   3.345  12.589  0.9442  0.7922  1.2937
 4263TIP3   OH234279   5.897   6.410   3.313 -0.7745  0.4994 -0.0836
 4263TIP3    H134280   5.821   6.420   3.256 -0.7514  1.1456 -0.0079
 4263TIP3    H234281   5.968   6.453   3.266 -0.0983 -1.2799 -0.7986
 4264TIP3   OH234282   4.476   3.231  12.472 -0.1569 -0.4643 -0.2366
 4264TIP3    H134283   4.448   3.156  12.419  0.6690  0.3110 -1.8223
 4264TIP3    H234284   4.568   3.213  12.492 -0.9078 -1.6532  2.6014
 4265TIP3   OH234285   1.877   4.732  16.287  0.7484 -0.1652  0.3976
 4265TIP3    H134286   1.919   4.649  16.264 -0.0867 -0.2803 -0.8137
 4265TIP3    H234287   1.929   4.766  16.359  2.7909 -0.4136 -0.8717
 4266TIP3   OH234288   2.896   6.516   0.253 -0.6821  0.2024 -0.3016
 4266TIP3    H134289   2.808   6.496   0.284 -0.0756  0.2840  1.6574
 4266TIP3    H234290   2.897   6.612   0.245 -0.3724  0.3590  1.1876
 4267TIP3   OH234291   3.397   2.995  13.230  0.2807 -0.1303  0.1435
 4267TIP3    H134292   3.406   2.984  13.324  1.2881 -2.4951 -0.1517
 4267TIP3    H234293   3.463   2.936  13.193  0.2700  1.1244 -2.0433
 4268TIP3   OH234294   6.454   5.052   3.355  0.1841  0.6200 -0.1501
 4268TIP3    H134295   6.426   5.133   3.399 -1.5423 -0.0119 -0.0358
 4268TIP3    H234296   6.482   4.995   3.426  3.3823  1.7384 -0.3302
 4269TIP3   OH234297   1.961   3.984  15.202  0.5460 -0.1061 -0.2596
 4269TIP3    H134298   1.925   3.897  15.217 -0.8302  0.1577 -1.7612
 4269TIP3    H234299   1.912   4.018  15.127  2.4156  1.2014 -0.9657
 4270TIP3   OH234300   6.324   3.531   3.304 -0.1458 -0.1238  0.0928
 4270TIP3    H134301   6.359   3.559   3.219  0.5351  1.8661  0.9618
 4270TIP3    H234302   6.396   3.481   3.343 -0.0353 -0.0770 -0.0476
 4271TIP3   OH234303   5.604   1.189   2.204 -0.0974 -0.0565  0.4891
 4271TIP3    H134304   5.671   1.151   2.261 -0.5457  0.1696  1.1702
 4271TIP3    H234305   5.580   1.118   2.145 -0.0823 -0.4816  0.9903
 4272TIP3   OH234306   0.820   2.627   1.603 -0.7118  0.9611 -0.1292
 4272TIP3    H134307   0.829   2.716   1.569 -2.1630  1.6430  1.1294
 4272TIP3    H234308   0.896   2.617   1.661  1.0102  0.2875 -2.3751
 4273TIP3   OH234309   4.902   3.419   2.199 -0.0286  0.5149 -0.3777
 4273TIP3    H134310   4.903   3.346   2.138  1.9358  0.1086  0.0523
 4273TIP3    H234311   4.828   3.473   2.172 -1.9984 -1.9566 -0.2787
 4274TIP3   OH234312   1.181   1.046  15.112 -0.7085 -0.1618 -0.6176
 4274TIP3    H134313   1.118   1.100  15.160 -2.4510 -1.5913 -1.1965
 4274TIP3    H234314   1.251   1.029  15.176 -1.8520 -0.1489  0.6795
 4275TIP3   OH234315   5.416   5.331   3.505  0.1069  0.4835  0.1806
 4275TIP3    H134316   5.503   5.368   3.491  0.2804  0.8378  1.9661
 4275TIP3    H234317   5.374   5.392   3.565 -0.1365 -1.4374  2.0670
 4276TIP3   OH234318   4.119   6.351   3.833 -0.1828 -0.3790 -0.3228
 4276TIP3    H134319   4.200   6.301   3.829  0.4160  0.1890  2.5044
 4276TIP3    H234320   4.146   6.440   3.809 -0.4451 -0.5932 -1.4706
 4277TIP3   OH234321   3.567   4.383  13.624 -0.5975  0.3475  0.3268
 4277TIP3    H134322   3.556   4.395  13.718 -0.2739 -2.8026  0.8839
 4277TIP3    H234323   3.480   4.396  13.587 -1.0112  0.3238  1.2628
 4278TIP3   OH234324   6.817   2.117   2.088 -0.4768  0.2559  0.1259
 4278TIP3    H134325   6.860   2.132   2.172  0.8785  3.8186 -1.0113
 4278TIP3    H234326   6.881   2.071   2.035 -0.3772  0.2277  0.2715
 4279TIP3   OH234327   2.969   3.424   4.353  0.1895  0.3854 -0.1009
 4279TIP3    H134328   3.034   3.494   4.348  0.2752  0.3983  0.9776
 4279TIP3    H234329   3.020   3.344   4.366  0.0808  0.1246 -1.1587
 4280TIP3   OH234330   0.716   3.604   0.363 -0.7437 -0.0682 -0.3861
 4280TIP3    H134331   0.726   3.691   0.400  0.8419 -1.6376  3.4271
 4280TIP3    H234332   0.629   3.605   0.322 -0.9224  3.1040 -0.1415
 4281TIP3   OH234333   6.107   0.935   3.304 -0.0396 -0.3804  0.6359
 4281TIP3    H134334   6.177   0.885   3.346  0.1667 -1.4468 -0.8932
 4281TIP3    H234335   6.104   0.902   3.214 -1.1444  1.0884  0.0819
 4282TIP3   OH234336   2.156   1.830  16.579 -0.7303  0.3685  0.1576
 4282TIP3    H134337   2.162   1.826  16.483  0.4152  1.3802  0.1694
 4282TIP3    H234338   2.080   1.886  16.596 -1.9079 -1.0616 -0.1141
 4283TIP3   OH234339   0.368   6.100  13.291  0.9920 -0.9617 -0.1369
 4283TIP3    H134340   0.342   6.013  13.259  0.7611 -1.4220  1.2468
 4283TIP3    H234341   0.417   6.138  13.218  1.0775 -2.2430 -0.7789
 4284TIP3   OH234342   1.183   6.010  15.308  0.0156  0.1304  0.5338
 4284TIP3    H134343   1.207   6.030  15.399 -1.9843 -0.2181  1.1947
 4284TIP3    H234344   1.219   6.083  15.257  0.1280  0.9681  1.7676
 4285TIP3   OH234345   1.805   2.791  11.891  0.3560  0.1886  0.1341
 4285TIP3    H134346   1.805   2.870  11.837 -1.3152  1.6689  2.1449
 4285TIP3    H234347   1.897   2.778  11.914  0.6741  1.5217 -0.2869
 4286TIP3   OH234348   3.318   1.207   3.532 -0.5378  0.2376 -0.1944
 4286TIP3    H134349   3.270   1.288   3.517 -0.3396  0.4902  0.4905
 4286TIP3    H234350   3.340   1.209   3.625  3.3052  1.5756 -0.9410
 4287TIP3   OH234351   0.376   6.620  11.805  0.8431 -0.1191 -0.3723
 4287TIP3    H134352   0.456   6.572  11.787  0.9351 -1.1407  2.3523
 4287TIP3    H234353   0.344   6.584  11.888 -0.3676  2.8596  0.5912
 4288TIP3   OH234354   4.347   0.814   1.335  0.4361  0.0624  0.5755
 4288TIP3    H134355   4.287   0.740   1.328 -1.1146  1.3547 -0.5424
 4288TIP3    H234356   4.291   0.887   1.364  1.8240  0.9090  1.2299
 4289TIP3   OH234357   1.795   1.155   5.960 -0.5647 -0.8430  0.0840
 4289TIP3    H134358   1.795   1.079   5.902  0.4842 -0.3674 -0.5695
 4289TIP3    H234359   1.703   1.174   5.976 -0.8824 -0.8839 -1.5867
 4290TIP3   OH234360   2.837   2.069  12.846 -0.1645  0.5082  0.5237
 4290TIP3    H134361   2.784   2.012  12.902  1.4685 -1.4043  0.2336
 4290TIP3    H234362   2.913   2.091  12.900 -0.1895  1.4571  0.1925
 4291TIP3   OH234363   3.531   3.219  12.297  0.0657  0.0222  0.6548
 4291TIP3    H134364   3.438   3.199  12.281 -0.7303  2.0523  2.2866
 4291TIP3    H234365   3.568   3.230  12.209 -0.5243 -3.3238 -0.1713
 4292TIP3   OH234366   3.995   5.404   3.846  0.2782  0.6109  0.2526
 4292TIP3    H134367   3.992   5.330   3.786  1.1435  0.3909  0.4597
 4292TIP3    H234368   4.051   5.374   3.918  1.3719  1.7615 -0.0867
 4293TIP3   OH234369   5.195   1.795   5.006 -0.6068 -0.0421 -0.2144
 4293TIP3    H134370   5.270   1.852   4.990  0.8520 -1.3304  1.6092
 4293TIP3    H234371   5.193   1.736   4.931 -0.4987  0.6860 -0.8047
 4294TIP3   OH234372   1.220   1.948   5.384 -0.1582 -0.6457  0.3838
 4294TIP3    H134373   1.132   1.972   5.413  0.4365  1.8423  0.3728
 4294TIP3    H234374   1.206   1.873   5.326 -2.0012 -1.7572  2.1056
 4295TIP3   OH234375   0.135   4.663  16.653 -0.2985  0.1766 -0.8940
 4295TIP3    H134376   0.078   4.587  16.657  0.0161 -0.0778 -1.1483
 4295TIP3    H234377   0.079   4.735  16.623 -0.2214 -0.3397 -2.3407
 4296TIP3   OH234378   0.005   2.740   3.515 -0.1887 -0.1770 -0.4678
 4296TIP3    H134379   0.025   2.652   3.485  0.5300 -0.1734 -0.0276
 4296TIP3    H234380   0.042   2.797   3.448  2.5277 -0.1330  0.9474
 4297TIP3   OH234381   0.187   5.616   2.519  0.2166  0.3935 -0.4406
 4297TIP3    H134382   0.249   5.640   2.588  0.4296 -0.1257 -0.4403
 4297TIP3    H234383   0.237   5.625   2.438 -0.5912  2.8860 -0.7403
 4298TIP3   OH234384   1.728   2.117  16.601 -1.0636 -0.5488  0.6410
 4298TIP3    H134385   1.729   2.060  16.525 -0.7165 -0.2891  0.4472
 4298TIP3    H234386   1.646   2.166  16.593 -0.4745  0.3297 -0.2131
 4299TIP3   OH234387   1.374   6.144  11.871 -0.2333 -0.5614 -0.7015
 4299TIP3    H134388   1.393   6.204  11.798 -0.9850 -0.3746 -0.7469
 4299TIP3    H234389   1.280   6.151  11.884 -0.0830 -0.4773  0.3965
 4300TIP3   OH234390   6.594   4.976  14.569 -0.6601  0.3056  0.5433
 4300TIP3    H134391   6.626   4.887  14.556 -0.2056  0.3300  1.3620
 4300TIP3    H234392   6.664   5.020  14.618 -1.1637  0.9137  0.7455
 4301TIP3   OH234393   2.116   0.862  15.420  0.3770  0.1926 -0.2291
 4301TIP3    H134394   2.176   0.885  15.350 -0.8031  0.9435 -1.0338
 4301TIP3    H234395   2.050   0.806  15.378 -1.9672  2.9095 -0.5176
 4302TIP3   OH234396   0.388   6.538   4.337 -0.1500 -0.2099  0.2738
 4302TIP3    H134397   0.295   6.549   4.359  0.3872 -0.0181  2.7098
 4302TIP3    H234398   0.435   6.587   4.405  1.7710 -0.8522 -0.5163
 4303TIP3   OH234399   6.738   4.752  11.303 -0.1856 -0.0867 -0.2575
 4303TIP3    H134400   6.744   4.748  11.207  2.4156 -2.5845 -0.0803
 4303TIP3    H234401   6.801   4.820  11.328  0.3042 -0.5457 -0.2421
 4304TIP3   OH234402   2.818   1.154  16.178  0.2154  0.2355 -0.0812
 4304TIP3    H134403   2.904   1.192  16.162  0.6514 -0.7805 -0.2639
 4304TIP3    H234404   2.762   1.228  16.202  1.2093  0.8663  0.3307
 4305TIP3   OH234405   1.659   1.109   0.796 -0.9096  0.2415  0.0551
 4305TIP3    H134406   1.673   1.203   0.789 -0.4891  0.1166 -1.0296
 4305TIP3    H234407   1.712   1.083   0.872 -2.6079  1.1388  1.6312
 4306TIP3   OH234408   6.554   6.464   0.790  0.3954 -0.5020 -0.0305
 4306TIP3    H134409   6.465   6.436   0.813 -0.4136 -0.0406 -2.3688
 4306TIP3    H234410   6.593   6.388   0.747  1.6744 -1.1518  2.1013
 4307TIP3   OH234411   4.426   4.953   1.281  0.2370 -0.4525 -0.1557
 4307TIP3    H134412   4.515   4.920   1.275  0.3988 -0.4858  1.9710
 4307TIP3    H234413   4.392   4.944   1.191  2.0005 -1.3992 -0.7843
 4308TIP3   OH234414   5.733   0.672  13.663  0.5926 -0.1966 -0.0932
 4308TIP3    H134415   5.803   0.627  13.615  1.3469  1.3929 -0.5722
 4308TIP3    H234416   5.695   0.605  13.720 -0.4968 -2.2958 -3.0173
 4309TIP3   OH234417   4.851   1.143   2.183 -0.2957 -0.7238 -0.4347
 4309TIP3    H134418   4.915   1.103   2.124  0.0080 -1.8257  0.6102
 4309TIP3    H234419   4.895   1.222   2.215 -0.6863  0.2239 -2.0836
 4310TIP3   OH234420   6.168   5.454   4.034 -0.4763 -0.0636 -0.4204
 4310TIP3    H134421   6.160   5.367   3.995 -0.8981 -0.6067  0.8107
 4310TIP3    H234422   6.240   5.446   4.097 -0.9695  0.2704  0.2029
 4311TIP3   OH234423   0.424   1.470   6.596 -0.6408  0.6211  0.3883
 4311TIP3    H134424   0.434   1.434   6.684 -1.8963 -0.3688  0.1641
 4311TIP3    H234425   0.349   1.423   6.559 -0.1292  0.9935 -1.2302
 4312TIP3   OH234426   2.339   2.707  11.234 -0.7059  0.6040 -0.0045
 4312TIP3    H134427   2.358   2.758  11.312 -0.3098  0.0108  0.2934
 4312TIP3    H234428   2.411   2.725  11.175 -0.7094  0.6052 -0.0081
 4313TIP3   OH234429   2.524   1.762   5.964 -0.2404  0.2752 -0.3872
 4313TIP3    H134430   2.512   1.852   5.934 -0.5359  0.4582  0.2547
 4313TIP3    H234431   2.596   1.768   6.027 -1.3245  0.3646  0.8911
 4314TIP3   OH234432   0.880   4.942  16.509  0.0527  0.1575 -0.2382
 4314TIP3    H134433   0.817   4.895  16.563 -0.3108  0.8323 -0.0663
 4314TIP3    H234434   0.941   4.875  16.479 -1.6578 -0.7911 -1.7563
 4315TIP3   OH234435   0.817   6.762   4.945  0.0148 -0.8188 -0.5241
 4315TIP3    H134436   0.889   6.719   4.990  0.4297  0.6822  0.2939
 4315TIP3    H234437   0.801   6.842   4.994 -1.0408 -0.2454 -1.7264
 4316TIP3   OH234438   1.496   2.727   7.020  0.0075  0.6662 -0.2481
 4316TIP3    H134439   1.429   2.774   6.971 -0.2223  1.2933  0.6349
 4316TIP3    H234440   1.447   2.665   7.073  0.3444 -1.0476 -1.8527
 4317TIP3   OH234441   6.521   1.648   0.667 -0.3977 -0.1170  0.1053
 4317TIP3    H134442   6.501   1.603   0.749  0.0726 -1.1716 -0.3338
 4317TIP3    H234443   6.617   1.643   0.660 -0.5619 -2.0181 -1.5522
 4318TIP3   OH234444   2.868   0.067   4.678 -0.1713  0.5856  0.0538
 4318TIP3    H134445   2.784   0.033   4.706  0.1924  0.0982  0.5907
 4318TIP3    H234446   2.908   0.100   4.759  0.7324 -0.4648  0.0552
 4319TIP3   OH234447   5.829   1.117   5.756 -0.2024 -0.3739 -0.4153
 4319TIP3    H134448   5.919   1.150   5.756 -0.1571 -0.3289  1.9937
 4319TIP3    H234449   5.834   1.033   5.801 -1.5834  0.5473  1.6381
 4320TIP3   OH234450   0.749   5.314   3.901  0.4162 -0.6566 -0.8309
 4320TIP3    H134451   0.656   5.306   3.879  0.1086 -1.0171  0.4905
 4320TIP3    H234452   0.758   5.403   3.933  0.0163 -1.2596  1.1070
 4321TIP3   OH234453   5.119   3.809  14.232 -0.4590  0.5712  0.1693
 4321TIP3    H134454   5.212   3.828  14.219 -0.5404  0.3916 -0.7204
 4321TIP3    H234455   5.118   3.734  14.291 -0.0242  0.2515 -0.2252
 4322TIP3   OH234456   4.175   3.563  14.170  0.0403 -0.3142  0.0550
 4322TIP3    H134457   4.137   3.508  14.102  0.3817 -0.5524  0.0571
 4322TIP3    H234458   4.101   3.585  14.227  0.0061 -1.2232  0.3662
 4323TIP3   OH234459   4.215   0.934   4.240  0.4132 -0.4290  0.4034
 4323TIP3    H134460   4.212   0.979   4.155 -0.5411  1.0870  1.1820
 4323TIP3    H234461   4.126   0.901   4.253  0.4037 -0.1730  1.0379
 4324TIP3   OH234462   1.237   3.571  16.183 -0.2194 -0.6389 -0.2799
 4324TIP3    H134463   1.243   3.635  16.254 -2.0675 -0.6952 -0.0289
 4324TIP3    H234464   1.312   3.590  16.127  0.8492 -0.0996  1.2654
 4325TIP3   OH234465   6.383   5.818   3.244 -0.2215  0.3695 -0.4051
 4325TIP3    H134466   6.411   5.856   3.327  0.5996  0.0447 -0.5156
 4325TIP3    H234467   6.291   5.841   3.236 -0.0739  1.1960  0.1527
 4326TIP3   OH234468   2.449   0.222  12.092 -0.3923 -0.2264  0.3174
 4326TIP3    H134469   2.369   0.207  12.144  0.0430 -0.2919  0.9761
 4326TIP3    H234470   2.474   0.136  12.060 -0.7942 -0.1541 -0.2131
 4327TIP3   OH234471   1.868   0.799   1.630  0.5411  0.0321  0.4182
 4327TIP3    H134472   1.795   0.748   1.664 -0.2905  0.9606  0.0832
 4327TIP3    H234473   1.856   0.886   1.667  2.0989 -0.0572  1.2210
 4328TIP3   OH234474   6.460   5.560   2.053  0.5397  0.8162 -0.3963
 4328TIP3    H134475   6.522   5.572   1.980 -0.0463 -0.2020 -1.0946
 4328TIP3    H234476   6.498   5.610   2.125  1.1562  1.8346 -1.3942
 4329TIP3   OH234477   5.943   6.312  11.550 -0.0548 -0.2996 -0.2725
 4329TIP3    H134478   6.016   6.250  11.547  0.5343  0.4263 -1.9042
 4329TIP3    H234479   5.977   6.387  11.598 -0.0594 -0.3653 -0.1662
 4330TIP3   OH234480   2.163   1.368  10.490 -0.3641 -0.5496 -0.1234
 4330TIP3    H134481   2.181   1.388  10.582 -1.4120 -1.3737  0.2875
 4330TIP3    H234482   2.221   1.426  10.441 -1.1897  1.3442  1.0228
 4331TIP3   OH234483   3.720   5.247   3.980 -0.8619  0.2549 -0.6845
 4331TIP3    H134484   3.734   5.329   4.027 -0.1924 -1.1215  1.6974
 4331TIP3    H234485   3.754   5.263   3.892  1.7647  1.7160  0.4913
 4332TIP3   OH234486   4.192   6.631  16.369  0.3662  0.8132 -0.6915
 4332TIP3    H134487   4.208   6.623  16.275 -1.1154 -0.2304 -0.9037
 4332TIP3    H234488   4.141   6.712  16.378 -0.4909  0.3099 -0.9488
 4333TIP3   OH234489   2.561   2.259   4.021  0.2774 -0.0149 -0.2826
 4333TIP3    H134490   2.567   2.304   3.937  1.3793 -0.6375 -0.5562
 4333TIP3    H234491   2.590   2.170   4.003 -2.3227 -1.0342  0.1340
 4334TIP3   OH234492   4.727   2.052  14.601  0.3538 -0.8003  0.0746
 4334TIP3    H134493   4.695   2.092  14.520 -1.1212  2.0216  1.9109
 4334TIP3    H234494   4.809   2.098  14.621  0.5914 -1.3174  0.3124
 4335TIP3   OH234495   4.039   0.489  11.481  0.1857 -0.1263  0.5710
 4335TIP3    H134496   4.071   0.399  11.485 -1.3168 -0.6577  2.6782
 4335TIP3    H234497   3.948   0.480  11.454  0.1619  0.8073  0.3240
 4336TIP3   OH234498   0.801   5.368   2.215 -0.0179 -0.0093  0.3162
 4336TIP3    H134499   0.713   5.333   2.232 -0.0567 -0.3052 -0.4622
 4336TIP3    H234500   0.834   5.390   2.302 -1.5886  1.9321  0.4832
 4337TIP3   OH234501   4.704   4.788   5.947  0.1825  0.7304  0.2292
 4337TIP3    H134502   4.738   4.828   6.027 -0.9589  2.1661  0.0493
 4337TIP3    H234503   4.620   4.831   5.933 -0.6021 -0.9981 -0.6173
 4338TIP3   OH234504   4.625   0.722   1.790  0.4545  0.2049  0.2550
 4338TIP3    H134505   4.665   0.807   1.809 -1.7121  1.7872 -1.6764
 4338TIP3    H234506   4.692   0.676   1.739  1.9721  0.3430  2.0017
 4339TIP3   OH234507   4.010   1.149   5.363 -0.8505 -0.2133 -0.4534
 4339TIP3    H134508   3.939   1.199   5.324 -1.4147  0.9271  1.8394
 4339TIP3    H234509   4.057   1.212   5.418  0.2968 -1.5340  0.1673
 4340TIP3   OH234510   1.279   3.044  15.236 -0.2394  0.4469 -0.7609
 4340TIP3    H134511   1.293   2.991  15.157 -0.1959  1.0672 -1.1785
 4340TIP3    H234512   1.317   2.992  15.306  1.0116  0.5095 -1.3614
 4341TIP3   OH234513   3.917   4.799   0.836  0.7759  0.5002  0.0637
 4341TIP3    H134514   3.863   4.720   0.841  0.9033  0.4506  0.6668
 4341TIP3    H234515   3.952   4.798   0.747 -0.3888  0.6483 -0.4112
 4342TIP3   OH234516   0.721   4.530   4.746 -0.5956 -0.0455  0.1858
 4342TIP3    H134517   0.676   4.596   4.797  0.2545  1.2097 -0.6237
 4342TIP3    H234518   0.764   4.579   4.675  2.5316 -1.0152  1.2197
 4343TIP3   OH234519   4.755   5.169   2.501 -0.1361 -0.3793 -0.0217
 4343TIP3    H134520   4.714   5.166   2.415  0.1810  2.6295 -0.4116
 4343TIP3    H234521   4.832   5.226   2.489  0.0456 -0.0501  2.1696
 4344TIP3   OH234522   1.832   3.943  13.876  0.4991 -0.1572  0.6617
 4344TIP3    H134523   1.766   4.008  13.852  1.0052  1.4731  3.2866
 4344TIP3    H234524   1.888   3.937  13.799  0.0361  2.0531  0.0800
 4345TIP3   OH234525   1.256   0.273  17.090  0.1322  0.3758  0.0446
 4345TIP3    H134526   1.341   0.236  17.065  0.6906  1.4006  0.3574
 4345TIP3    H234527   1.213   0.293  17.007  0.5871  0.6986 -0.1168
 4346TIP3   OH234528   1.096   4.216   0.980 -0.7152 -0.6204  0.3320
 4346TIP3    H134529   1.180   4.261   0.992  0.0005 -1.6535 -0.6069
 4346TIP3    H234530   1.034   4.286   0.963  0.6022  0.0319 -2.4130
 4347TIP3   OH234531   0.258   2.033   4.907  0.5979  0.5776 -0.3733
 4347TIP3    H134532   0.315   2.110   4.919 -0.9838  1.4917  2.3200
 4347TIP3    H234533   0.318   1.961   4.887  2.2059  2.3197 -2.2565
 4348TIP3   OH234534   3.218   0.885  16.054  0.0051  0.2914 -0.2376
 4348TIP3    H134535   3.172   0.827  15.993 -0.4251 -0.1370  0.4947
 4348TIP3    H234536   3.210   0.972  16.014 -0.1531 -0.0075 -0.8668
 4349TIP3   OH234537   4.967   4.529  15.219 -0.2771 -0.3472  0.3839
 4349TIP3    H134538   4.913   4.608  15.211 -1.2868 -1.1707 -1.7309
 4349TIP3    H234539   5.057   4.560  15.210 -0.5971  0.6360  0.4024
 4350TIP3   OH234540   0.895   0.570  11.350 -0.0858 -0.1061 -0.1274
 4350TIP3    H134541   0.866   0.516  11.277 -5.3460  1.8866  0.0674
 4350TIP3    H234542   0.846   0.538  11.425  0.3972  1.8249  1.1005
 4351TIP3   OH234543   1.640   5.792   4.406  0.0696  0.2432  0.3028
 4351TIP3    H134544   1.683   5.779   4.490 -1.1113  0.5449  0.9848
 4351TIP3    H234545   1.704   5.765   4.341  1.5180  1.3088  1.2339
 4352TIP3   OH234546   3.312   4.685  11.125  0.1145  0.1518 -0.0493
 4352TIP3    H134547   3.329   4.606  11.177  0.1640  0.6531  0.7208
 4352TIP3    H234548   3.397   4.727  11.118  0.3814 -0.5697 -1.7049
 4353TIP3   OH234549   3.456   0.397   4.643  0.3391  0.0572 -0.3276
 4353TIP3    H134550   3.465   0.302   4.637  0.9558 -0.0429  1.5085
 4353TIP3    H234551   3.458   0.428   4.552  1.9668 -1.5251 -0.8795
 4354TIP3   OH234552   2.473   5.865   1.239  0.1237  0.0635  0.5110
 4354TIP3    H134553   2.407   5.919   1.196  0.1695 -0.5668 -0.3857
 4354TIP3    H234554   2.436   5.777   1.239  0.8407 -0.2471  0.2466
 4355TIP3   OH234555   3.757   5.719   1.179 -0.9953  0.4415 -0.2783
 4355TIP3    H134556   3.745   5.694   1.270 -0.1674  0.1160 -0.2528
 4355TIP3    H234557   3.727   5.642   1.129 -0.0670  0.0498 -0.2412
 4356TIP3   OH234558   3.892   0.408  16.098  0.0020  0.4243  0.3372
 4356TIP3    H134559   3.947   0.368  16.166 -0.2748 -1.8768 -0.6851
 4356TIP3    H234560   3.892   0.501  16.119  3.6062  0.4637  0.8616
 4357TIP3   OH234561   2.077   3.202  15.098  0.0573  0.2315  0.1734
 4357TIP3    H134562   2.061   3.138  15.167 -0.5445 -2.3452 -2.1908
 4357TIP3    H234563   2.038   3.164  15.019  2.8292  1.7875 -2.1786
 4358TIP3   OH234564   6.158   5.618  11.776  0.4187  0.4930  0.9613
 4358TIP3    H134565   6.172   5.710  11.755  2.1666  0.2521  0.9728
 4358TIP3    H234566   6.241   5.588  11.812  0.5379 -1.5957 -0.8425
 4359TIP3   OH234567   0.745   4.200   5.045  0.2066  0.2842  0.0250
 4359TIP3    H134568   0.666   4.168   5.001  0.2052  0.1257  0.1426
 4359TIP3    H234569   0.785   4.260   4.982 -0.7291  1.4367  0.4880
 4360TIP3   OH234570   2.771   4.934   4.648 -0.3149  0.4657  0.3481
 4360TIP3    H134571   2.763   4.948   4.742 -0.3098 -0.7500  0.5411
 4360TIP3    H234572   2.710   4.862   4.629  1.0478 -0.5661 -0.2472
 4361TIP3   OH234573   4.123   2.197   3.927 -0.2928 -0.3723 -0.8093
 4361TIP3    H134574   4.075   2.154   3.856 -2.4184  1.4375 -0.5693
 4361TIP3    H234575   4.073   2.177   4.006 -0.4643  1.2121 -0.4839
 4362TIP3   OH234576   4.111   0.742  13.522  0.3216 -0.0408 -0.6063
 4362TIP3    H134577   4.120   0.665  13.465  0.3351 -0.0218 -0.6297
 4362TIP3    H234578   4.134   0.816  13.466 -2.5234  0.3132 -1.5042
 4363TIP3   OH234579   2.956   0.554   1.509  0.3068 -0.9795 -0.3152
 4363TIP3    H134580   2.864   0.581   1.502  0.5160 -0.1183  0.1420
 4363TIP3    H234581   2.981   0.577   1.598  1.4183  0.2854 -0.9124
 4364TIP3   OH234582   6.490   3.344  13.921 -0.2363 -0.3696  1.0690
 4364TIP3    H134583   6.441   3.269  13.956 -1.3074  0.4421  1.3866
 4364TIP3    H234584   6.484   3.334  13.826 -1.0043 -0.3161  1.1002
 4365TIP3   OH234585   0.142   2.700  12.048 -0.1564  0.3772 -0.0833
 4365TIP3    H134586   0.146   2.606  12.068  1.1944  0.3350 -0.5147
 4365TIP3    H234587   0.088   2.705  11.969  0.5340 -0.1375 -0.6010
 4366TIP3   OH234588   1.856   4.091  14.949  0.2798 -0.1007 -0.0210
 4366TIP3    H134589   1.901   4.020  14.903 -0.7629 -0.5648 -0.3544
 4366TIP3    H234590   1.806   4.136  14.881  0.1156  0.3066  0.3610
 4367TIP3   OH234591   3.817   0.677  15.290  0.3710 -0.0158  0.7193
 4367TIP3    H134592   3.758   0.752  15.295 -1.7561 -1.6079  0.9993
 4367TIP3    H234593   3.874   0.696  15.215 -1.7105  0.8239 -0.7491
 4368TIP3   OH234594   0.487   5.258  15.912 -0.3384 -0.3575 -0.1441
 4368TIP3    H134595   0.468   5.175  15.869  1.8920 -1.1258  0.2447
 4368TIP3    H234596   0.575   5.247  15.949  0.8223  2.7413 -1.5897
 4369TIP3   OH234597   6.807   6.220  15.581  0.4656 -0.2973  0.0598
 4369TIP3    H134598   6.729   6.273  15.567 -0.0601 -1.5849 -2.3794
 4369TIP3    H234599   6.811   6.208  15.676 -0.6556  2.1324  0.4971
 4370TIP3   OH234600   0.999   0.504   3.159 -0.2714  0.0620  0.0847
 4370TIP3    H134601   1.085   0.467   3.181  0.5969  2.3595  0.8672
 4370TIP3    H234602   0.953   0.510   3.242 -1.2278 -1.1354 -0.3280
 4371TIP3   OH234603   3.094   4.167  11.211 -0.0989 -0.3046 -0.3849
 4371TIP3    H134604   3.147   4.193  11.286  0.2594 -1.1216 -0.3375
 4371TIP3    H234605   3.148   4.103  11.165  0.3052  1.2240 -2.1625
 4372TIP3   OH234606   6.635   3.195  12.392  0.6625  0.2876  0.0727
 4372TIP3    H134607   6.606   3.238  12.472 -3.4304  0.0284 -1.0491
 4372TIP3    H234608   6.635   3.264  12.326  1.2141 -0.0512 -0.2873
 4373TIP3   OH234609   3.631   2.045  11.673 -0.2889 -0.0418  0.1642
 4373TIP3    H134610   3.632   1.971  11.612 -0.1795 -1.5071  1.8408
 4373TIP3    H234611   3.581   2.012  11.748  1.6804  0.7773  1.9137
 4374TIP3   OH234612   3.199   4.677  16.152  0.1420  0.4053 -0.8401
 4374TIP3    H134613   3.210   4.756  16.098 -0.9571 -0.0782 -1.8275
 4374TIP3    H234614   3.254   4.612  16.109  0.7858  0.5259 -0.2194
 4375TIP3   OH234615   0.371   5.563  15.795 -0.4883  0.1192 -0.4977
 4375TIP3    H134616   0.456   5.529  15.769 -0.2710 -0.8156  1.3178
 4375TIP3    H234617   0.309   5.495  15.770 -0.6314  0.4621 -1.1074
 4376TIP3   OH234618   4.539   1.313   3.998  0.0136  0.1616 -0.6741
 4376TIP3    H134619   4.497   1.260   3.931  0.0603  0.0837 -0.6422
 4376TIP3    H234620   4.478   1.386   4.013 -0.5927 -0.4932  0.1031
 4377TIP3   OH234621   2.564   4.799  14.686  0.0391  0.1850 -0.2180
 4377TIP3    H134622   2.490   4.790  14.747  2.1079 -0.8739  2.3376
 4377TIP3    H234623   2.637   4.827  14.741  1.3819  2.2691 -2.8285
 4378TIP3   OH234624   2.729   4.504   1.361 -0.3605 -0.5173 -0.1834
 4378TIP3    H134625   2.696   4.503   1.271  0.7026 -0.4556 -0.5844
 4378TIP3    H234626   2.676   4.439   1.406 -0.5804 -0.9049 -0.9785
 4379TIP3   OH234627   0.741   2.815   2.132 -0.2324 -0.0655  0.4378
 4379TIP3    H134628   0.827   2.821   2.089 -1.7923 -1.4236 -3.3633
 4379TIP3    H234629   0.742   2.730   2.175 -0.9269 -2.1745 -3.2895
 4380TIP3   OH234630   3.771   2.906   2.258  0.5359  0.0134 -0.0369
 4380TIP3    H134631   3.762   2.886   2.165  3.4478  1.2029 -0.6977
 4380TIP3    H234632   3.857   2.947   2.265 -0.7194  2.5498  2.7539
 4381TIP3   OH234633   6.368   3.730   6.521  0.1449 -0.6695  1.1942
 4381TIP3    H134634   6.322   3.702   6.442 -2.7700  0.3767  2.3982
 4381TIP3    H234635   6.328   3.680   6.591  0.7397  0.4369  2.3551
 4382TIP3   OH234636   1.534   4.195  15.619 -0.1868 -0.3347  0.3944
 4382TIP3    H134637   1.452   4.208  15.666  0.9499 -0.4963  2.5439
 4382TIP3    H234638   1.591   4.150  15.682  1.1442 -1.3714 -1.4592
 4383TIP3   OH234639   6.535   3.437   0.621  0.6848 -0.0610 -0.1304
 4383TIP3    H134640   6.529   3.403   0.532  0.2000 -0.5768  0.0936
 4383TIP3    H234641   6.470   3.388   0.670 -0.3590  1.5025  0.1145
 4384TIP3   OH234642   0.869   2.192  16.340 -0.6201  0.1698 -0.2977
 4384TIP3    H134643   0.934   2.260  16.322 -0.5622  0.0273 -0.6512
 4384TIP3    H234644   0.882   2.169  16.431  0.7291 -0.7941 -0.7090
 4385TIP3   OH234645   2.503   5.285   0.956 -0.2284  0.4241 -0.2184
 4385TIP3    H134646   2.453   5.367   0.955 -1.7125 -0.4252  0.5393
 4385TIP3    H234647   2.593   5.312   0.939 -0.7375  2.1613 -0.4149
 4386TIP3   OH234648   0.135   2.908   4.946 -0.2541 -0.5366  0.3168
 4386TIP3    H134649   0.120   2.900   5.040  0.0487 -1.2287  0.3114
 4386TIP3    H234650   0.189   2.832   4.924  0.4723  0.1246 -0.2494
 4387TIP3   OH234651   5.760   2.235   5.546 -1.0491  0.0911  0.2007
 4387TIP3    H134652   5.729   2.305   5.489  0.2545  2.1217  1.8445
 4387TIP3    H234653   5.680   2.189   5.572 -1.7013 -1.0683 -3.2501
 4388TIP3   OH234654   2.587   0.618   4.203  0.6197 -0.1681 -0.5074
 4388TIP3    H134655   2.667   0.629   4.255  0.0794 -0.8619  0.4825
 4388TIP3    H234656   2.559   0.708   4.185  1.9065  0.1044 -1.3507
 4389TIP3   OH234657   1.066   0.023  15.593  0.2570  0.1306 -0.1968
 4389TIP3    H134658   1.013  -0.027  15.655  1.4119 -0.9390 -0.0554
 4389TIP3    H234659   1.005   0.044  15.522 -0.6378 -0.1037  0.4796
 4390TIP3   OH234660   0.129   3.252   5.843 -0.4747  0.0121 -0.5034
 4390TIP3    H134661   0.209   3.221   5.886  0.0150 -0.2728 -1.5897
 4390TIP3    H234662   0.089   3.311   5.907 -0.2745 -1.1373  0.7265
 4391TIP3   OH234663   1.393   5.589  14.253 -0.0567 -0.3136 -0.2761
 4391TIP3    H134664   1.422   5.570  14.164 -0.5121 -2.4650 -0.0187
 4391TIP3    H234665   1.388   5.503  14.295 -0.5404  0.5984  1.6152
 4392TIP3   OH234666   1.152   0.755   0.354 -0.3753 -0.5512  0.1574
 4392TIP3    H134667   1.111   0.701   0.287  1.0592 -1.4823 -0.0003
 4392TIP3    H234668   1.161   0.697   0.430 -0.2179 -0.0717  0.5109
 4393TIP3   OH234669   4.823   4.190   2.385 -0.7785 -0.1838 -0.1347
 4393TIP3    H134670   4.904   4.235   2.361 -1.4468 -0.5246 -3.4492
 4393TIP3    H234671   4.851   4.101   2.406 -0.1240  0.2090  0.7555
 4394TIP3   OH234672   3.451   3.781  15.507  0.5855 -0.1607 -0.4396
 4394TIP3    H134673   3.423   3.695  15.536  0.9723 -0.1071  0.1150
 4394TIP3    H234674   3.443   3.837  15.584 -0.5331  0.5244 -1.0273
 4395TIP3   OH234675   0.418   4.444   5.196 -0.4011 -0.0925  0.0973
 4395TIP3    H134676   0.465   4.522   5.168 -1.0731  0.0919 -0.5592
 4395TIP3    H234677   0.327   4.460   5.169 -0.8911 -0.3560  1.4741
 4396TIP3   OH234678   0.532   3.866  13.989 -0.0485 -0.1122 -0.2660
 4396TIP3    H134679   0.511   3.908  13.906  0.3387 -0.0730 -0.3442
 4396TIP3    H234680   0.615   3.821  13.973 -1.5273 -2.8627 -0.9102
 4397TIP3   OH234681   0.714   5.352   1.086  0.4249  0.2522  0.4104
 4397TIP3    H134682   0.702   5.441   1.119 -0.9745  0.0007  0.6332
 4397TIP3    H234683   0.738   5.363   0.994  1.4680  0.8813  0.7489
 4398TIP3   OH234684   0.661   5.175  14.581  0.1041 -0.5185  0.7013
 4398TIP3    H134685   0.578   5.214  14.553 -0.1362 -1.6275 -0.1824
 4398TIP3    H234686   0.705   5.151  14.500  1.3313  0.1124  1.1620
 4399TIP3   OH234687   5.483   3.657  15.657 -0.1529 -0.2523 -0.1264
 4399TIP3    H134688   5.465   3.713  15.732  0.0206  0.4434 -0.5938
 4399TIP3    H234689   5.577   3.641  15.661  0.2124  1.3405 -1.2233
 4400TIP3   OH234690   5.977   1.878  16.620  0.3962 -0.9972  0.2848
 4400TIP3    H134691   5.954   1.799  16.669  1.6105 -0.7219  1.3530
 4400TIP3    H234692   5.902   1.936  16.631  0.2928 -1.2741  1.1146
 4401TIP3   OH234693   6.808   0.168   2.656 -0.5993  0.3550 -0.4186
 4401TIP3    H134694   6.803   0.256   2.618 -0.6070  0.0556 -1.1260
 4401TIP3    H234695   6.797   0.182   2.750 -1.8010  0.9968 -0.6387
 4402TIP3   OH234696   0.889   4.520   3.259 -0.1813  0.0802 -1.0313
 4402TIP3    H134697   0.948   4.529   3.334 -1.8273  0.5998  0.2560
 4402TIP3    H234698   0.901   4.601   3.209  0.5469 -0.0415 -1.0603
 4403TIP3   OH234699   4.769   3.250  12.948  0.1564  0.2095  0.4078
 4403TIP3    H134700   4.740   3.293  13.028  0.9644  0.3164  0.6546
 4403TIP3    H234701   4.697   3.262  12.886  0.1829  1.5414  0.6086
 4404TIP3   OH234702   3.856   2.611  12.630 -0.6997  0.0198  0.3387
 4404TIP3    H134703   3.907   2.675  12.679 -0.4335  0.2591 -0.2328
 4404TIP3    H234704   3.795   2.574  12.694 -0.5286  0.4988  0.7859
 4405TIP3   OH234705   3.594   3.959   0.623 -0.4189 -0.0843  0.1645
 4405TIP3    H134706   3.615   3.939   0.532  0.6700 -1.1754  0.6307
 4405TIP3    H234707   3.513   3.911   0.641  0.3843 -1.4483  0.2956
 4406TIP3   OH234708   2.666   6.554  13.112 -0.5911  0.3631 -0.8664
 4406TIP3    H134709   2.694   6.584  13.199  0.6680 -0.1666 -1.0693
 4406TIP3    H234710   2.634   6.633  13.069 -1.3082  0.6246  0.0957
 4407TIP3   OH234711   5.748   6.535  14.903  0.2481 -0.7628  0.8948
 4407TIP3    H134712   5.663   6.491  14.901 -0.5211  0.3103  3.9684
 4407TIP3    H234713   5.798   6.487  14.968  1.4031 -0.3851  0.3006
 4408TIP3   OH234714   4.718   6.519  12.444  0.5976 -0.5861 -0.5978
 4408TIP3    H134715   4.721   6.457  12.371  1.0226 -1.0999 -0.1599
 4408TIP3    H234716   4.651   6.583  12.420 -0.8764 -2.0098 -0.4492
 4409TIP3   OH234717   5.618   4.694  15.572 -0.0951  0.1053 -0.2289
 4409TIP3    H134718   5.666   4.638  15.634  0.5723  0.1547 -0.6854
 4409TIP3    H234719   5.564   4.750  15.627  0.9430  0.5669  0.3481
 4410TIP3   OH234720   6.751   6.643  10.925 -0.4740  0.6512  0.0408
 4410TIP3    H134721   6.685   6.598  10.871 -0.6896 -0.2278  1.0165
 4410TIP3    H234722   6.826   6.654  10.867 -0.2356 -1.4185 -0.0938
 4411TIP3   OH234723   1.931   5.597  15.388 -0.1179 -0.0374 -0.2567
 4411TIP3    H134724   1.969   5.681  15.414 -0.1070 -0.5551  1.5465
 4411TIP3    H234725   1.836   5.614  15.386 -0.0182  0.5149 -1.9445
 4412TIP3   OH234726   4.449   6.741  15.612  0.2521  0.2706 -0.3596
 4412TIP3    H134727   4.464   6.802  15.540  1.8757 -0.1123 -0.3753
 4412TIP3    H234728   4.369   6.773  15.654  1.6895  3.2348  0.4278
 4413TIP3   OH234729   2.088   6.000   3.279  0.1184 -0.4464 -0.5787
 4413TIP3    H134730   2.106   6.093   3.288 -1.2176 -0.3121  1.3896
 4413TIP3    H234731   2.172   5.961   3.255  0.7259  1.2199 -1.3004
 4414TIP3   OH234732   4.818   2.719  10.054 -0.0278 -0.5299 -0.4970
 4414TIP3    H134733   4.827   2.649   9.989 -1.4183 -0.6745 -0.5653
 4414TIP3    H234734   4.908   2.737  10.082  0.7064  0.1077 -3.0243
 4415TIP3   OH234735   6.205   0.874   1.373 -0.4489  0.3423 -0.1752
 4415TIP3    H134736   6.275   0.842   1.429  0.7084  0.9473 -1.2295
 4415TIP3    H234737   6.189   0.802   1.312  0.5029  0.8412 -1.0429
 4416TIP3   OH234738   4.927   2.491   1.767  0.0382  0.1410 -0.4761
 4416TIP3    H134739   4.974   2.573   1.758 -1.1616  0.9041 -0.0039
 4416TIP3    H234740   4.910   2.483   1.861 -1.1987  0.1447 -0.6854
 4417TIP3   OH234741   6.236   3.213  13.985  0.4585 -0.0149  0.5818
 4417TIP3    H134742   6.161   3.171  13.943  1.5719 -1.5929  0.1104
 4417TIP3    H234743   6.271   3.147  14.045  2.0185  0.3403  0.1061
 4418TIP3   OH234744   2.807   1.832   2.336  0.3673  0.2476 -0.2213
 4418TIP3    H134745   2.877   1.866   2.392  0.6760  0.1867 -0.5651
 4418TIP3    H234746   2.727   1.848   2.385  0.5584  0.9814 -0.1383
 4419TIP3   OH234747   3.957   0.850   5.364  0.0285  0.0767 -0.3755
 4419TIP3    H134748   3.991   0.938   5.378 -1.5299  0.6122  0.3823
 4419TIP3    H234749   3.906   0.832   5.444  1.9288 -2.3290  0.4090
 4420TIP3   OH234750   3.504   0.840   4.579 -0.7841  0.1531 -0.0961
 4420TIP3    H134751   3.513   0.809   4.489  0.1677  0.8678 -0.2669
 4420TIP3    H234752   3.448   0.917   4.572  2.3524  2.5766 -0.7013
 4421TIP3   OH234753   5.094   4.077  12.319 -0.4044  0.4538 -0.0800
 4421TIP3    H134754   4.999   4.077  12.336 -0.4427 -0.3627 -0.2872
 4421TIP3    H234755   5.102   4.104  12.228 -0.4886 -0.4059 -0.3416
 4422TIP3   OH234756   3.507   3.822  12.586 -0.1396 -0.4124  0.3122
 4422TIP3    H134757   3.567   3.780  12.648  0.1659 -0.3994  0.0265
 4422TIP3    H234758   3.435   3.760  12.576 -1.2920  0.5038  2.3571
 4423TIP3   OH234759   5.688   6.219  11.610  0.3362  0.3474  0.2251
 4423TIP3    H134760   5.783   6.229  11.612  0.6636 -1.6483 -1.6303
 4423TIP3    H234761   5.661   6.257  11.527 -0.6682  1.7732  1.1554
 4424TIP3   OH234762   4.749   6.592   4.275 -0.1858 -0.5815 -0.1335
 4424TIP3    H134763   4.800   6.654   4.223 -0.0193  0.1411  0.8455
 4424TIP3    H234764   4.811   6.524   4.300  0.0350 -0.2852  0.1331
 4425TIP3   OH234765   3.411   4.795  16.847  0.5610  0.0515  0.2840
 4425TIP3    H134766   3.328   4.774  16.891 -0.1579  0.8549 -0.6466
 4425TIP3    H234767   3.407   4.747  16.764  1.1162 -0.0348  0.3008
 4426TIP3   OH234768   6.780   1.963   1.700  0.5385  0.2205 -0.0473
 4426TIP3    H134769   6.715   1.904   1.738  1.0119  0.6560  1.5258
 4426TIP3    H234770   6.808   1.919   1.619 -2.5196  0.6015 -1.4353
 4427TIP3   OH234771   6.746   1.723  12.080 -0.5122  0.3233  0.0094
 4427TIP3    H134772   6.752   1.646  12.024 -1.0501 -1.6573  2.5069
 4427TIP3    H234773   6.663   1.764  12.055 -1.0605 -0.8799 -0.2231
 4428TIP3   OH234774   6.197   3.897   0.102 -0.3534 -0.4622 -0.2495
 4428TIP3    H134775   6.248   3.934   0.174 -0.3705  0.6691 -0.8106
 4428TIP3    H234776   6.160   3.972   0.057  0.1344 -1.1282 -1.8103
 4429TIP3   OH234777   2.417   5.394  14.252 -0.2616 -0.1694  0.1461
 4429TIP3    H134778   2.439   5.313  14.297  2.2563  0.1647 -0.2908
 4429TIP3    H234779   2.322   5.399  14.254 -0.3665 -1.8947  2.3053
 4430TIP3   OH234780   2.010   5.903  15.909  0.1109  0.2053  1.0063
 4430TIP3    H134781   2.026   5.879  15.818 -0.0803 -1.1771  1.3180
 4430TIP3    H234782   2.063   5.842  15.960 -1.7391 -0.7673  1.8836
 4431TIP3   OH234783   5.380   1.564  16.114  0.4359 -0.3794  0.5243
 4431TIP3    H134784   5.325   1.486  16.118  0.1943 -0.3915 -1.7179
 4431TIP3    H234785   5.443   1.545  16.045 -0.8863  2.1014 -1.5437
 4432TIP3   OH234786   5.780   5.589  13.082 -0.6543  0.0849  0.0788
 4432TIP3    H134787   5.755   5.648  13.153  1.4464 -0.7582  1.6258
 4432TIP3    H234788   5.875   5.588  13.084 -0.5358 -0.4575 -2.4067
 4433TIP3   OH234789   3.378   1.837  13.170 -0.5305  0.4301  0.0983
 4433TIP3    H134790   3.385   1.917  13.222  0.6146  0.3489  0.0951
 4433TIP3    H234791   3.456   1.786  13.194  0.7084  0.9260 -2.5998
 4434TIP3   OH234792   0.234   0.375  17.067 -0.5765 -1.1170 -0.0523
 4434TIP3    H134793   0.318   0.422  17.068 -1.2609  0.1600 -0.2072
 4434TIP3    H234794   0.230   0.336  16.980 -0.4155 -0.6395 -0.2798
 4435TIP3   OH234795   0.292   6.056   4.795 -0.0117  0.5277  0.0906
 4435TIP3    H134796   0.326   5.972   4.826  0.4805  1.2084  1.4619
 4435TIP3    H234797   0.349   6.079   4.722 -1.2776 -1.1701 -1.5482
 4436TIP3   OH234798   4.846   3.440  10.337 -0.0749  0.3409  0.2860
 4436TIP3    H134799   4.800   3.366  10.298  1.4061 -1.8072  2.3043
 4436TIP3    H234800   4.813   3.444  10.427  0.4442  1.6410  0.4359
 4437TIP3   OH234801   2.353   3.410  11.145  0.2705 -0.4420 -0.2991
 4437TIP3    H134802   2.414   3.479  11.120  0.0936  0.0500  0.5980
 4437TIP3    H234803   2.267   3.451  11.140  0.0240 -1.0493 -1.2705
 4438TIP3   OH234804   2.235   4.986  13.538  0.4378 -0.0444  0.8474
 4438TIP3    H134805   2.270   4.980  13.449  1.4326 -1.4137  1.2919
 4438TIP3    H234806   2.300   5.039  13.585 -1.2877  2.8295  0.2682
 4439TIP3   OH234807   2.158   5.465  14.228 -0.5281  0.5020  0.0310
 4439TIP3    H134808   2.104   5.412  14.170  0.1268 -0.6594  0.4541
 4439TIP3    H234809   2.128   5.444  14.316 -0.1203  0.6761  0.2185
 4440TIP3   OH234810   1.924   5.935   2.029  0.2073  0.2285  0.1965
 4440TIP3    H134811   1.914   5.875   1.955  0.5521 -0.7884  0.9531
 4440TIP3    H234812   1.907   5.881   2.107  0.9498  1.0014  0.9158
 4441TIP3   OH234813   0.503   6.016   3.148  0.4490  0.0266  0.2304
 4441TIP3    H134814   0.487   6.022   3.242 -1.6980 -0.1888 -0.0732
 4441TIP3    H234815   0.450   5.941   3.119  1.6527 -0.3927 -1.0539
 4442TIP3   OH234816   4.255   2.507   3.231 -0.2175  0.0166  0.2043
 4442TIP3    H134817   4.250   2.451   3.309 -0.1274 -0.2561  0.0190
 4442TIP3    H234818   4.188   2.573   3.245  0.8842  0.9452  1.2552
 4443TIP3   OH234819   3.477   1.458   5.478  0.0222  0.0346  0.5405
 4443TIP3    H134820   3.426   1.497   5.407 -0.0466 -0.3556  0.3715
 4443TIP3    H234821   3.461   1.515   5.553 -2.8600 -1.5129  1.2557
 4444TIP3   OH234822   1.692   1.309  13.221 -0.2837  0.3980  0.5372
 4444TIP3    H134823   1.760   1.369  13.252  0.4456 -0.1953  0.1122
 4444TIP3    H234824   1.726   1.222  13.239 -1.8778  0.0650  2.3328
 4445TIP3   OH234825   0.647   3.769   1.624 -0.4078  0.1420  0.2944
 4445TIP3    H134826   0.579   3.796   1.686  0.0479  0.9201  0.4797
 4445TIP3    H234827   0.729   3.797   1.665 -0.0837  0.5218 -0.5758
 4446TIP3   OH234828   2.400   3.391  11.419 -0.2187  0.6844  0.2018
 4446TIP3    H134829   2.387   3.411  11.326 -1.3143 -0.7330  0.0143
 4446TIP3    H234830   2.413   3.477  11.460 -1.2245  1.4650 -1.0313
 4447TIP3   OH234831   4.913   4.479  14.449 -0.1844  0.7118 -0.0492
 4447TIP3    H134832   4.996   4.436  14.429 -0.0047  0.5027  1.0712
 4447TIP3    H234833   4.848   4.409  14.447 -0.0677  0.5736  0.6701
 4448TIP3   OH234834   5.991   1.236  15.492 -0.0678 -0.8025 -0.0912
 4448TIP3    H134835   5.971   1.323  15.457 -2.2418 -1.1731  0.1238
 4448TIP3    H234836   5.906   1.199  15.516  0.9816 -2.2072  1.7193
 4449TIP3   OH234837   2.520   3.603   3.626 -0.0926  0.0716  0.5435
 4449TIP3    H134838   2.436   3.591   3.582 -0.4827  0.9467  1.0322
 4449TIP3    H234839   2.582   3.622   3.555 -0.1472 -1.2212  0.1113
 4450TIP3   OH234840   3.480   3.184   4.467 -0.2299 -0.0976 -0.5366
 4450TIP3    H134841   3.565   3.141   4.465  0.6707  1.5276  0.3806
 4450TIP3    H234842   3.485   3.250   4.397 -1.0590 -0.5379 -1.0233
 4451TIP3   OH234843   1.983   2.080   3.136 -0.0327 -0.1877 -0.1785
 4451TIP3    H134844   1.911   2.051   3.192 -1.6501  3.6384 -0.0052
 4451TIP3    H234845   2.053   2.102   3.198 -0.3064  0.1217  0.0257
 4452TIP3   OH234846   4.329   0.461  14.452 -0.1186 -0.1557  0.3565
 4452TIP3    H134847   4.313   0.367  14.458 -0.2573 -0.2474 -1.0132
 4452TIP3    H234848   4.242   0.500  14.442 -0.0141  0.0367  0.1758
 4453TIP3   OH234849   2.524   1.199  14.905 -0.4944  0.1346  0.1999
 4453TIP3    H134850   2.524   1.278  14.852  0.2950  1.9538  2.7113
 4453TIP3    H234851   2.435   1.194  14.941 -0.3113  0.3785  0.6980
 4454TIP3   OH234852   5.777   5.011  16.625 -0.4026  0.2381  0.1783
 4454TIP3    H134853   5.723   5.002  16.546 -1.7866  0.9706  1.0091
 4454TIP3    H234854   5.763   5.102  16.653  1.0433  0.3591  0.5941
 4455TIP3   OH234855   1.372   3.333  13.048 -0.0857 -0.7725  0.2941
 4455TIP3    H134856   1.333   3.247  13.031 -0.5617 -0.7597  1.2177
 4455TIP3    H234857   1.300   3.395  13.033  0.2090 -0.5396 -0.2022
 4456TIP3   OH234858   5.816   4.508  16.945 -0.0054  0.4378 -0.1997
 4456TIP3    H134859   5.824   4.416  16.919  0.4702  0.5549 -0.4873
 4456TIP3    H234860   5.746   4.543  16.890 -0.6998  0.0672  0.4296
 4457TIP3   OH234861   3.046   0.045   0.436 -0.2074 -0.3493 -0.3460
 4457TIP3    H134862   2.994   0.118   0.469  1.1247  0.2174  0.5894
 4457TIP3    H234863   3.137   0.072   0.451  0.4150 -1.0110 -2.5021
 4458TIP3   OH234864   2.389   1.568  13.205 -0.1127 -0.4638 -0.0998
 4458TIP3    H134865   2.323   1.636  13.216 -0.8930 -0.8319 -2.0793
 4458TIP3    H234866   2.444   1.599  13.133  0.6528 -1.0841  0.2005
 4459TIP3   OH234867   6.447   1.188  11.459  0.1910  0.4078 -0.1513
 4459TIP3    H134868   6.487   1.218  11.377 -0.1561  0.9623 -0.1184
 4459TIP3    H234869   6.501   1.227  11.528  1.6572 -1.6052 -0.0889
 4460TIP3   OH234870   2.554   0.895   4.163  0.0743  0.2592 -0.4652
 4460TIP3    H134871   2.581   0.969   4.218 -0.8732  1.6958 -1.8667
 4460TIP3    H234872   2.606   0.905   4.083  2.0352 -2.2707  0.3670
 4461TIP3   OH234873   2.402   1.478   0.314  0.4077 -0.9050 -0.1770
 4461TIP3    H134874   2.358   1.531   0.380 -0.7227 -0.1083 -1.5055
 4461TIP3    H234875   2.331   1.429   0.272  0.6369  0.6561 -2.6066
 4462TIP3   OH234876   3.222   0.316  15.150  0.3120 -0.3573  0.1754
 4462TIP3    H134877   3.167   0.372  15.096 -0.1142 -0.2334  0.7278
 4462TIP3    H234878   3.282   0.376  15.194 -0.2906 -0.2984  0.9371
 4463TIP3   OH234879   5.137   0.368  14.556  0.0339 -0.1354 -0.0277
 4463TIP3    H134880   5.156   0.460  14.541  2.4208 -0.5365  0.1139
 4463TIP3    H234881   5.086   0.341  14.479 -0.3502  1.1789 -0.2619
 4464TIP3   OH234882   0.142   1.772   0.626 -0.2085 -0.4927 -0.1888
 4464TIP3    H134883   0.201   1.836   0.666  0.3314 -1.6999  1.0432
 4464TIP3    H234884   0.088   1.823   0.567  1.2020  0.8680 -0.3763
 4465TIP3   OH234885   6.605   2.556  11.470 -0.2497  0.2193 -0.6180
 4465TIP3    H134886   6.519   2.532  11.505  0.1536 -1.2007 -0.5279
 4465TIP3    H234887   6.643   2.472  11.443  2.1971  0.4256  1.8266
 4466TIP3   OH234888   0.370   5.093  12.165  0.2613  0.3227 -0.4457
 4466TIP3    H134889   0.282   5.084  12.202  0.5729 -1.5334 -0.0547
 4466TIP3    H234890   0.425   5.034  12.218  1.7878  1.5465 -0.5816
 4467TIP3   OH234891   2.111   6.682  13.081 -0.1309 -1.4651  0.2426
 4467TIP3    H134892   2.198   6.652  13.056 -0.5037 -2.0838 -0.3427
 4467TIP3    H234893   2.055   6.605  13.070 -1.3696 -0.2830 -2.5947
 4468TIP3   OH234894   2.500   0.357  11.077 -0.0951  0.4745  0.3229
 4468TIP3    H134895   2.538   0.294  11.016 -0.1974 -1.0550  1.7519
 4468TIP3    H234896   2.574   0.390  11.127 -0.1804  0.6490  0.3371
 4469TIP3   OH234897   3.286   3.036   0.819 -0.7562 -0.2476 -0.5098
 4469TIP3    H134898   3.344   2.962   0.799  0.0873 -0.3828  2.1068
 4469TIP3    H234899   3.199   2.997   0.825 -0.5083 -0.7985 -0.4509
 4470TIP3   OH234900   1.980   1.534   5.665  0.4506 -0.6577  0.2184
 4470TIP3    H134901   1.913   1.489   5.716 -0.4837  1.0203  0.5327
 4470TIP3    H234902   2.047   1.557   5.729 -1.0591  2.1035  0.9833
 4471TIP3   OH234903   6.134   4.245  16.117 -0.5881 -0.2421 -0.1722
 4471TIP3    H134904   6.210   4.261  16.173 -0.2872  0.9216 -0.8912
 4471TIP3    H234905   6.058   4.258  16.175 -0.2844  0.9957 -0.0256
 4472TIP3   OH234906   3.850   5.015  12.102 -0.2850 -0.4665 -0.7839
 4472TIP3    H134907   3.851   4.924  12.072  0.0243 -0.7526  0.0649
 4472TIP3    H234908   3.896   5.013  12.186  1.5541  0.8206 -1.6957
 4473TIP3   OH234909   3.688   4.008  14.277  0.0736  0.2709  0.0186
 4473TIP3    H134910   3.777   4.015  14.241  0.7175 -0.4627  1.3688
 4473TIP3    H234911   3.642   3.951  14.216  1.4197 -1.7316  0.7754
 4474TIP3   OH234912   5.375   0.552  14.177  0.4159  0.1288  0.2698
 4474TIP3    H134913   5.282   0.535  14.192  0.1328  0.2077 -1.2286
 4474TIP3    H234914   5.416   0.466  14.181 -0.2243 -0.3732 -2.0925
 4475TIP3   OH234915   6.182   4.488   6.616 -0.0626  0.5926 -0.0078
 4475TIP3    H134916   6.190   4.580   6.644  0.3896  0.3542  0.6806
 4475TIP3    H234917   6.272   4.458   6.606 -0.2133  0.3482 -0.6694
 4476TIP3   OH234918   2.294   3.911   4.868  0.8712 -0.1259 -0.0909
 4476TIP3    H134919   2.270   3.883   4.779  0.0639 -0.1393  0.1313
 4476TIP3    H234920   2.389   3.927   4.862  1.0509 -1.2501 -0.6599
 4477TIP3   OH234921   3.914   5.734   2.606  0.3120  0.9815 -0.3808
 4477TIP3    H134922   3.915   5.688   2.690  2.0705  0.0544 -0.8558
 4477TIP3    H234923   3.822   5.739   2.582 -0.1100  0.0627  0.9719
 4478TIP3   OH234924   5.873   0.344  13.366 -0.2208  0.3393  0.2220
 4478TIP3    H134925   5.943   0.282  13.345  0.6107  1.0260  0.8833
 4478TIP3    H234926   5.904   0.389  13.445 -1.7216  0.1763  0.9360
 4479TIP3   OH234927   2.421   3.659   0.241  0.3884  0.1929  0.5682
 4479TIP3    H134928   2.443   3.696   0.155  0.4320  1.2314  1.0168
 4479TIP3    H234929   2.342   3.705   0.268  1.2402  1.0012  1.7702
 4480TIP3   OH234930   0.217   6.285  14.558 -0.3129  0.4837 -0.0558
 4480TIP3    H134931   0.186   6.241  14.637 -0.6761  1.9501  0.6558
 4480TIP3    H234932   0.267   6.218  14.511  0.0344 -0.3814  1.4787
 4481TIP3   OH234933   1.893   0.808   6.609  0.0173  0.0788 -0.2611
 4481TIP3    H134934   1.805   0.826   6.579 -0.0915 -2.0468 -1.4569
 4481TIP3    H234935   1.915   0.881   6.666 -2.9809  0.0599  1.1055
 4482TIP3   OH234936   4.614   0.968   5.137 -0.3273  0.0866  0.7041
 4482TIP3    H134937   4.562   0.958   5.217 -1.0250  0.7029  0.3374
 4482TIP3    H234938   4.581   0.899   5.079 -0.8974  0.6087  0.3951
 4483TIP3   OH234939   4.046   4.029  17.216 -0.3039 -0.7805 -0.0308
 4483TIP3    H134940   4.031   4.117  17.183  0.5749  0.3965  2.4606
 4483TIP3    H234941   3.959   3.992  17.228 -1.0205  1.6113  3.3800
 4484TIP3   OH234942   5.703   5.236   1.898 -0.0506 -0.8611  0.2973
 4484TIP3    H134943   5.712   5.284   1.816 -1.0388 -0.7703  0.2343
 4484TIP3    H234944   5.614   5.253   1.926 -0.2451 -2.2017  0.5614
 4485TIP3   OH234945   1.480   0.560  13.172 -0.1317 -0.0174 -0.0511
 4485TIP3    H134946   1.405   0.619  13.165 -1.3341 -1.5730 -1.1189
 4485TIP3    H234947   1.554   0.617  13.193 -1.2635  1.8300 -0.8301
 4486TIP3   OH234948   4.687   1.623  15.205 -0.3911 -0.3434  0.5449
 4486TIP3    H134949   4.649   1.568  15.275  0.6672 -2.4777 -0.4489
 4486TIP3    H234950   4.781   1.616  15.218 -0.1444 -1.2672 -1.3769
 4487TIP3   OH234951   0.670   2.082  12.838 -0.4922  0.2766 -0.1234
 4487TIP3    H134952   0.737   2.147  12.817  0.2513 -0.5032 -0.2245
 4487TIP3    H234953   0.691   2.007  12.782 -1.8051  0.2214 -0.5905
 4488TIP3   OH234954   5.254   6.318   4.101  0.0118  0.4188  0.2180
 4488TIP3    H134955   5.222   6.269   4.026 -0.1321  1.7892 -0.6575
 4488TIP3    H234956   5.336   6.358   4.071 -0.2477  1.2997  0.6261
 4489TIP3   OH234957   1.439   5.895   4.939 -0.3212  0.0010 -0.3185
 4489TIP3    H134958   1.473   5.949   4.868  5.9627 -2.1214  0.4870
 4489TIP3    H234959   1.411   5.814   4.896 -0.6446  0.3237 -0.7188
 4490TIP3   OH234960   0.047   3.379  16.659  0.2263 -0.3630 -0.7273
 4490TIP3    H134961   0.095   3.420  16.587 -0.6488  3.3292  0.5737
 4490TIP3    H234962   0.065   3.435  16.735 -2.0348 -1.7904  1.0009
 4491TIP3   OH234963   6.324   4.643  12.351 -0.0695  0.0461  0.7505
 4491TIP3    H134964   6.242   4.638  12.304  1.5394 -0.3147 -2.2641
 4491TIP3    H234965   6.364   4.725  12.322  1.2796 -0.5163  0.9295
 4492TIP3   OH234966   0.008   6.660  11.671  0.0612  0.2769  0.2459
 4492TIP3    H134967  -0.051   6.699  11.734 -0.2327  0.1218  0.0692
 4492TIP3    H234968   0.086   6.715  11.673 -0.5844  1.2359 -0.4397
 4493TIP3   OH234969   2.117   1.394   6.142  0.0227 -0.1857  0.3576
 4493TIP3    H134970   2.105   1.464   6.079  1.7802 -0.5189 -0.4184
 4493TIP3    H234971   2.125   1.438   6.226  0.6815  0.5249 -0.0669
 4494TIP3   OH234972   4.699   3.011   0.670  0.0920 -0.5397  0.8238
 4494TIP3    H134973   4.676   3.104   0.663 -1.2743 -0.8773  0.5167
 4494TIP3    H234974   4.722   2.999   0.762  0.4592  0.1310  0.8301
 4495TIP3   OH234975   5.617   2.006  11.299  0.5527 -0.0787  0.4365
 4495TIP3    H134976   5.592   2.098  11.305  1.6718  0.2141  0.9449
 4495TIP3    H234977   5.633   1.991  11.206 -2.6737 -0.6485 -0.1498
 4496TIP3   OH234978   6.068   1.274   5.752  0.0110  0.0401  0.2890
 4496TIP3    H134979   6.064   1.316   5.667  0.3938 -0.3779  0.0619
 4496TIP3    H234980   6.156   1.238   5.757 -0.3824 -0.9393  0.3789
 4497TIP3   OH234981   3.867   4.696  14.379 -0.2106  0.4155  0.1882
 4497TIP3    H134982   3.892   4.774  14.428 -1.3667  1.9844 -1.5552
 4497TIP3    H234983   3.913   4.624  14.422  2.0039  2.2306  1.0366
 4498TIP3   OH234984   4.273   3.886  16.545  0.0993  0.2532  0.3808
 4498TIP3    H134985   4.266   3.979  16.564  0.5224  0.5595 -0.8605
 4498TIP3    H234986   4.302   3.882  16.454  2.0101 -1.0517  0.9821
 4499TIP3   OH234987   3.227   0.830  14.475  0.7126 -0.2576 -0.4800
 4499TIP3    H134988   3.261   0.868  14.394 -1.3633  1.3002 -0.6972
 4499TIP3    H234989   3.212   0.905  14.533  0.1015 -1.1325  0.5358
 4500TIP3   OH234990   3.242   3.497   5.225  0.5055 -0.2967  0.0115
 4500TIP3    H134991   3.220   3.429   5.161 -0.3789  0.0068 -0.0249
 4500TIP3    H234992   3.221   3.579   5.180 -0.1169 -0.0810  0.6860
 4501TIP3   OH234993   4.904   4.744  14.941 -0.2378 -0.1762 -0.5662
 4501TIP3    H134994   4.953   4.767  15.020  2.1963 -2.1589 -1.3954
 4501TIP3    H234995   4.832   4.689  14.973 -0.6192  0.8687  0.4482
 4502TIP3   OH234996   2.420   0.391  14.184  0.4351 -0.0029 -0.2957
 4502TIP3    H134997   2.339   0.345  14.161  0.6025  0.0246 -0.9520
 4502TIP3    H234998   2.453   0.344  14.260 -1.0532  0.9983  1.0433
 4503TIP3   OH234999   6.202   6.521  14.084 -0.4288 -0.1975 -0.0825
 4503TIP3    H135000   6.120   6.511  14.132 -1.0514  0.3397 -1.0093
 4503TIP3    H235001   6.239   6.432  14.081 -0.8601 -0.4007  0.5349
 4504TIP3   OH235002   4.754   3.181  11.341  1.0766  0.3403  0.5012
 4504TIP3    H135003   4.689   3.224  11.397 -0.8430 -1.7912  0.0220
 4504TIP3    H235004   4.806   3.128  11.401  0.4481 -0.2244  0.5581
 4505TIP3   OH235005   2.737   0.594   3.497 -0.2475  0.2857  0.3106
 4505TIP3    H135006   2.665   0.609   3.435 -0.1258  2.3344  0.5752
 4505TIP3    H235007   2.815   0.620   3.448  0.2156 -0.9670  0.3604
 4506TIP3   OH235008   3.885   2.716  15.989 -0.1902  0.6557  0.1091
 4506TIP3    H135009   3.847   2.640  15.945  2.7728 -0.8777 -0.0249
 4506TIP3    H235010   3.889   2.691  16.081 -0.8309  1.4103  0.3536
 4507TIP3   OH235011   6.593   5.765   2.187  0.3824  0.1806  0.3091
 4507TIP3    H135012   6.575   5.784   2.279  1.8811  2.1844  0.2425
 4507TIP3    H235013   6.587   5.850   2.143  0.1219 -0.6739 -1.3876
 4508TIP3   OH235014   2.099   5.388  15.384 -0.6287 -0.2656  0.4920
 4508TIP3    H135015   2.163   5.401  15.454 -0.7087  0.4880  0.4257
 4508TIP3    H235016   2.038   5.462  15.392 -1.5693 -1.0273  0.6358
 4509TIP3   OH235017   2.153   1.971  11.379 -0.1330  0.5957 -0.2974
 4509TIP3    H135018   2.227   2.026  11.353 -0.5669  1.3202 -0.0109
 4509TIP3    H235019   2.075   2.024  11.361 -0.6569 -0.5255 -1.5263
 4510TIP3   OH235020   4.877   3.268   1.970  0.0108  0.0984 -0.1488
 4510TIP3    H135021   4.895   3.285   1.877  0.4435 -0.1659 -0.1186
 4510TIP3    H235022   4.944   3.205   1.996 -0.2331  0.0157  0.2939
 4511TIP3   OH235023   3.997   0.697   3.648  0.5821  0.3945 -0.4763
 4511TIP3    H135024   3.902   0.695   3.642  0.6038  1.8096 -2.1370
 4511TIP3    H235025   4.026   0.615   3.608  0.0598 -0.0348  0.0256
 4512TIP3   OH235026   2.060   4.601  10.580 -1.1152  0.4018  0.6026
 4512TIP3    H135027   2.132   4.665  10.577 -1.8219  1.2748 -2.9300
 4512TIP3    H235028   2.103   4.516  10.586  0.1908  0.9847 -0.0698
 4513TIP3   OH235029   5.065   5.225   5.505 -0.3546 -0.6626  0.0456
 4513TIP3    H135030   5.021   5.240   5.589 -2.4774  1.0408 -1.2493
 4513TIP3    H235031   5.120   5.302   5.493 -0.5494 -0.5850 -0.3788
 4514TIP3   OH235032   3.057   1.515   0.804  0.3558 -0.2397 -0.4952
 4514TIP3    H135033   3.078   1.456   0.877 -0.3226 -0.8116 -0.7479
 4514TIP3    H235034   2.970   1.486   0.775 -0.0943  1.0425 -0.4728
 4515TIP3   OH235035   4.974   2.830  11.960  0.0690 -0.3445  0.0599
 4515TIP3    H135036   5.018   2.755  11.920  0.0930 -0.5236  0.4233
 4515TIP3    H235037   4.914   2.792  12.024  2.0179  0.0135  2.2356
 4516TIP3   OH235038   5.169   4.792  14.553  0.3741  0.1589 -0.1321
 4516TIP3    H135039   5.239   4.742  14.510  0.8984  1.1704 -0.5071
 4516TIP3    H235040   5.162   4.755  14.640  0.2002 -1.0784 -0.6593
 4517TIP3   OH235041   6.340   5.936   1.140  0.1722  0.0167 -0.3467
 4517TIP3    H135042   6.292   5.987   1.075  0.6419  0.6615 -0.1924
 4517TIP3    H235043   6.432   5.949   1.118  0.3564  0.6543  0.7475
 4518TIP3   OH235044   1.157   5.648  10.680  0.6718  0.2988  0.3467
 4518TIP3    H135045   1.247   5.641  10.647  1.4596  0.4310  2.3524
 4518TIP3    H235046   1.105   5.599  10.617  2.5153 -2.1440  0.5683
 4519TIP3   OH235047   5.051   2.163  16.836 -0.2521 -0.0846 -0.5324
 4519TIP3    H135048   5.069   2.084  16.786  0.8149 -1.2295  1.5558
 4519TIP3    H235049   4.957   2.158  16.856 -0.4507 -0.1641 -1.4314
 4520TIP3   OH235050   5.976   6.683   0.557 -0.2495  0.4635 -0.0182
 4520TIP3    H135051   5.981   6.673   0.462 -0.2630  2.1147 -0.2305
 4520TIP3    H235052   5.981   6.594   0.591 -1.5910 -0.2937 -1.6124
 4521TIP3   OH235053   4.211   6.063  15.239 -0.7622  0.2599 -0.2053
 4521TIP3    H135054   4.206   5.977  15.197 -1.1497  0.3249 -0.2893
 4521TIP3    H235055   4.302   6.091  15.225 -0.9268  0.3644 -1.1820
 4522TIP3   OH235056   1.946   6.359  16.841  0.0703 -0.4395  0.0469
 4522TIP3    H135057   1.957   6.292  16.774 -0.1009  1.0671 -1.5527
 4522TIP3    H235058   1.929   6.440  16.792 -2.4195  0.3159  1.9479
 4523TIP3   OH235059   0.074   6.634  12.536 -0.3325  0.3513  0.0062
 4523TIP3    H135060  -0.020   6.654  12.535 -0.2040  1.0003 -0.5661
 4523TIP3    H235061   0.086   6.576  12.610 -1.2779 -0.1759 -0.2397
 4524TIP3   OH235062   3.903   3.345   4.141  0.2546 -0.0877 -0.0103
 4524TIP3    H135063   3.991   3.318   4.114 -0.3174 -1.7370 -0.3467
 4524TIP3    H235064   3.869   3.395   4.067  1.1864  1.2760  0.4470
 4525TIP3   OH235065   4.963   2.321  15.973  0.0561 -0.1397 -0.4024
 4525TIP3    H135066   4.886   2.307  16.029  0.0352  1.7933  0.1162
 4525TIP3    H235067   4.928   2.367  15.896  0.5640 -0.0354 -0.5744
 4526TIP3   OH235068   3.259   2.215  11.335  0.0332  0.4323 -0.2660
 4526TIP3    H135069   3.213   2.285  11.381 -0.3677 -0.6881  1.1389
 4526TIP3    H235070   3.191   2.171  11.284  0.2260  0.8645 -0.9049
 4527TIP3   OH235071   6.331   5.376   4.296  0.4822 -0.1536  0.1050
 4527TIP3    H135072   6.251   5.363   4.346  0.8654 -0.2451  0.7090
 4527TIP3    H235073   6.396   5.321   4.339  0.8228 -0.2412 -0.5000
 4528TIP3   OH235074   5.073   4.167   3.838 -0.7761  0.4349 -0.4202
 4528TIP3    H135075   5.082   4.257   3.870 -1.8990  0.0570  1.1372
 4528TIP3    H235076   5.003   4.130   3.892 -0.1504 -1.4653 -0.8272
 4529TIP3   OH235077   0.030   5.880  15.942  0.1413 -0.2870  0.4195
 4529TIP3    H135078   0.046   5.971  15.965  1.2473 -0.0485 -1.2076
 4529TIP3    H235079   0.115   5.838  15.949 -0.2374 -1.0589  0.5120
 4530TIP3   OH235080   6.403   4.601   5.911  0.5652 -0.3456 -0.1307
 4530TIP3    H135081   6.422   4.669   5.975  0.0884  0.1203 -0.4731
 4530TIP3    H235082   6.353   4.535   5.959 -0.6083  0.4413 -0.2202
 4531TIP3   OH235083   4.365   3.896  11.990  0.0913 -0.1892 -0.5901
 4531TIP3    H135084   4.334   3.830  12.052  0.9117  0.6043  0.7247
 4531TIP3    H235085   4.287   3.946  11.967 -0.0001  0.5513  1.1434
 4532TIP3   OH235086   5.621   1.586  15.970 -1.0529  0.0932 -0.3375
 4532TIP3    H135087   5.639   1.636  16.049 -2.0114  0.4312 -0.3238
 4532TIP3    H235088   5.666   1.502  15.984 -0.5224  0.4569  0.1932
 4533TIP3   OH235089   1.744   6.325   6.066 -0.4543 -0.2156  0.3564
 4533TIP3    H135090   1.736   6.421   6.069  0.1176 -0.1602  3.8168
 4533TIP3    H235091   1.654   6.294   6.076 -0.6533 -0.0909 -0.8682
 4534TIP3   OH235092   2.970   1.426  15.749  0.4989  1.1060 -0.0131
 4534TIP3    H135093   2.916   1.423  15.670  2.8629  0.3582 -1.7340
 4534TIP3    H235094   2.932   1.496  15.802 -3.0107 -0.3356 -0.3492
 4535TIP3   OH235095   0.421   1.590   2.210 -0.0947 -0.1779  0.8760
 4535TIP3    H135096   0.354   1.523   2.197  0.9289 -0.8294 -1.6008
 4535TIP3    H235097   0.493   1.543   2.253 -0.1154 -0.1683  0.9220
 4536TIP3   OH235098   6.244   1.815  11.103 -0.4032 -0.0101  0.3522
 4536TIP3    H135099   6.317   1.851  11.052 -0.8437  1.4115  0.6787
 4536TIP3    H235100   6.181   1.786  11.036 -0.1747  0.1087  0.0834
 4537TIP3   OH235101   4.755   4.963  17.002 -0.7464 -0.3020  0.7000
 4537TIP3    H135102   4.772   4.966  16.908 -1.4862 -0.7668  0.5417
 4537TIP3    H235103   4.812   5.031  17.039 -0.1814 -0.3647 -0.0340
 4538TIP3   OH235104   3.621   1.072   5.917 -0.3442  0.2493 -0.5600
 4538TIP3    H135105   3.663   0.998   5.872  0.5252  0.0170  0.5875
 4538TIP3    H235106   3.693   1.123   5.952 -0.9817  0.1980  0.9067
 4539TIP3   OH235107   1.456   4.416  15.966 -0.1676 -0.0549 -0.5309
 4539TIP3    H135108   1.550   4.428  15.973 -0.0435 -1.5446  0.8886
 4539TIP3    H235109   1.424   4.499  15.931  1.2061  2.1741  2.9797
 4540TIP3   OH235110   5.980   5.567  13.973 -0.7961  0.1067  0.3906
 4540TIP3    H135111   6.014   5.650  13.940 -2.0707  0.4241 -0.1985
 4540TIP3    H235112   6.053   5.528  14.020  1.2603 -0.4837 -2.9557
 4541TIP3   OH235113   4.390   1.568  12.413  0.2112  0.0338  0.1209
 4541TIP3    H135114   4.343   1.552  12.495 -0.0881 -1.3592 -0.2880
 4541TIP3    H235115   4.477   1.530  12.428  0.5114  0.7057  0.1350
 4542TIP3   OH235116   0.149   3.662  15.524 -0.5131  0.1572  0.2380
 4542TIP3    H135117   0.114   3.736  15.476 -0.2702 -0.2453 -0.5667
 4542TIP3    H235118   0.136   3.686  15.616 -0.2675  1.2751  0.0011
 4543TIP3   OH235119   1.032   2.518   2.245  0.6173 -0.6603 -0.2380
 4543TIP3    H135120   0.949   2.471   2.251  0.4538 -0.2631  1.1460
 4543TIP3    H235121   1.026   2.584   2.315  0.9060  1.2964 -1.9790
 4544TIP3   OH235122   4.620   1.824  13.598 -0.3395 -0.7606 -0.4717
 4544TIP3    H135123   4.575   1.765  13.537 -2.2702 -0.8648  0.9401
 4544TIP3    H235124   4.660   1.766  13.662  2.0547 -0.6720 -1.7834
 4545TIP3   OH235125   2.540   3.352   3.899 -0.6179 -0.2822 -0.2352
 4545TIP3    H135126   2.547   3.436   3.854  0.1201 -0.1404  0.1348
 4545TIP3    H235127   2.580   3.289   3.839 -1.8289 -0.5121 -0.8407
 4546TIP3   OH235128   3.647   4.241   1.814 -0.3248 -0.4004 -0.7975
 4546TIP3    H135129   3.727   4.189   1.810 -1.0091 -1.4349 -1.9585
 4546TIP3    H235130   3.674   4.330   1.794  1.0647 -0.0160  2.3609
 4547TIP3   OH235131   2.881   5.196  14.429 -0.1162 -0.8368 -0.1438
 4547TIP3    H135132   2.966   5.164  14.398  0.3612  0.4572 -0.2212
 4547TIP3    H235133   2.877   5.287  14.399 -0.9399 -0.4632  1.0198
 4548TIP3   OH235134   0.828   4.097  14.644 -0.0222 -0.2364 -0.2002
 4548TIP3    H135135   0.757   4.033  14.637 -1.0436  0.9616 -1.2944
 4548TIP3    H235136   0.869   4.078  14.728 -2.1258 -0.4969  0.8355
 4549TIP3   OH235137   0.240   1.156   1.785  0.4417  0.7853  0.0862
 4549TIP3    H135138   0.287   1.174   1.866  0.0189  0.9237  0.3039
 4549TIP3    H235139   0.303   1.177   1.716  0.5582  1.3917  0.3697
 4550TIP3   OH235140   5.436   1.604  15.771 -0.0015  0.1582  0.1698
 4550TIP3    H135141   5.353   1.640  15.801  0.3589  0.9372  0.2783
 4550TIP3    H235142   5.494   1.609  15.847  0.1062 -0.5074  0.1358
 4551TIP3   OH235143   5.207   1.554   1.779  0.3302  0.2594  0.2503
 4551TIP3    H135144   5.281   1.516   1.732 -0.1733 -1.0350  0.4837
 4551TIP3    H235145   5.227   1.648   1.782  1.0149  0.2008 -1.3771
 4552TIP3   OH235146   2.885   6.431  11.089  0.1311 -0.2212  0.4660
 4552TIP3    H135147   2.943   6.415  11.015 -1.7757 -0.2091 -1.1101
 4552TIP3    H235148   2.934   6.399  11.165  2.1527 -0.2380 -0.7641
 4553TIP3   OH235149   5.152   2.055   1.589  0.0899 -0.7654  0.0340
 4553TIP3    H135150   5.184   2.124   1.530  0.3450 -2.0107 -1.3546
 4553TIP3    H235151   5.151   2.096   1.676 -1.8258  1.6619 -1.0004
 4554TIP3   OH235152   6.610   5.466  16.200 -0.0345 -0.3501 -0.4413
 4554TIP3    H135153   6.559   5.523  16.142  0.1863  1.4307  1.0229
 4554TIP3    H235154   6.691   5.449  16.153  0.7471  2.2326 -0.1658
 4555TIP3   OH235155   4.232   4.593   3.410  0.1169  0.1236  0.4985
 4555TIP3    H135156   4.266   4.654   3.475  0.7391  1.0660 -0.6821
 4555TIP3    H235157   4.274   4.618   3.328 -0.3335 -1.3013 -0.2060
 4556TIP3   OH235158   5.857   4.618   3.495 -0.0145  0.5687 -0.0602
 4556TIP3    H135159   5.898   4.581   3.574 -1.8634  2.7447  2.0736
 4556TIP3    H235160   5.929   4.661   3.450  0.8649  0.5383  1.2444
 4557TIP3   OH235161   4.315   3.963   6.265 -0.2166 -0.0127 -0.0728
 4557TIP3    H135162   4.254   3.999   6.330 -0.3157  0.1091 -0.2307
 4557TIP3    H235163   4.318   4.030   6.196 -0.2240 -0.2054 -0.2611
 4558TIP3   OH235164   0.435   3.186   2.281 -0.7496 -0.4769  0.0663
 4558TIP3    H135165   0.444   3.192   2.186 -1.2828 -4.1367 -0.3589
 4558TIP3    H235166   0.520   3.212   2.315  0.0483 -0.7981 -1.5683
 4559TIP3   OH235167   0.039   2.874  16.911 -0.0172 -0.1405 -0.1805
 4559TIP3    H135168   0.049   2.967  16.887 -1.9212  0.2873  0.5392
 4559TIP3    H235169   0.043   2.874  17.007 -4.0936 -0.1359  0.1505
 4560TIP3   OH235170   0.343   3.725  16.720  0.5438 -0.1313 -0.3104
 4560TIP3    H135171   0.379   3.711  16.633  1.1083 -0.5718 -0.0094
 4560TIP3    H235172   0.379   3.809  16.748 -0.2990  0.4145 -0.8273
 4561TIP3   OH235173   2.013   2.102   0.345 -0.1847  0.4624 -0.5101
 4561TIP3    H135174   1.946   2.153   0.392 -0.4303 -0.3814  0.0911
 4561TIP3    H235175   2.095   2.126   0.388 -0.5163 -1.0501  1.0939
 4562TIP3   OH235176   2.665   4.189   4.632  0.1603 -0.0978 -0.2050
 4562TIP3    H135177   2.683   4.276   4.667 -0.9042  1.1304 -2.4947
 4562TIP3    H235178   2.725   4.181   4.558  0.3731 -1.4242  0.0876
 4563TIP3   OH235179   4.237   4.951   0.781 -0.0717  0.4815  0.5175
 4563TIP3    H135180   4.162   4.951   0.721  0.7812  1.1602 -0.5929
 4563TIP3    H235181   4.279   5.036   0.767  1.4050 -0.2299  0.4637
 4564TIP3   OH235182   4.837   6.254  15.354  0.6979 -0.3268  0.1564
 4564TIP3    H135183   4.913   6.231  15.407  0.6301 -1.5228 -0.2207
 4564TIP3    H235184   4.867   6.328  15.301  1.1369  0.1215  1.0007
 4565TIP3   OH235185   3.190   3.374   1.480 -0.1546 -0.1446 -0.5091
 4565TIP3    H135186   3.212   3.467   1.490  0.4935 -0.4627  1.3934
 4565TIP3    H235187   3.165   3.366   1.388  1.1866  1.6231 -1.1041
 4566TIP3   OH235188   3.608   5.277  11.408 -0.1008  0.3424  0.5087
 4566TIP3    H135189   3.693   5.238  11.389 -0.8996 -1.0090 -0.6177
 4566TIP3    H235190   3.621   5.371  11.400  1.1583  0.1202 -0.2296
 4567TIP3   OH235191   4.266   1.837  13.341 -0.0760 -0.6173  0.2651
 4567TIP3    H135192   4.287   1.909  13.399 -1.5160 -1.4581  1.9194
 4567TIP3    H235193   4.176   1.854  13.313  0.6929 -0.0327 -2.0998
 4568TIP3   OH235194   0.575   3.999  13.103 -0.3358  0.5734 -0.4217
 4568TIP3    H135195   0.507   4.035  13.046  0.3829  1.0136 -1.0210
 4568TIP3    H235196   0.611   3.925  13.055 -0.3467  0.3812 -0.1367
 4569TIP3   OH235197   6.512   0.437  16.894  0.1593 -0.0470  1.0026
 4569TIP3    H135198   6.435   0.469  16.942 -0.6476  1.2211 -0.9990
 4569TIP3    H235199   6.490   0.346  16.873 -0.2768 -0.0494  1.4390
 4570TIP3   OH235200   1.578   2.410   2.153 -0.1790 -0.2893  0.3895
 4570TIP3    H135201   1.511   2.471   2.123 -1.0795 -1.2871  0.3166
 4570TIP3    H235202   1.558   2.396   2.246  0.2721 -0.1779  0.5088
 4571TIP3   OH235203   0.403   0.886   6.770 -1.0945 -0.1663  0.2366
 4571TIP3    H135204   0.447   0.803   6.789 -2.0146 -1.1325 -1.6262
 4571TIP3    H235205   0.312   0.863   6.756 -1.3850  1.1785 -0.2466
 4572TIP3   OH235206   1.218   5.297   4.023 -0.2901  0.4643 -0.2324
 4572TIP3    H135207   1.142   5.300   4.081  0.5568  1.6685  0.8495
 4572TIP3    H235208   1.253   5.386   4.023  0.8793  0.0349 -1.0467
 4573TIP3   OH235209   1.875   2.265   5.898  0.4260 -0.1554  0.6046
 4573TIP3    H135210   1.835   2.197   5.952 -0.5173  1.7151  2.4273
 4573TIP3    H235211   1.962   2.277   5.935  0.2467  0.2454  0.9101
 4574TIP3   OH235212   3.811   3.721  16.396  0.3064 -0.4696  0.1352
 4574TIP3    H135213   3.763   3.703  16.316 -1.2521 -0.5994  1.0584
 4574TIP3    H235214   3.818   3.816  16.400  1.6022 -0.4992 -0.8078
 4575TIP3   OH235215   1.566   1.540   5.721  0.0383  0.4242 -0.5952
 4575TIP3    H135216   1.586   1.448   5.705 -1.0494 -0.1351  1.0046
 4575TIP3    H235217   1.640   1.572   5.773  0.0680  0.2579 -0.5343
 4576TIP3   OH235218   5.320   6.287   3.790  0.4849  0.1347  0.2529
 4576TIP3    H135219   5.415   6.275   3.791  0.4058 -0.5337  0.5136
 4576TIP3    H235220   5.288   6.222   3.726  0.1081 -0.5067  1.0690
 4577TIP3   OH235221   3.680   3.251  13.615  0.3008  0.1187  0.3119
 4577TIP3    H135222   3.617   3.308  13.570  1.3338  1.5194  0.5925
 4577TIP3    H235223   3.629   3.213  13.687 -0.3075  1.0450  0.3954
 4578TIP3   OH235224   5.361   2.966  11.665 -0.0686  0.2484 -0.2123
 4578TIP3    H135225   5.385   2.946  11.756 -1.3646 -2.6001 -0.3982
 4578TIP3    H235226   5.416   3.041  11.642  0.5007  0.9129  2.8074
 4579TIP3   OH235227   3.812   5.661  11.236  0.3874 -0.2143  0.0863
 4579TIP3    H135228   3.896   5.631  11.270  0.7144  0.9018  0.3088
 4579TIP3    H235229   3.833   5.741  11.187 -0.1592 -1.4130 -2.2436
 4580TIP3   OH235230   4.197   1.137  15.553  0.1983 -0.2156 -0.5335
 4580TIP3    H135231   4.166   1.134  15.644  1.4741  2.2458  0.0745
 4580TIP3    H235232   4.230   1.049  15.536 -2.6826 -1.6088  0.3257
 4581TIP3   OH235233   3.028   6.177  13.217 -0.2114  0.6141 -0.0652
 4581TIP3    H135234   2.981   6.151  13.138  1.4685 -0.3746 -0.7936
 4581TIP3    H235235   3.048   6.270  13.203  1.4142  0.1051 -1.6032
 4582TIP3   OH235236   4.203   0.610  16.044 -0.4766 -0.1294  0.2060
 4582TIP3    H135237   4.216   0.535  16.102 -0.5023  0.2730  0.7466
 4582TIP3    H235238   4.289   0.650  16.035 -0.8788  1.2759  2.0335
 4583TIP3   OH235239   0.937   5.994  14.077 -0.1824 -0.0249  0.0826
 4583TIP3    H135240   0.920   5.900  14.068  0.0750  0.0899 -2.2166
 4583TIP3    H235241   1.028   6.005  14.048 -0.2967  0.9554  0.0702
 4584TIP3   OH235242   2.874   4.844   1.042  0.0827  0.4436  0.0166
 4584TIP3    H135243   2.779   4.829   1.040  0.5148 -3.1384  0.2221
 4584TIP3    H235244   2.901   4.818   1.129  1.4987 -0.7779 -0.7449
 4585TIP3   OH235245   4.901   3.648   0.806 -0.2492  0.1426  0.1127
 4585TIP3    H135246   4.968   3.687   0.750 -0.1055 -1.8340 -1.1910
 4585TIP3    H235247   4.924   3.678   0.894  0.2185  2.3675 -0.6870
 4586TIP3   OH235248   4.138   2.878  10.692  0.1940 -0.2989  0.0296
 4586TIP3    H135249   4.211   2.909  10.746  0.2643 -2.8302  1.5925
 4586TIP3    H235250   4.172   2.798  10.651 -1.3148 -0.8662 -0.1792
 4587TIP3   OH235251   4.578   1.028   4.635  0.3023  0.4760  0.6685
 4587TIP3    H135252   4.518   1.028   4.560  0.3860 -0.5059  0.5969
 4587TIP3    H235253   4.551   0.953   4.688  1.1308  0.3350  0.9040
 4588TIP3   OH235254   4.309   3.024  16.281  0.5599  0.4531  0.4014
 4588TIP3    H135255   4.314   3.074  16.200  3.3293  1.2708  0.9548
 4588TIP3    H235256   4.373   3.065  16.339 -1.5505  0.1107  3.1781
 4589TIP3   OH235257   2.897   3.400   1.460 -0.1434  0.1046 -0.7899
 4589TIP3    H135258   2.904   3.489   1.493  1.7142 -0.4654  0.5008
 4589TIP3    H235259   2.902   3.409   1.365  0.8703  1.3397 -0.6448
 4590TIP3   OH235260   5.257   4.952   4.330  0.6886  0.5901  0.2406
 4590TIP3    H135261   5.186   5.002   4.369  0.9276  1.7411 -0.7322
 4590TIP3    H235262   5.218   4.868   4.306  0.1343  0.5087  1.3877
 4591TIP3   OH235263   5.921   3.153  17.182 -0.2095 -0.0877  0.0994
 4591TIP3    H135264   5.970   3.071  17.188  1.7739  0.9660 -0.7527
 4591TIP3    H235265   5.913   3.169  17.088 -1.4907  0.1916  0.2437
 4592TIP3   OH235266   4.326   2.074   4.400  0.0856  0.2009  0.1910
 4592TIP3    H135267   4.289   2.031   4.323 -2.1431 -0.6997  1.6673
 4592TIP3    H235268   4.370   2.003   4.447  0.2311  0.4528  0.4356
 4593TIP3   OH235269   4.690   1.474  17.156  0.3013 -0.1813 -0.0929
 4593TIP3    H135270   4.706   1.407  17.223  2.5824 -1.5028 -1.8045
 4593TIP3    H235271   4.776   1.513  17.140 -0.7844  2.4028  0.0074
 4594TIP3   OH235272   5.894   1.882   5.575  0.0637  0.0955 -0.8033
 4594TIP3    H135273   5.835   1.829   5.523 -0.3936 -0.3918  0.1839
 4594TIP3    H235274   5.837   1.929   5.636  0.6737 -0.2773  0.0698
 4595TIP3   OH235275   5.589   0.439   4.543 -0.2899 -0.0240  0.1115
 4595TIP3    H135276   5.521   0.373   4.529 -1.1075  0.7489  0.3794
 4595TIP3    H235277   5.669   0.397   4.512 -1.0232 -0.6305 -1.0341
 4596TIP3   OH235278   6.371   6.281   5.494  0.0835  0.0469  0.2260
 4596TIP3    H135279   6.364   6.197   5.448  0.5349 -0.2394  0.6793
 4596TIP3    H235280   6.453   6.319   5.463  0.5562 -0.2952  1.0261
 4597TIP3   OH235281   5.366   1.406   4.396  0.2551  0.3084 -0.6137
 4597TIP3    H135282   5.440   1.459   4.366  1.2867 -0.2822  0.7578
 4597TIP3    H235283   5.309   1.468   4.442  0.8121  0.4621 -0.1191
 4598TIP3   OH235284   4.660   0.567   2.078  0.0535  0.1496 -0.8238
 4598TIP3    H135285   4.623   0.620   2.007 -1.4043  0.7697  0.3472
 4598TIP3    H235286   4.588   0.513   2.108  1.1976 -1.6374 -1.1388
 4599TIP3   OH235287   5.554   1.175   5.126 -0.1074  0.0537 -0.3368
 4599TIP3    H135288   5.499   1.200   5.052 -1.1076 -1.8125 -0.2733
 4599TIP3    H235289   5.555   1.253   5.182  0.0981  1.2554 -1.9278
 4600TIP3   OH235290   1.549   5.000   6.300 -0.2082  0.2315 -0.5363
 4600TIP3    H135291   1.631   4.952   6.313 -0.5573 -0.6320 -1.3843
 4600TIP3    H235292   1.573   5.092   6.309  0.6030 -0.0556  0.5177
 4601TIP3   OH235293   5.868   1.406   5.943  0.7087 -0.1134 -0.2712
 4601TIP3    H135294   5.782   1.417   5.904 -0.8685 -3.6197  1.8238
 4601TIP3    H235295   5.928   1.408   5.868 -1.0524  2.4391 -1.7791
 4602TIP3   OH235296   1.338   5.443   0.000 -0.5305  0.1049  0.2650
 4602TIP3    H135297   1.403   5.406  -0.060 -1.3953 -0.4369 -0.3556
 4602TIP3    H235298   1.379   5.436   0.086 -0.4993 -1.9815  0.1321
 4603TIP3   OH235299   6.220   2.944   4.118 -0.0627  0.3740 -0.0157
 4603TIP3    H135300   6.180   2.915   4.036 -0.6363  0.7391  0.1347
 4603TIP3    H235301   6.314   2.926   4.105 -0.0523  1.0675 -1.0242
 4604TIP3   OH235302   4.390   1.188  12.618 -0.2660 -0.0413 -0.0197
 4604TIP3    H135303   4.474   1.207  12.575 -0.6360 -0.5271 -0.9826
 4604TIP3    H235304   4.409   1.195  12.711  0.2802  2.2663 -0.2288
 4605TIP3   OH235305   4.460   3.459   4.310 -0.5454 -0.0669  0.3113
 4605TIP3    H135306   4.453   3.425   4.399  0.4587 -0.1445  0.3770
 4605TIP3    H235307   4.426   3.548   4.316  1.0410  0.5326  1.1673
 4606TIP3   OH235308   6.272   0.544  13.705  0.7065  0.2656  0.4482
 4606TIP3    H135309   6.367   0.549  13.719  1.0379 -0.7157 -1.1308
 4606TIP3    H235310   6.262   0.541  13.610 -0.8524 -0.5685  0.6037
 4607TIP3   OH235311   2.150   3.250  15.895 -0.3836 -0.1622  0.1334
 4607TIP3    H135312   2.221   3.277  15.838  0.8528  0.0398  1.7201
 4607TIP3    H235313   2.174   3.161  15.924 -2.7266 -1.7526 -2.3473
 4608TIP3   OH235314   4.664   5.912  12.326 -0.1129  0.4272  0.0283
 4608TIP3    H135315   4.615   5.931  12.406  1.2315  0.1494  0.9393
 4608TIP3    H235316   4.749   5.881  12.356  0.5763  0.7176 -1.5165
 4609TIP3   OH235317   6.574   0.953  12.325  0.6607 -0.0055 -0.0173
 4609TIP3    H135318   6.528   0.895  12.264 -1.3347  0.8890  0.5765
 4609TIP3    H235319   6.563   0.911  12.410  1.5063 -0.0913  0.0571
 4610TIP3   OH235320   4.899   1.258  16.935 -0.3984 -0.4491  0.2935
 4610TIP3    H135321   4.952   1.263  17.015  1.4207 -0.0671 -0.8613
 4610TIP3    H235322   4.889   1.165  16.917 -1.2177 -0.5473  1.1915
 4611TIP3   OH235323   2.263   6.649  14.354 -0.5368 -0.3469  0.1852
 4611TIP3    H135324   2.182   6.610  14.322 -0.7717 -0.0570  0.4164
 4611TIP3    H235325   2.235   6.712  14.420 -0.1467  0.0087  0.0188
 4612TIP3   OH235326   5.190   3.414   1.567 -0.4096  0.0879 -0.4517
 4612TIP3    H135327   5.138   3.362   1.628  0.0148 -0.2766 -0.3965
 4612TIP3    H235328   5.126   3.454   1.509 -0.7204 -0.8535 -0.7729
 4613TIP3   OH235329   2.619   4.714   4.293 -0.7703  0.3422 -0.1731
 4613TIP3    H135330   2.574   4.636   4.260 -2.9081  2.0778 -1.7003
 4613TIP3    H235331   2.558   4.750   4.358  0.2894  0.6462  0.6752
 4614TIP3   OH235332   4.706   1.665   0.443  0.5425  0.4774 -0.1758
 4614TIP3    H135333   4.782   1.623   0.485  0.6933 -0.6835 -1.5437
 4614TIP3    H235334   4.634   1.604   0.460 -0.2972  1.9088  1.7224
 4615TIP3   OH235335   3.240   4.060  16.723 -1.2830 -0.2949  0.2715
 4615TIP3    H135336   3.215   4.149  16.751  0.5229  0.4998 -0.4571
 4615TIP3    H235337   3.264   4.070  16.631  0.3273 -1.2163  0.5450
 4616TIP3   OH235338   0.968   4.656   2.529 -0.4033  0.3559  0.0774
 4616TIP3    H135339   1.051   4.702   2.512 -0.5906  0.4410 -0.6329
 4616TIP3    H235340   0.956   4.599   2.453  1.2767 -3.1005  2.1540
 4617TIP3   OH235341   5.010   6.270   4.754 -0.1269 -0.3534  0.1326
 4617TIP3    H135342   5.087   6.246   4.703  0.0946 -1.7218  1.0844
 4617TIP3    H235343   5.039   6.345   4.806  0.6150 -0.9269  0.5690
 4618TIP3   OH235344   3.720   0.525  10.919 -0.6818 -0.3126  0.6023
 4618TIP3    H135345   3.751   0.616  10.922  3.1618 -1.2458 -2.4060
 4618TIP3    H235346   3.677   0.517  10.834  0.4999 -1.6084  0.0859
 4619TIP3   OH235347   0.898   2.950  13.434 -0.4532 -0.7423  0.3703
 4619TIP3    H135348   0.992   2.937  13.427 -0.1492  0.4913  1.8630
 4619TIP3    H235349   0.860   2.875  13.387  1.2442 -1.2297 -0.2826
 4620TIP3   OH235350   0.426   4.698   0.773  0.1970  0.1422  0.2056
 4620TIP3    H135351   0.467   4.782   0.792 -0.6348  0.5095  0.4225
 4620TIP3    H235352   0.472   4.635   0.829  0.4100  0.5517  0.4944
 4621TIP3   OH235353   0.117   4.408   1.251 -0.0526 -0.0026 -0.5065
 4621TIP3    H135354   0.086   4.498   1.259  0.4636  0.1932 -0.6387
 4621TIP3    H235355   0.073   4.374   1.173 -0.5407  0.0097 -0.2376
 4622TIP3   OH235356   0.681   1.608  15.053  0.1586 -0.3664  0.0649
 4622TIP3    H135357   0.674   1.598  14.958 -0.7445  0.3372  0.0407
 4622TIP3    H235358   0.749   1.545  15.079  1.8252  0.8086 -1.2643
 4623TIP3   OH235359   2.372   5.613   1.213  0.2792  0.1600 -0.5680
 4623TIP3    H135360   2.336   5.580   1.131  0.7836 -1.8121 -0.0481
 4623TIP3    H235361   2.392   5.535   1.264  1.9819  1.2690  0.5799
 4624TIP3   OH235362   3.629   3.773   2.761  0.0476  0.6206  0.0733
 4624TIP3    H135363   3.608   3.865   2.774  0.0896  0.5472  0.6942
 4624TIP3    H235364   3.544   3.731   2.743 -0.1227  0.6179  0.8186
 4625TIP3   OH235365   0.455   0.011  14.881 -0.2717 -0.4675  1.2003
 4625TIP3    H135366   0.422   0.100  14.871  0.0339 -0.2012  2.3812
 4625TIP3    H235367   0.523   0.003  14.815  1.4098  1.0518  2.6454
 4626TIP3   OH235368   1.409   0.024  16.931  0.0572  0.4511  0.4933
 4626TIP3    H135369   1.454  -0.052  16.968 -1.0636 -1.5251 -1.8894
 4626TIP3    H235370   1.319  -0.007  16.918 -0.1967  1.8363 -1.4356
 4627TIP3   OH235371   2.739   3.485   4.642  0.1877  0.2631  0.1529
 4627TIP3    H135372   2.704   3.469   4.555  2.0247  3.0328 -1.2260
 4627TIP3    H235373   2.827   3.448   4.640  0.1802  0.1826  0.8971
 4628TIP3   OH235374   6.673   0.136   4.267 -0.3288  0.3148 -0.0781
 4628TIP3    H135375   6.626   0.208   4.308 -2.8229  0.0951 -2.3023
 4628TIP3    H235376   6.668   0.154   4.173  0.0184 -2.1182 -0.6390
 4629TIP3   OH235377   2.521   3.548  10.988  0.1635 -0.8593 -0.4374
 4629TIP3    H135378   2.569   3.466  10.975  0.6367 -0.5633 -0.5683
 4629TIP3    H235379   2.588   3.616  10.987 -0.3025 -0.3931 -1.0805
 4630TIP3   OH235380   0.904   4.059   2.444  0.5300  0.4934  0.3606
 4630TIP3    H135381   0.883   4.107   2.524  1.5344  0.4383  0.6658
 4630TIP3    H235382   0.871   3.970   2.460 -1.3303  1.0269 -0.2048
 4631TIP3   OH235383   4.765   6.761  13.637  0.0217  0.1379  0.0943
 4631TIP3    H135384   4.831   6.780  13.705  0.2413  1.3284 -0.4345
 4631TIP3    H235385   4.725   6.679  13.666  0.2035  0.5460  1.5930
 4632TIP3   OH235386   0.654   3.540   2.008  0.0877  0.1574  0.2953
 4632TIP3    H135387   0.563   3.554   1.982  0.1858  0.6910  0.2209
 4632TIP3    H235388   0.685   3.627   2.034  0.4453 -0.0962  0.7407
 4633TIP3   OH235389   5.348   5.638   3.776 -0.0634  0.0087  0.0980
 4633TIP3    H135390   5.393   5.692   3.711 -1.5841  1.1166 -0.0992
 4633TIP3    H235391   5.299   5.574   3.724 -0.7964  0.5073  0.1574
 4634TIP3   OH235392   5.326   6.797  14.527 -0.0711 -0.2507 -0.5530
 4634TIP3    H135393   5.243   6.837  14.551 -0.2035 -0.3595 -0.8271
 4634TIP3    H235394   5.388   6.827  14.594 -0.3824 -0.3626 -0.2125
 4635TIP3   OH235395   5.792   1.473  12.156  0.2030  0.5931  0.1232
 4635TIP3    H135396   5.742   1.532  12.100  2.8380  0.2801 -2.8398
 4635TIP3    H235397   5.755   1.386  12.139 -0.4834  0.7583  0.7078
 4636TIP3   OH235398   2.471   6.638  16.417  0.1713 -0.3257 -0.5219
 4636TIP3    H135399   2.382   6.664  16.393 -0.1868  0.2388  1.2899
 4636TIP3    H235400   2.526   6.675  16.348 -0.5821  3.1658  0.5405
 4637TIP3   OH235401   0.932   1.393  11.832 -0.1930  0.4631 -0.4782
 4637TIP3    H135402   0.904   1.365  11.745 -1.6196  0.8085 -0.1627
 4637TIP3    H235403   0.862   1.363  11.890  0.4874  0.6886  0.4746
 4638TIP3   OH235404   0.726   3.995  12.345  0.0360 -0.1825  0.2929
 4638TIP3    H135405   0.664   3.924  12.326 -1.5228  1.3654 -0.7814
 4638TIP3    H235406   0.670   4.070  12.365  1.6112  0.9999  0.3948
 4639TIP3   OH235407   2.468   6.233  16.989  0.1229  0.6986  0.0014
 4639TIP3    H135408   2.470   6.171  17.062 -0.9893  2.2720  1.4593
 4639TIP3    H235409   2.527   6.304  17.017  0.2838  0.9659 -0.9820
 4640TIP3   OH235410   3.975   3.417  16.624 -0.2512  0.2599  0.0398
 4640TIP3    H135411   3.910   3.353  16.652 -0.2778  0.5804  0.7451
 4640TIP3    H235412   3.995   3.467  16.704  0.0845  0.8421 -0.4018
 4641TIP3   OH235413   6.606   3.325  11.731  0.5466  0.2415  0.2783
 4641TIP3    H135414   6.692   3.340  11.691 -0.8741  2.5455 -2.2866
 4641TIP3    H235415   6.604   3.384  11.806  0.6882  1.4539 -0.6225
 4642TIP3   OH235416   5.283   5.621  16.796 -1.1007 -0.4740  0.0104
 4642TIP3    H135417   5.369   5.620  16.837 -1.4066  1.7761  0.8678
 4642TIP3    H235418   5.271   5.532  16.762  1.9764 -0.5942 -1.0892
 4643TIP3   OH235419   6.397   6.778  13.180  0.3569  0.1164  0.1029
 4643TIP3    H135420   6.366   6.817  13.262  2.4736 -0.7855  1.4262
 4643TIP3    H235421   6.474   6.830  13.157  0.1285 -0.0175 -1.0062
 4644TIP3   OH235422   6.347   1.079  14.997 -0.1971  0.0353  0.0957
 4644TIP3    H135423   6.261   1.102  14.963 -0.3441 -1.4123 -0.6012
 4644TIP3    H235424   6.408   1.139  14.952 -0.6743 -0.0362 -0.6613
 4645TIP3   OH235425   2.399   4.195   4.722 -0.0641  0.9433  0.2559
 4645TIP3    H135426   2.367   4.130   4.785 -1.4367  1.8818  0.5753
 4645TIP3    H235427   2.493   4.176   4.714  0.0463  0.4265  2.1585
 4646TIP3   OH235428   5.365   0.105   2.359 -0.1409 -0.4190  0.5077
 4646TIP3    H135429   5.459   0.108   2.342 -0.3167 -1.2425 -0.7286
 4646TIP3    H235430   5.341   0.196   2.380  1.0546 -0.3513  1.7268
 4647TIP3   OH235431   3.042   0.759  15.835  0.0448  0.0575  0.3568
 4647TIP3    H135432   3.069   0.835  15.783 -1.3042  1.3072  1.4007
 4647TIP3    H235433   2.954   0.739  15.804 -0.7881  0.8265  2.0935
 4648TIP3   OH235434   6.169   2.573  15.715  0.1422 -0.7033  0.6954
 4648TIP3    H135435   6.078   2.593  15.694 -0.2596 -1.3085  1.7762
 4648TIP3    H235436   6.166   2.543  15.806  1.7886  1.9176  1.7101
 4649TIP3   OH235437   6.404   2.284   3.742  0.2425 -0.0002 -0.1763
 4649TIP3    H135438   6.341   2.238   3.688 -0.3022 -0.2454  0.6420
 4649TIP3    H235439   6.351   2.321   3.814  1.1902 -1.3708  1.2903
 4650TIP3   OH235440   2.735   6.157   5.673  0.1972 -0.1293 -0.8329
 4650TIP3    H135441   2.651   6.202   5.678  0.3537  0.1919 -1.0885
 4650TIP3    H235442   2.758   6.139   5.764  1.4299  2.6937 -0.4930
 4651TIP3   OH235443   2.116   6.751   1.358 -0.2696 -0.4060  0.7986
 4651TIP3    H135444   2.055   6.789   1.294  1.3805  0.7486 -0.1505
 4651TIP3    H235445   2.115   6.812   1.431  1.0363  0.5814  0.0292
 4652TIP3   OH235446   4.484   3.075  15.423  0.1630  0.2413 -0.5230
 4652TIP3    H135447   4.509   3.105  15.511  1.8935 -0.7160 -0.6403
 4652TIP3    H235448   4.408   3.019  15.438  1.4374 -1.2606  0.6026
 4653TIP3   OH235449   5.039   5.772   3.751  0.0330  0.1290 -0.0488
 4653TIP3    H135450   5.124   5.731   3.738 -0.7624 -2.0336  0.9935
 4653TIP3    H235451   5.018   5.812   3.667  1.6890 -0.0260 -0.5669
 4654TIP3   OH235452   6.542   4.812  16.020  0.0063 -0.3744  0.2346
 4654TIP3    H135453   6.607   4.745  15.995  1.5849  0.3777  2.1052
 4654TIP3    H235454   6.568   4.890  15.971 -0.6485 -0.5647 -0.4372
 4655TIP3   OH235455   2.352   6.453   4.548  0.2095 -0.1376  0.6245
 4655TIP3    H135456   2.406   6.462   4.628 -1.4150 -2.7211  2.1382
 4655TIP3    H235457   2.308   6.538   4.540  2.0023  0.9103  1.1978
 4656TIP3   OH235458   4.352   0.288  13.685 -0.3262 -0.5716 -0.4324
 4656TIP3    H135459   4.286   0.224  13.658 -0.4795  0.7127 -3.4051
 4656TIP3    H235460   4.436   0.243  13.673 -0.5031 -0.9258 -0.3499
 4657TIP3   OH235461   6.035   0.082  11.165  0.5089  0.5625  0.0049
 4657TIP3    H135462   5.963   0.120  11.117  0.3497  0.1025 -0.1300
 4657TIP3    H235463   6.111   0.094  11.109  0.8072  2.2102  0.7042
 4658TIP3   OH235464   4.838   2.843   0.526  0.2488 -0.0407 -0.3219
 4658TIP3    H135465   4.782   2.909   0.567 -1.1962 -1.0155 -0.6707
 4658TIP3    H235466   4.911   2.894   0.489 -1.0363  1.4180 -0.9669
 4659TIP3   OH235467   1.761   1.677  16.534  0.2126 -0.1077  0.2478
 4659TIP3    H135468   1.746   1.584  16.518 -0.1104  0.0089 -0.1348
 4659TIP3    H235469   1.680   1.708  16.574 -0.9713  0.6879 -2.5166
 4660TIP3   OH235470   1.761   1.174   6.665  0.3687  0.0662 -0.3986
 4660TIP3    H135471   1.833   1.126   6.706  2.1880  1.2919 -1.9428
 4660TIP3    H235472   1.753   1.255   6.717  1.1493  0.5958 -1.0721
 4661TIP3   OH235473   6.217   2.088   6.540 -0.2883 -0.0001 -0.3524
 4661TIP3    H135474   6.261   2.148   6.601  0.0158  0.5567 -1.1136
 4661TIP3    H235475   6.175   2.023   6.597  0.5730  0.1052  0.4292
 4662TIP3   OH235476   1.840   6.691  12.134  0.0732 -0.2249  0.1012
 4662TIP3    H135477   1.751   6.681  12.167  0.0835 -0.8731 -0.0502
 4662TIP3    H235478   1.896   6.689  12.212  0.0629 -1.2753  0.0868
 4663TIP3   OH235479   5.997   3.641  15.309  0.0315 -0.1945  0.1884
 4663TIP3    H135480   5.998   3.650  15.214  0.1867 -1.4849  0.0523
 4663TIP3    H235481   6.064   3.702  15.339 -2.4814  3.0045 -0.1972
 4664TIP3   OH235482   5.489   6.179   4.966 -0.4476 -0.8355 -0.3123
 4664TIP3    H135483   5.582   6.187   4.945 -0.7260  2.1910 -0.9009
 4664TIP3    H235484   5.479   6.227   5.049 -1.2805 -2.4488  0.5690
 4665TIP3   OH235485   5.751   3.905   3.904 -0.4950 -0.4286 -0.5654
 4665TIP3    H135486   5.757   3.879   3.812 -1.4694 -1.0131 -0.4753
 4665TIP3    H235487   5.824   3.966   3.916 -0.7540  0.1953 -1.9070
 4666TIP3   OH235488   0.864   1.856   4.769 -0.4894  0.0691  0.4246
 4666TIP3    H135489   0.892   1.784   4.825  0.4798 -0.7127 -1.0148
 4666TIP3    H235490   0.874   1.934   4.823 -0.1662 -0.7197  1.5254
 4667TIP3   OH235491   6.556   0.490  13.163 -0.0918 -0.2767 -0.6530
 4667TIP3    H135492   6.646   0.510  13.139  0.0385  3.1674  1.9494
 4667TIP3    H235493   6.560   0.464  13.255 -1.7171 -0.6891 -0.6621
 4668TIP3   OH235494   6.595   6.031   2.041  0.3548 -0.1895  0.0585
 4668TIP3    H135495   6.572   6.104   2.098 -1.3934 -0.4448 -0.2717
 4668TIP3    H235496   6.604   6.070   1.954  2.4113  0.0954  0.3492
 4669TIP3   OH235497   4.553   4.681   2.451  0.7718 -0.1473  0.0985
 4669TIP3    H135498   4.615   4.622   2.493 -0.6361  0.0555  2.6234
 4669TIP3    H235499   4.469   4.661   2.491 -0.2110  1.8210 -0.8367
 4670TIP3   OH235500   5.499   5.425   4.492  0.2799 -0.5544  0.2327
 4670TIP3    H135501   5.521   5.508   4.534 -1.8134  0.9224 -1.3987
 4670TIP3    H235502   5.476   5.449   4.402  4.3249 -3.4981 -1.9104
 4671TIP3   OH235503   4.457   0.155   1.947  0.3953  0.3983 -0.8474
 4671TIP3    H135504   4.424   0.073   1.985 -0.7440  0.9854 -0.5276
 4671TIP3    H235505   4.504   0.127   1.869  1.5102 -0.7029  0.1632
 4672TIP3   OH235506   2.661   1.644  13.635 -0.3642 -0.4043 -0.7592
 4672TIP3    H135507   2.713   1.664  13.557  1.5879  0.4428  0.6763
 4672TIP3    H235508   2.626   1.557  13.619  1.7281 -1.1350 -1.7174
 4673TIP3   OH235509   0.534   4.953   0.828 -0.5928  0.3048 -0.1657
 4673TIP3    H135510   0.568   5.012   0.895  1.9464 -0.5703 -0.5460
 4673TIP3    H235511   0.610   4.934   0.772 -2.0904 -0.7297 -1.9890
 4674TIP3   OH235512   6.230   1.356   3.793  0.4159  0.0817  0.1570
 4674TIP3    H135513   6.144   1.391   3.771  1.0517  1.2115 -0.6602
 4674TIP3    H235514   6.290   1.429   3.779  1.4223 -0.4321  1.5323
 4675TIP3   OH235515   5.422   1.280  13.633 -0.3813 -0.1917 -0.2169
 4675TIP3    H135516   5.399   1.223  13.706 -2.0439  0.4298 -0.1941
 4675TIP3    H235517   5.347   1.340  13.625 -0.4898 -0.5311 -2.6962
 4676TIP3   OH235518   6.561   2.845  15.223  0.2312  0.3658 -1.0609
 4676TIP3    H135519   6.652   2.849  15.252 -0.0561 -0.9212  0.1744
 4676TIP3    H235520   6.561   2.778  15.154 -0.0283 -0.9737  0.1868
 4677TIP3   OH235521   6.440   3.606  12.783 -0.0879  0.0029  0.3082
 4677TIP3    H135522   6.388   3.614  12.863  0.2991  3.9775  0.3612
 4677TIP3    H235523   6.467   3.695  12.763  1.4992 -1.0882 -3.2211
 4678TIP3   OH235524   3.896   1.756   4.162 -0.2050 -0.5112 -0.1327
 4678TIP3    H135525   3.867   1.831   4.214 -1.4244 -0.1057 -1.3498
 4678TIP3    H235526   3.901   1.684   4.225  0.1888  0.3875  0.8968
 4679TIP3   OH235527   5.219   1.005   3.989 -0.5667 -0.0996  0.5822
 4679TIP3    H135528   5.145   1.034   3.935  0.5781 -0.6280 -1.3644
 4679TIP3    H235529   5.296   1.046   3.948  0.3858 -0.8313  1.5908
 4680TIP3   OH235530   1.566   0.756   4.960  0.5820  0.3201  0.1530
 4680TIP3    H135531   1.491   0.722   5.010  0.2237  1.4959  0.4500
 4680TIP3    H235532   1.639   0.700   4.985 -0.0722 -0.4866  0.3051
 4681TIP3   OH235533   2.691   0.923   0.839  0.3571 -0.3968  0.3557
 4681TIP3    H135534   2.656   0.945   0.754 -0.9533  1.0246  1.2205
 4681TIP3    H235535   2.615   0.915   0.896  1.2792  0.4806  1.7872
 4682TIP3   OH235536   5.003   3.883  10.669  0.2770  0.1906 -0.6382
 4682TIP3    H135537   5.018   3.812  10.607 -1.0672 -1.8441  1.2246
 4682TIP3    H235538   4.913   3.870  10.700 -0.4435  3.4046 -1.0167
 4683TIP3   OH235539   0.926   2.821   4.636 -0.3180 -0.0938  0.1089
 4683TIP3    H135540   1.005   2.767   4.625 -1.1266 -1.3717  0.4404
 4683TIP3    H235541   0.938   2.893   4.573  0.1722 -1.3688 -1.3127
 4684TIP3   OH235542   0.104   5.423  11.894  0.6378 -0.1214  0.0836
 4684TIP3    H135543   0.112   5.519  11.889  1.5511 -0.0559  1.9228
 4684TIP3    H235544   0.166   5.398  11.962  0.9228 -2.1236 -0.8613
 4685TIP3   OH235545   4.621   5.028   3.421  0.6684 -0.2969 -0.2974
 4685TIP3    H135546   4.666   5.112   3.427  0.8118 -0.4762  2.5661
 4685TIP3    H235547   4.536   5.042   3.463  0.2715 -1.3257 -0.7123
 4686TIP3   OH235548   5.382   3.468  13.405 -0.8762  0.7449  0.3991
 4686TIP3    H135549   5.331   3.387  13.399  0.2215  0.0519  0.2026
 4686TIP3    H235550   5.340   3.527  13.343 -1.5827  0.2638  0.4074
 4687TIP3   OH235551   5.219   5.364   4.065 -0.1707 -0.2593 -0.6633
 4687TIP3    H135552   5.278   5.297   4.099  0.6389  0.4321 -0.6701
 4687TIP3    H235553   5.136   5.318   4.050 -0.2648 -0.8203  1.2844
 4688TIP3   OH235554   1.553   3.747  10.818  0.3853  0.8796  0.2746
 4688TIP3    H135555   1.550   3.841  10.803  0.8758  0.8596  0.0261
 4688TIP3    H235556   1.631   3.734  10.873 -0.5832  0.7922  1.6580
 4689TIP3   OH235557   4.303   3.354   2.978 -0.0075 -0.6071 -0.7260
 4689TIP3    H135558   4.359   3.353   2.900  0.0032  0.0323 -0.7351
 4689TIP3    H235559   4.227   3.302   2.953  0.5530 -1.4329 -0.7341
 4690TIP3   OH235560   5.568   0.735  14.232  0.2796 -0.1521 -0.8979
 4690TIP3    H135561   5.499   0.670  14.217  0.4979 -0.5430 -0.2146
 4690TIP3    H235562   5.643   0.701  14.183  0.3632 -0.3620 -0.6232
 4691TIP3   OH235563   2.727   6.371  17.058  0.3931 -0.2546 -0.6057
 4691TIP3    H135564   2.794   6.438  17.046  1.7995 -1.4424  0.2948
 4691TIP3    H235565   2.715   6.366  17.153 -2.2215  1.0842 -0.7950
 4692TIP3   OH235566   4.000   1.414  15.407 -0.0127 -0.2304  0.3559
 4692TIP3    H135567   3.998   1.505  15.377  1.3973 -0.4176 -0.4133
 4692TIP3    H235568   4.081   1.408  15.458  0.3512 -1.2336 -0.3049
 4693TIP3   OH235569   2.366   1.223  11.310 -0.1145  0.1097  0.1058
 4693TIP3    H135570   2.449   1.259  11.340 -0.4522  3.1985 -2.1416
 4693TIP3    H235571   2.315   1.210  11.391  0.8824  2.7749  1.2799
 4694TIP3   OH235572   2.924   6.241   0.636 -0.0802  0.8952  0.5472
 4694TIP3    H135573   2.983   6.195   0.577  0.2034 -1.0175  2.1978
 4694TIP3    H235574   2.850   6.267   0.581  1.5161  1.9194 -1.2267
 4695TIP3   OH235575   5.649   5.558   0.420 -0.6774 -0.2454 -0.3260
 4695TIP3    H135576   5.580   5.607   0.374 -0.0945 -0.6732 -1.7195
 4695TIP3    H235577   5.649   5.472   0.378  1.5814  0.1672 -1.2948
 4696TIP3   OH235578   4.209   5.118  13.487 -0.1791 -0.2324 -0.7390
 4696TIP3    H135579   4.232   5.047  13.427  0.4776 -0.7024  0.0389
 4696TIP3    H235580   4.264   5.102  13.564 -0.8443  0.4792 -0.1045
 4697TIP3   OH235581   4.663   6.406  12.700 -0.3404 -0.1929 -0.6767
 4697TIP3    H135582   4.676   6.466  12.626 -1.8943  1.1677  0.0852
 4697TIP3    H235583   4.711   6.447  12.772 -1.5270  0.2655 -0.1148
 4698TIP3   OH235584   5.126   0.930  11.420  0.1593  0.5019 -0.5127
 4698TIP3    H135585   5.065   0.860  11.443  1.8898 -1.0099 -0.3166
 4698TIP3    H235586   5.099   0.957  11.332  1.1330 -2.3903 -1.7998
 4699TIP3   OH235587   5.926   4.196   6.176 -0.2166 -0.6910 -0.2561
 4699TIP3    H135588   5.864   4.158   6.239  0.1942 -2.0726 -0.6551
 4699TIP3    H235589   5.925   4.289   6.196 -1.6074 -0.8252  0.4688
 4700TIP3   OH235590   4.260   0.540   4.746  0.3115 -0.1109  0.1838
 4700TIP3    H135591   4.284   0.528   4.838  0.8328  0.9023  0.1954
 4700TIP3    H235592   4.283   0.457   4.704  0.9090 -0.2689  0.7975
 4701TIP3   OH235593   3.891   4.359   3.288  0.0128 -0.0815 -0.1169
 4701TIP3    H135594   3.974   4.384   3.247 -0.0461  1.1012  0.4159
 4701TIP3    H235595   3.836   4.437   3.278 -0.5569 -0.3642  0.7206
 4702TIP3   OH235596   2.230   4.866  14.582 -0.5438  0.0774 -0.2503
 4702TIP3    H135597   2.234   4.962  14.586 -0.8963  0.1606 -1.4083
 4702TIP3    H235598   2.254   4.837  14.670  0.7509  1.1849 -0.2105
 4703TIP3   OH235599   0.079   4.238  10.747  0.0885  0.7337 -0.0838
 4703TIP3    H135600   0.130   4.306  10.792  1.6025 -0.3574 -0.0848
 4703TIP3    H235601   0.144   4.184  10.704 -1.1530 -0.1915 -0.8508
 4704TIP3   OH235602   6.561   6.640  12.296 -0.3023 -0.3096 -0.7206
 4704TIP3    H135603   6.474   6.680  12.297 -1.6171 -2.9820 -0.6815
 4704TIP3    H235604   6.567   6.594  12.379  0.0063 -2.3621 -1.8113
 4705TIP3   OH235605   3.991   2.610   1.459 -0.4553  0.3221 -0.1030
 4705TIP3    H135606   3.968   2.625   1.551 -0.0245 -0.5221  0.1582
 4705TIP3    H235607   4.078   2.648   1.450 -0.4865  0.3813 -0.1472
 4706TIP3   OH235608   1.166   1.552   3.460 -0.0346  0.0038  0.2921
 4706TIP3    H135609   1.231   1.622   3.459 -1.5399  1.5136  1.0194
 4706TIP3    H235610   1.148   1.538   3.552 -0.4971 -0.6192  0.1113
 4707TIP3   OH235611   0.039   2.039  13.428  0.3317  0.0604  0.6136
 4707TIP3    H135612   0.075   2.082  13.505 -0.4986 -0.6396  1.4122
 4707TIP3    H235613   0.039   1.946  13.450 -2.4590  0.0351  0.9268
 4708TIP3   OH235614   4.758   5.144   4.082 -0.3012  0.2424  0.1652
 4708TIP3    H135615   4.673   5.178   4.110 -0.3416 -0.4923  0.9467
 4708TIP3    H235616   4.737   5.061   4.039  0.1374 -0.7349  1.7574
 4709TIP3   OH235617   0.072   4.651   2.326  0.2203 -0.0693 -1.1993
 4709TIP3    H135618   0.107   4.710   2.393  0.1745 -0.4869 -0.8029
 4709TIP3    H235619   0.145   4.639   2.265  0.3237  0.1567 -1.1225
 4710TIP3   OH235620   1.696   0.373  16.086  0.0696  0.2141 -0.0359
 4710TIP3    H135621   1.738   0.335  16.008 -1.9069  0.7167 -1.4162
 4710TIP3    H235622   1.649   0.299  16.126  0.6873  0.0640  0.4347
 4711TIP3   OH235623   3.807   4.782   5.439 -0.5869 -0.1794  0.1859
 4711TIP3    H135624   3.835   4.854   5.383 -1.8274 -0.2320 -0.5143
 4711TIP3    H235625   3.785   4.711   5.379 -2.3018 -0.1133  0.6925
 4712TIP3   OH235626   0.295   2.304   1.485  0.5674 -0.0388  0.6874
 4712TIP3    H135627   0.222   2.365   1.487  0.5053 -0.1229  0.9163
 4712TIP3    H235628   0.353   2.333   1.555  1.0106  0.3466  0.1773
 4713TIP3   OH235629   1.973   0.753  15.867 -0.2033  0.0118 -0.0936
 4713TIP3    H135630   1.957   0.807  15.790 -0.7414 -1.0001 -0.7211
 4713TIP3    H235631   2.057   0.709  15.848  0.3910  0.8388  0.5525
 4714TIP3   OH235632   2.382   0.264  12.438 -0.7997  0.1794  0.1367
 4714TIP3    H135633   2.448   0.215  12.389  2.2599  2.2689  1.8013
 4714TIP3    H235634   2.357   0.336  12.379 -1.6047 -0.5915 -0.4818
 4715TIP3   OH235635   0.316   5.819  12.272  0.0568  0.2163 -0.3630
 4715TIP3    H135636   0.300   5.732  12.234  0.3111  0.5309 -1.2251
 4715TIP3    H235637   0.336   5.874  12.196  0.6444  0.8577  0.2526
 4716TIP3   OH235638   3.223   1.726   6.255 -0.3089 -0.6821  0.7859
 4716TIP3    H135639   3.304   1.773   6.235 -0.5628 -0.4397  0.3123
 4716TIP3    H235640   3.200   1.753   6.344 -0.2569 -0.1981  0.6515
 4717TIP3   OH235641   6.378   5.807   0.325 -0.3203  0.1787 -0.4721
 4717TIP3    H135642   6.331   5.857   0.259  0.0360  0.1052 -0.7813
 4717TIP3    H235643   6.453   5.770   0.279 -0.9219 -1.1892 -0.4086
 4718TIP3   OH235644   4.693   4.300   0.682 -0.4802  0.5923 -0.2225
 4718TIP3    H135645   4.746   4.334   0.754  1.5974 -0.1549 -1.3370
 4718TIP3    H235646   4.642   4.376   0.652 -0.4128  1.2195  1.1667
 4719TIP3   OH235647   2.269   2.508   2.733 -0.0417  0.0059  0.3126
 4719TIP3    H135648   2.348   2.512   2.786 -0.4232  1.0301  0.8387
 4719TIP3    H235649   2.246   2.600   2.717  1.8194 -0.0548 -4.3421
 4720TIP3   OH235650   0.595   2.807   1.457  0.1341 -0.1216 -0.4047
 4720TIP3    H135651   0.500   2.809   1.464  0.0304  0.4752 -1.8199
 4720TIP3    H235652   0.624   2.778   1.544 -1.2209  2.2530  0.9547
 4721TIP3   OH235653   1.462   0.279  13.156 -0.2051  0.1658 -0.0114
 4721TIP3    H135654   1.425   0.277  13.068 -1.9795  0.8213  0.6742
 4721TIP3    H235655   1.463   0.371  13.180  2.1332  0.2128 -0.0375
 4722TIP3   OH235656   3.358   6.121   2.484  0.1630  0.0309 -0.4214
 4722TIP3    H135657   3.394   6.033   2.468  0.0902 -0.5623  2.1877
 4722TIP3    H235658   3.285   6.106   2.544 -0.2181  1.8461 -0.3801
 4723TIP3   OH235659   0.577   3.460   4.127 -0.0969 -0.3129 -0.4257
 4723TIP3    H135660   0.650   3.476   4.187 -0.2057 -1.3807  0.0127
 4723TIP3    H235661   0.569   3.541   4.077 -0.4901  0.9023  1.5029
 4724TIP3   OH235662   5.844   6.491   6.299  0.5241  0.2061 -0.2265
 4724TIP3    H135663   5.856   6.581   6.266 -1.0944  0.7631  0.6219
 4724TIP3    H235664   5.892   6.437   6.237  1.8821  1.6814 -0.5470
 4725TIP3   OH235665   6.267   0.352   1.988 -0.0452  0.1363  0.1014
 4725TIP3    H135666   6.301   0.382   1.904 -0.2163  0.0084 -0.0131
 4725TIP3    H235667   6.201   0.286   1.966 -0.7487  0.7590  0.3085
 4726TIP3   OH235668   2.746   0.912  13.352 -0.4742 -0.5017  0.4151
 4726TIP3    H135669   2.652   0.923  13.364 -1.0487 -3.3773 -0.6921
 4726TIP3    H235670   2.768   0.832  13.400  1.4006 -0.0061  0.4864
 4727TIP3   OH235671   6.763   2.299  15.334 -0.5821 -0.0073  0.5256
 4727TIP3    H135672   6.824   2.302  15.261  0.1705  1.0285  1.1735
 4727TIP3    H235673   6.714   2.381  15.329 -0.1873  0.3009  1.4514
 4728TIP3   OH235674   0.386   5.858  11.386  0.0951  0.4275 -0.7420
 4728TIP3    H135675   0.294   5.876  11.403 -0.3886  0.0330 -2.6638
 4728TIP3    H235676   0.433   5.931  11.426 -0.8328 -0.4026  2.0946
 4729TIP3   OH235677   0.895   4.796  13.015 -0.4260 -0.0271  0.0992
 4729TIP3    H135678   0.850   4.873  13.050 -0.1215  0.4376 -0.4957
 4729TIP3    H235679   0.973   4.788  13.070 -0.2550  0.3356 -0.0843
 4730TIP3   OH235680   4.096   4.164  11.329  0.2613 -0.3943  0.3258
 4730TIP3    H135681   4.000   4.168  11.336  0.4000  0.6507  2.4880
 4730TIP3    H235682   4.118   4.077  11.363  0.0968 -0.5871 -0.0513
 4731TIP3   OH235683   2.214   6.249   4.325  0.6234  0.1250 -0.0248
 4731TIP3    H135684   2.215   6.155   4.304 -1.6018  0.4831 -2.1749
 4731TIP3    H235685   2.140   6.259   4.385  0.5830  0.5657 -0.1484
 4732TIP3   OH235686   0.721   0.526   0.981 -0.7267  0.3508 -0.2862
 4732TIP3    H135687   0.692   0.615   0.997 -1.2031  0.1547 -0.0211
 4732TIP3    H235688   0.677   0.500   0.900  1.3489  1.1945 -1.7691
 4733TIP3   OH235689   4.192   5.023   0.197  0.7437 -0.5078 -0.0349
 4733TIP3    H135690   4.106   4.988   0.176  0.1822  2.0551 -2.5727
 4733TIP3    H235691   4.230   4.959   0.257 -1.7585 -3.2103 -1.1019
 4734TIP3   OH235692   3.113   4.869   4.325  0.2860  0.2787 -0.1019
 4734TIP3    H135693   3.118   4.833   4.413  1.5404  0.5234 -0.0450
 4734TIP3    H235694   3.070   4.801   4.273  2.5405 -1.3577  0.0146
 4735TIP3   OH235695   1.264   2.698   5.033 -0.1960  0.2045 -0.0357
 4735TIP3    H135696   1.169   2.703   5.032 -0.1411  1.5268 -0.0975
 4735TIP3    H235697   1.293   2.784   5.063  1.0274  0.8488 -2.7280
 4736TIP3   OH235698   4.672   1.231   4.783  0.3056 -0.4685  0.4480
 4736TIP3    H135699   4.633   1.174   4.716  0.7922 -1.9623  1.3877
 4736TIP3    H235700   4.597   1.273   4.825 -0.1033 -0.9254  0.1805
 4737TIP3   OH235701   5.525   1.089   1.354 -0.5835 -0.2522  0.1537
 4737TIP3    H135702   5.578   1.080   1.274  0.1291  1.5312  0.3857
 4737TIP3    H235703   5.460   1.019   1.347  1.1801 -1.9271 -0.6110
 4738TIP3   OH235704   0.130   2.087   3.436  0.1840 -0.3425 -0.5089
 4738TIP3    H135705   0.076   2.036   3.497 -2.2286  3.7756  1.2523
 4738TIP3    H235706   0.215   2.042   3.435 -1.0911 -3.2126  2.2170
 4739TIP3   OH235707   2.527   1.440  16.915 -0.2445 -0.0015 -0.4526
 4739TIP3    H135708   2.549   1.353  16.948 -0.0295  0.2733  0.1305
 4739TIP3    H235709   2.610   1.488  16.917 -0.5634  0.5287  0.1913
 4740TIP3   OH235710   2.830   3.931   5.962 -0.2639  0.2892 -0.0398
 4740TIP3    H135711   2.885   4.009   5.963  1.0130 -0.5769  0.1451
 4740TIP3    H235712   2.860   3.881   5.886  0.6006 -1.1275  1.1793
 4741TIP3   OH235713   2.362   2.541  15.584  0.2871  0.6867 -0.7263
 4741TIP3    H135714   2.292   2.492  15.628  0.7936  0.8110  0.2273
 4741TIP3    H235715   2.395   2.481  15.517  1.2735 -0.5264  0.7836
 4742TIP3   OH235716   1.001   4.397   5.198 -0.1715  0.1599  0.1602
 4742TIP3    H135717   0.917   4.359   5.224 -0.8236  1.6942  0.4609
 4742TIP3    H235718   1.056   4.323   5.174 -1.3242 -0.9352  0.8293
 4743TIP3   OH235719   4.567   6.079  16.234 -0.2825  0.1272 -0.3996
 4743TIP3    H135720   4.579   6.171  16.258  0.0385  0.5477 -2.0427
 4743TIP3    H235721   4.489   6.080  16.178 -0.2216 -0.5994 -0.5015
 4744TIP3   OH235722   5.533   4.908   2.759 -0.1571 -0.2427 -0.5664
 4744TIP3    H135723   5.523   4.815   2.779 -0.2928 -0.4738 -1.6404
 4744TIP3    H235724   5.551   4.950   2.843 -2.1801 -0.9389  0.2490
 4745TIP3   OH235725   6.682   4.256   3.004 -0.1313 -0.6667 -0.3215
 4745TIP3    H135726   6.710   4.254   2.912 -0.9512 -0.2787 -0.5942
 4745TIP3    H235727   6.712   4.340   3.036 -0.7161 -0.3656 -0.5376
 4746TIP3   OH235728   0.922   6.235  10.828  0.0703  0.0633 -1.0121
 4746TIP3    H135729   0.871   6.276  10.897  0.4952 -0.1141 -0.5871
 4746TIP3    H235730   0.858   6.186  10.776 -0.3067  0.5291 -0.9934
 4747TIP3   OH235731   4.146   4.486  16.978 -0.2262 -0.1242  0.3375
 4747TIP3    H135732   4.076   4.541  16.945 -0.6696 -1.2483 -0.6943
 4747TIP3    H235733   4.186   4.537  17.048 -1.3639  0.9914  0.2133
 4748TIP3   OH235734   6.078   5.780  14.458 -0.6033 -0.0910 -0.3255
 4748TIP3    H135735   6.096   5.853  14.517 -1.2888  0.3744 -0.6771
 4748TIP3    H235736   5.991   5.749  14.484  0.7472 -2.5966  1.6575
 4749TIP3   OH235737   5.312   3.882  12.063  0.2371  0.2047  0.3870
 4749TIP3    H135738   5.385   3.899  12.122 -2.3151  1.5172  3.4275
 4749TIP3    H235739   5.260   3.815  12.108  0.4382 -2.1742 -2.6205
 4750TIP3   OH235740   3.039   3.159  16.646 -0.4464  0.3589  0.3710
 4750TIP3    H135741   3.073   3.247  16.660  1.3826 -0.5790  2.3022
 4750TIP3    H235742   3.028   3.123  16.733 -0.0119 -1.7350 -0.3781
 4751TIP3   OH235743   3.318   4.388  13.253 -0.0272  0.5047 -0.2522
 4751TIP3    H135744   3.236   4.394  13.204 -0.2988 -1.0126 -0.0266
 4751TIP3    H235745   3.333   4.294  13.264  1.3360  0.7701  0.3988
 4752TIP3   OH235746   5.378   0.787  12.353 -0.0445 -0.5171  0.5550
 4752TIP3    H135747   5.444   0.719  12.365  0.9117 -0.3600 -2.7421
 4752TIP3    H235748   5.385   0.841  12.432  4.8229  0.2543 -0.0523
 4753TIP3   OH235749   0.228   0.860   1.820 -0.1794  0.0549  0.7753
 4753TIP3    H135750   0.186   0.943   1.801  0.0288 -0.2754 -1.3677
 4753TIP3    H235751   0.162   0.794   1.798  0.4751 -0.3863  0.0795
 4754TIP3   OH235752   4.620   4.005   4.232  0.2318 -0.0987  0.0728
 4754TIP3    H135753   4.697   4.045   4.273 -0.6294  0.8624  0.8116
 4754TIP3    H235754   4.637   3.911   4.236  0.9513  0.0571  1.0600
 4755TIP3   OH235755   5.555   6.330   3.591 -0.0202  0.4861 -0.1139
 4755TIP3    H135756   5.497   6.401   3.563 -1.2744 -0.2289  0.5821
 4755TIP3    H235757   5.643   6.369   3.591 -0.6186  1.8827 -0.2202
 4756TIP3   OH235758   3.757   5.269  14.716 -0.1578  0.3806 -0.0247
 4756TIP3    H135759   3.730   5.183  14.682  0.5325  0.9115 -2.0408
 4756TIP3    H235760   3.747   5.329  14.642  2.9988  1.3073  0.1234
 4757TIP3   OH235761   4.380   0.763  13.202  0.3571 -0.2215  0.2684
 4757TIP3    H135762   4.455   0.800  13.156  1.5959 -0.4510  1.9669
 4757TIP3    H235763   4.387   0.669  13.187 -0.1752 -0.1662 -0.3650
 4758TIP3   OH235764   5.305   0.875   5.193 -0.6349 -0.1830  0.3157
 4758TIP3    H135765   5.372   0.896   5.258 -1.9834  0.3206  1.6164
 4758TIP3    H235766   5.254   0.805   5.234 -0.9181 -0.5373 -0.6304
 4759TIP3   OH235767   4.258   1.930  12.457 -0.2484  0.2291  0.2328
 4759TIP3    H135768   4.268   2.025  12.460  0.3299  0.1581  0.5714
 4759TIP3    H235769   4.330   1.900  12.402 -2.2010  0.2291 -2.5795
 4760TIP3   OH235770   3.921   2.496   3.337  0.6775 -0.9100  0.2171
 4760TIP3    H135771   3.984   2.567   3.321  0.9153 -1.2787 -0.5606
 4760TIP3    H235772   3.845   2.520   3.285  0.2087 -0.5150  1.0805
 4761TIP3   OH235773   2.468   5.900   3.427  0.6046  0.3941  0.4530
 4761TIP3    H135774   2.444   5.808   3.434 -0.6633  0.7240  0.6566
 4761TIP3    H235775   2.564   5.900   3.433  0.5748 -0.8234  1.2860
 4762TIP3   OH235776   0.946   0.769  11.656  0.0393 -0.4088  0.5646
 4762TIP3    H135777   0.899   0.814  11.727  0.1872 -0.6412  0.8156
 4762TIP3    H235778   0.891   0.781  11.579  0.7101  1.3292  0.3136
 4763TIP3   OH235779   5.023   1.635  10.876  0.3744  0.3968  0.0628
 4763TIP3    H135780   4.957   1.695  10.909 -0.5575 -1.4374  1.7867
 4763TIP3    H235781   4.992   1.612  10.787 -0.7848  0.3458  0.4555
 4764TIP3   OH235782   5.744   2.708   3.520 -0.0921  0.2126 -0.2854
 4764TIP3    H135783   5.827   2.750   3.542 -0.3188 -0.3175  1.7099
 4764TIP3    H235784   5.707   2.680   3.604 -2.7901  1.3122 -1.0020
 4765TIP3   OH235785   2.433   1.986  11.780 -0.1639  0.0637  0.6859
 4765TIP3    H135786   2.519   2.015  11.748 -1.5526  1.9423 -1.6730
 4765TIP3    H235787   2.438   2.000  11.875  2.1168  0.0608  0.6368
 4766TIP3   OH235788   5.236   4.829   4.729 -0.9419 -0.0771 -0.1828
 4766TIP3    H135789   5.165   4.797   4.786 -0.2209 -0.5456  0.4719
 4766TIP3    H235790   5.193   4.892   4.671 -2.0928 -1.0488 -0.4453
 4767TIP3   OH235791   2.259   2.767  14.801 -0.4143  0.7789 -0.2495
 4767TIP3    H135792   2.285   2.857  14.783  0.0665  0.0502 -3.8304
 4767TIP3    H235793   2.338   2.725  14.834 -0.6469  1.5642  1.4608
 4768TIP3   OH235794   6.316   3.154   4.912 -0.2600  0.5451 -0.0867
 4768TIP3    H135795   6.274   3.238   4.896  0.0603  1.0870  1.7230
 4768TIP3    H235796   6.254   3.089   4.879 -0.7629  1.4589 -0.9867
 4769TIP3   OH235797   3.163   0.146  14.337  0.0354  0.3782  0.0954
 4769TIP3    H135798   3.215   0.221  14.307 -0.7926 -0.3278 -3.5633
 4769TIP3    H235799   3.083   0.149  14.285 -2.7036  0.0483  3.8521
 4770TIP3   OH235800   5.910   5.499   0.220 -0.1062  0.1180  0.4018
 4770TIP3    H135801   5.847   5.513   0.149 -1.8462  0.3399  1.9186
 4770TIP3    H235802   5.935   5.587   0.247  0.2674  0.0389  0.3199
 4771TIP3   OH235803   5.033   5.829  16.890 -0.1928 -0.1964  0.2498
 4771TIP3    H135804   4.984   5.800  16.967  1.2309  0.5701  1.5030
 4771TIP3    H235805   5.095   5.758  16.872 -0.3932 -0.2914 -0.0737
 4772TIP3   OH235806   6.129   0.890  14.908 -0.1990 -0.0257  0.8816
 4772TIP3    H135807   6.053   0.843  14.873  0.4313 -0.3305 -0.1081
 4772TIP3    H235808   6.166   0.831  14.973 -0.8480  0.1552  1.4242
 4773TIP3   OH235809   6.104   2.235  16.605  0.2852  0.1219  0.2128
 4773TIP3    H135810   6.178   2.185  16.571  2.0828  2.4852  0.4164
 4773TIP3    H235811   6.142   2.291  16.673 -1.5356  1.9081 -0.1431
 4774TIP3   OH235812   2.512   0.219  14.369 -0.3798  0.5309  0.6266
 4774TIP3    H135813   2.493   0.138  14.322  0.2646  1.0843 -0.6385
 4774TIP3    H235814   2.456   0.215  14.446 -2.6497  0.2521 -0.9288
 4775TIP3   OH235815   5.606   6.007   6.198 -0.0975 -0.7687 -0.5924
 4775TIP3    H135816   5.535   5.998   6.135 -1.3287  3.3123 -0.0941
 4775TIP3    H235817   5.564   5.992   6.283  0.0379 -0.0980 -0.4028
 4776TIP3   OH235818   6.574   4.501   5.726 -0.0007  0.4075 -0.0009
 4776TIP3    H135819   6.654   4.471   5.769 -0.7912  0.3095  1.4593
 4776TIP3    H235820   6.526   4.548   5.794 -2.4944 -1.9281  0.0124
 4777TIP3   OH235821   3.630   0.386   5.927 -0.0657 -0.2839 -0.2918
 4777TIP3    H135822   3.595   0.298   5.934  2.0435 -1.3183 -1.6156
 4777TIP3    H235823   3.713   0.375   5.881 -0.1722  2.4981 -1.3543
 4778TIP3   OH235824   2.985   0.762   0.440  0.5065 -0.2060  0.6567
 4778TIP3    H135825   2.944   0.699   0.499 -1.1533  0.9309  0.7766
 4778TIP3    H235826   2.985   0.845   0.488 -1.1435  0.8125 -0.9802
 4779TIP3   OH235827   3.541   4.694   1.084  0.0846 -0.4976 -0.4719
 4779TIP3    H135828   3.479   4.747   1.033 -1.2508 -1.3188  0.2504
 4779TIP3    H235829   3.593   4.758   1.133  0.3462  0.2367 -1.6493
 4780TIP3   OH235830   2.619   6.132  14.319  0.1191 -0.5577  0.3028
 4780TIP3    H135831   2.639   6.084  14.238 -0.5830 -1.3567  0.5982
 4780TIP3    H235832   2.598   6.065  14.383 -2.8571  0.1394  0.2182
 4781TIP3   OH235833   6.271   3.828  11.956  0.4166 -0.2531 -0.1894
 4781TIP3    H135834   6.317   3.873  12.027 -0.2773  1.1730 -0.6024
 4781TIP3    H235835   6.205   3.891  11.927  1.8342 -0.0175 -3.3207
 4782TIP3   OH235836   4.502   5.413   4.393 -0.4569  0.2349  0.6153
 4782TIP3    H135837   4.587   5.444   4.423  0.1321  0.5223 -1.2276
 4782TIP3    H235838   4.439   5.468   4.440  0.4362  1.2037  0.7193
 4783TIP3   OH235839   6.726   0.856   3.617  0.0412 -0.4796 -0.3517
 4783TIP3    H135840   6.793   0.838   3.683 -0.9990 -0.7667  0.6598
 4783TIP3    H235841   6.643   0.830   3.659 -0.8030  0.6978 -1.2298
 4784TIP3   OH235842   3.777   3.903  14.998  0.1028 -0.8597  0.2699
 4784TIP3    H135843   3.804   3.889  15.089  0.2984 -1.2073  0.1632
 4784TIP3    H235844   3.809   3.990  14.976  0.6353 -1.0399  0.3287
 4785TIP3   OH235845   4.593   4.995   5.349 -0.1736 -0.2178  0.2142
 4785TIP3    H135846   4.547   4.912   5.345  2.5318 -1.8299  0.0468
 4785TIP3    H235847   4.623   5.001   5.440  0.8222 -0.1380 -0.1076
 4786TIP3   OH235848   5.362   1.152  10.494  0.7811 -0.1481 -0.3956
 4786TIP3    H135849   5.363   1.103  10.576  1.1033  1.3812  0.5406
 4786TIP3    H235850   5.408   1.095  10.432 -1.3125 -2.2876 -0.1288
 4787TIP3   OH235851   2.586   4.202  14.104  0.1624 -0.5568 -0.4434
 4787TIP3    H135852   2.675   4.182  14.074 -0.2400  0.1523 -2.1628
 4787TIP3    H235853   2.543   4.116  14.109  0.0592 -0.6806 -2.5782
 4788TIP3   OH235854   1.941   0.211   1.726 -0.3977 -0.1920  0.4566
 4788TIP3    H135855   1.962   0.301   1.752 -0.4428 -0.3593  1.1036
 4788TIP3    H235856   1.906   0.171   1.806 -0.0711 -0.8761  0.2679
 4789TIP3   OH235857   5.476   4.145   5.641 -0.2064  0.3404  0.5433
 4789TIP3    H135858   5.539   4.081   5.675  0.9076  0.7191 -0.7443
 4789TIP3    H235859   5.503   4.228   5.680 -0.2472  0.4075  0.4289
 4790TIP3   OH235860   2.567   6.763   1.905 -0.0857 -0.6632  0.1693
 4790TIP3    H135861   2.534   6.843   1.947 -0.9907 -1.9440  2.0482
 4790TIP3    H235862   2.662   6.775   1.900 -0.1659  0.3314  0.8550
 4791TIP3   OH235863   1.027   5.089  16.776 -0.3059  1.0184  0.3673
 4791TIP3    H135864   1.023   4.995  16.762  2.8087  0.7210  0.9095
 4791TIP3    H235865   1.008   5.101  16.869 -0.5716  0.9093  0.3268
 4792TIP3   OH235866   6.774   5.423  10.502  0.0252  0.2393  0.0028
 4792TIP3    H135867   6.837   5.411  10.573 -1.0996 -1.7512  0.7388
 4792TIP3    H235868   6.696   5.459  10.544 -0.1841  0.3426 -0.4622
 4793TIP3   OH235869   1.721   6.177  14.121  0.2105  0.1060 -0.0731
 4793TIP3    H135870   1.785   6.148  14.056  0.4027 -1.0405  0.6077
 4793TIP3    H235871   1.773   6.195  14.199 -0.2057 -0.0526  0.2412
 4794TIP3   OH235872   0.348   5.644  16.459  0.1971 -0.0305 -0.5477
 4794TIP3    H135873   0.274   5.670  16.513 -0.5299 -4.0688  0.7158
 4794TIP3    H235874   0.310   5.593  16.388  1.6575 -2.9687  0.6268
 4795TIP3   OH235875   2.581   1.719  16.704  0.1823  0.0911 -0.2735
 4795TIP3    H135876   2.525   1.750  16.775  0.9060 -0.6116  0.6389
 4795TIP3    H235877   2.536   1.641  16.670 -1.1941  1.5742 -1.9855
 4796TIP3   OH235878   0.868   1.836  11.529  0.5867  0.2271 -0.3202
 4796TIP3    H135879   0.945   1.889  11.553 -0.0619  1.1793 -0.2758
 4796TIP3    H235880   0.890   1.748  11.559  2.6301 -0.0390 -2.3585
 4797TIP3   OH235881   1.756   2.218  11.601  0.0093  0.0929 -0.1788
 4797TIP3    H135882   1.780   2.170  11.680 -0.0802  0.6600  0.1943
 4797TIP3    H235883   1.664   2.195  11.586 -0.1835  0.5473  0.2909
 4798TIP3   OH235884   1.505   1.633   4.747  0.4001  0.4138  0.2180
 4798TIP3    H135885   1.586   1.626   4.696 -0.9633  0.0534 -2.0457
 4798TIP3    H235886   1.510   1.719   4.788  0.6393  1.7359 -2.3692
 4799TIP3   OH235887   2.264   0.943   4.021 -0.2231  0.3713  0.1992
 4799TIP3    H135888   2.347   0.945   4.068  0.0353  1.4726 -0.2772
 4799TIP3    H235889   2.283   0.900   3.938 -0.5560 -1.0667  0.8471
 4800TIP3   OH235890   0.485   1.132  16.705 -0.1038 -0.1533  0.2801
 4800TIP3    H135891   0.411   1.125  16.766  0.6464  1.8457  1.5264
 4800TIP3    H235892   0.563   1.132  16.761  0.6768  0.5895 -0.7540
 4801TIP3   OH235893   2.614   1.992  11.114  0.4070  0.1090 -0.6679
 4801TIP3    H135894   2.576   1.966  11.198 -0.7468 -0.0098 -1.2020
 4801TIP3    H235895   2.621   2.087  11.120 -1.6646  0.3553 -1.1802
 4802TIP3   OH235896   2.786   5.081   4.425  0.2164 -0.2157 -0.1336
 4802TIP3    H135897   2.784   5.033   4.508 -3.4700  1.9275  1.2703
 4802TIP3    H235898   2.695   5.100   4.406  1.1422  2.0040 -3.1471
 4803TIP3   OH235899   4.761   3.493   5.982 -0.0590  0.1044 -0.1321
 4803TIP3    H135900   4.694   3.519   6.046 -0.3108 -0.8169 -0.0066
 4803TIP3    H235901   4.828   3.561   5.989 -0.5937  0.5974  0.3382
 4804TIP3   OH235902   4.314   2.835   4.188 -0.3526  0.3477 -0.8436
 4804TIP3    H135903   4.243   2.817   4.250 -1.1179  4.2839 -0.3325
 4804TIP3    H235904   4.356   2.750   4.174 -3.1979 -1.5820  1.2426
 4805TIP3   OH235905   0.339   3.488   2.405 -0.0975  0.0919  0.1892
 4805TIP3    H135906   0.255   3.527   2.383  0.0337 -1.1509 -3.1723
 4805TIP3    H235907   0.376   3.462   2.320  3.8072  0.7762  1.4427
 4806TIP3   OH235908   2.391   4.563  13.177  0.3522 -0.2014 -0.1871
 4806TIP3    H135909   2.474   4.537  13.136  0.1115  0.2964 -1.0178
 4806TIP3    H235910   2.328   4.562  13.105 -0.4879 -1.0588  0.5334
 4807TIP3   OH235911   4.872   1.592   4.520  0.3151  0.3859 -0.5000
 4807TIP3    H135912   4.914   1.669   4.559 -3.6619  2.0271  1.0456
 4807TIP3    H235913   4.847   1.539   4.595 -0.5126 -0.4242 -1.3330
 4808TIP3   OH235914   6.317   3.386  12.428 -0.4211 -0.0881  0.1060
 4808TIP3    H135915   6.231   3.425  12.443 -0.3604 -0.0009  0.2276
 4808TIP3    H235916   6.300   3.292  12.422 -0.2955 -0.2543  1.8764
 4809TIP3   OH235917   5.037   4.204   5.161  0.3047  0.6385 -0.8489
 4809TIP3    H135918   5.109   4.144   5.147  0.2372  0.1944  0.5726
 4809TIP3    H235919   4.967   4.150   5.197  0.3078  1.5631  0.6293
 4810TIP3   OH235920   6.182   4.415  10.996 -0.3588  0.1442 -0.3789
 4810TIP3    H135921   6.240   4.491  10.991  0.8853 -0.7521 -0.0432
 4810TIP3    H235922   6.159   4.397  10.905  0.6367 -0.0236 -0.6136
 4811TIP3   OH235923   1.979   3.630   4.362 -0.1409 -0.3159  0.1522
 4811TIP3    H135924   1.932   3.707   4.395  0.5459 -0.4646  1.5235
 4811TIP3    H235925   2.046   3.667   4.304 -0.3188  0.0693  0.1886
 4812TIP3   OH235926   0.385   6.632   4.987  0.1404  0.2996  0.2942
 4812TIP3    H135927   0.408   6.709   5.039  0.7314  0.9903 -0.9427
 4812TIP3    H235928   0.432   6.644   4.905 -2.8415  0.6688 -1.5390
 4813TIP3   OH235929   0.058   5.876   5.699  0.2191  0.1024  0.1035
 4813TIP3    H135930   0.121   5.940   5.733 -0.6017  1.1120 -0.2487
 4813TIP3    H235931   0.014   5.921   5.628 -0.9885 -0.5554  0.4139
 4814TIP3   OH235932   0.148   1.618   5.799 -0.4103 -0.5334  0.0677
 4814TIP3    H135933   0.192   1.537   5.772 -0.4410 -0.8312  0.9086
 4814TIP3    H235934   0.076   1.589   5.854 -1.1591  0.0057 -0.5998
 4815TIP3   OH235935   6.735   4.095  12.377  0.3490 -0.4068  0.0502
 4815TIP3    H135936   6.741   4.169  12.317 -0.3594  2.2097  2.9441
 4815TIP3    H235937   6.826   4.071  12.394  0.7858  1.7801  1.1888
 4816TIP3   OH235938   4.640   0.990  16.856 -0.3754  0.1055 -0.0607
 4816TIP3    H135939   4.653   0.899  16.829 -0.9380 -0.1784  0.6173
 4816TIP3    H235940   4.696   1.040  16.796  2.4029 -0.9012  1.4908
 4817TIP3   OH235941   4.542   2.164  15.748 -0.0761  0.4941 -0.0624
 4817TIP3    H135942   4.616   2.221  15.727  0.9452 -1.2114 -1.3014
 4817TIP3    H235943   4.562   2.081  15.705 -1.8559 -0.5978  1.0802
 4818TIP3   OH235944   4.759   6.516  12.954  0.3470  0.2665  0.1391
 4818TIP3    H135945   4.716   6.436  12.982  1.0128 -0.4260 -0.7574
 4818TIP3    H235946   4.687   6.575  12.930 -0.1265 -0.3574  0.0171
 4819TIP3   OH235947   4.209   2.346  13.969  0.3901 -0.0352  0.3115
 4819TIP3    H135948   4.165   2.383  13.893  1.4726 -0.8687 -0.7541
 4819TIP3    H235949   4.178   2.398  14.043  0.3278  1.6666 -0.8661
 4820TIP3   OH235950   1.374   0.118   5.960 -0.1814  0.3282 -0.5869
 4820TIP3    H135951   1.355   0.204   5.924 -1.4291  0.0141 -0.7278
 4820TIP3    H235952   1.375   0.131   6.055 -1.4846  0.3156 -0.5505
 4821TIP3   OH235953   3.886   4.964   5.206 -0.4729 -0.0971 -0.1346
 4821TIP3    H135954   3.835   4.924   5.135 -1.2316  0.2235  0.2204
 4821TIP3    H235955   3.937   5.032   5.163  0.0555 -0.7595 -0.5788
 4822TIP3   OH235956   5.033   6.510   3.376 -0.2458  0.0103  0.4487
 4822TIP3    H135957   5.123   6.513   3.408  0.3579 -0.7333 -1.0896
 4822TIP3    H235958   5.000   6.425   3.404  1.3032 -2.0554 -3.2292
 4823TIP3   OH235959   4.311   2.035  13.527 -0.0339  0.6211 -0.0371
 4823TIP3    H135960   4.265   2.099  13.472 -2.2101 -1.9420 -1.4546
 4823TIP3    H235961   4.272   2.044  13.613 -1.3355  0.3263 -0.5747
 4824TIP3   OH235962   0.956   4.956   0.525  0.1542 -0.0532  0.0494
 4824TIP3    H135963   0.992   4.905   0.454  0.5309  0.3483 -0.0484
 4824TIP3    H235964   0.961   4.898   0.601  0.2150 -0.3001 -0.1419
 4825TIP3   OH235965   5.594   2.313  16.122 -0.2655  0.0906 -0.0251
 4825TIP3    H135966   5.511   2.356  16.139 -0.1397  0.0658  0.7094
 4825TIP3    H235967   5.582   2.267  16.039 -0.0204  2.4650 -1.4444
 4826TIP3   OH235968   2.122   4.538   2.091 -0.4869 -0.3685  0.2765
 4826TIP3    H135969   2.063   4.580   2.027 -1.0500 -1.2543  0.1988
 4826TIP3    H235970   2.146   4.609   2.151  0.9553  0.7659 -1.5349
 4827TIP3   OH235971   0.103   4.580   3.570 -0.3344  0.1218  0.1153
 4827TIP3    H135972   0.138   4.495   3.595 -1.2793 -0.1065  0.7065
 4827TIP3    H235973   0.155   4.643   3.620 -2.2130 -0.3227  2.8114
 4828TIP3   OH235974   2.854   6.248   5.937  0.3800  0.1577 -0.8155
 4828TIP3    H135975   2.944   6.246   5.969 -0.0123  0.3116  0.3567
 4828TIP3    H235976   2.815   6.165   5.967 -0.0058  0.3139 -0.8713
 4829TIP3   OH235977   2.510   3.900  12.825  0.0300 -0.2269  0.3489
 4829TIP3    H135978   2.530   3.983  12.868  0.3746  0.0271 -0.2894
 4829TIP3    H235979   2.417   3.906  12.802  0.4646  0.7349 -1.2956
 4830TIP3   OH235980   2.597   3.262  10.897  0.7509 -0.5619  0.1187
 4830TIP3    H135981   2.529   3.231  10.836 -0.5098 -0.4074  1.3848
 4830TIP3    H235982   2.664   3.301  10.840 -1.4045  1.6177 -1.1226
 4831TIP3   OH235983   6.412   4.251  15.488 -0.1565  0.5423  0.4470
 4831TIP3    H135984   6.420   4.158  15.511  1.2914 -0.0012 -1.9167
 4831TIP3    H235985   6.502   4.283  15.485 -0.2612  0.8477 -2.8333
 4832TIP3   OH235986   0.502   1.099   4.594  0.4360 -0.2601 -0.4121
 4832TIP3    H135987   0.449   1.089   4.515  1.4860  0.0642 -1.1779
 4832TIP3    H235988   0.449   1.061   4.664 -1.1733  0.8386 -0.9848
 4833TIP3   OH235989   1.366   2.573  14.072 -0.2595  0.3327 -0.5611
 4833TIP3    H135990   1.367   2.585  13.977  1.2910 -0.7097 -0.7181
 4833TIP3    H235991   1.417   2.647  14.106 -0.9505  0.7939 -0.5218
 4834TIP3   OH235992   4.813   5.112   4.827 -0.0880 -0.1631 -0.5431
 4834TIP3    H135993   4.857   5.182   4.874 -0.9243  0.2871 -0.4069
 4834TIP3    H235994   4.804   5.042   4.891  1.4064 -0.7076 -0.8818
 4835TIP3   OH235995   6.778   0.626   3.821 -0.1661 -0.1002 -0.1800
 4835TIP3    H135996   6.745   0.661   3.904 -1.6491 -0.8458 -0.4186
 4835TIP3    H235997   6.827   0.548   3.846  0.7919  0.5791  0.1153
 4836TIP3   OH235998   2.336   4.277   2.508  0.3954  0.0753  0.8575
 4836TIP3    H135999   2.306   4.314   2.591  0.5589  0.0701  0.9183
 4836TIP3    H236000   2.263   4.222   2.479 -0.0917  0.8969  0.4830
 4837TIP3   OH236001   4.389   0.351  12.811 -0.2375 -0.0977  0.4543
 4837TIP3    H136002   4.294   0.357  12.823 -0.2544  0.0063  0.2767
 4837TIP3    H236003   4.411   0.263  12.839 -0.4842 -0.3533 -0.1246
 4838TIP3   OH236004   6.701   3.802   2.978  0.2391  0.4208  0.2548
 4838TIP3    H136005   6.714   3.789   2.884 -1.0302 -0.4026  0.1711
 4838TIP3    H236006   6.670   3.893   2.985  0.2314  0.4517 -0.1317
 4839TIP3   OH236007   0.039   0.257   0.322  0.3310  0.2144  0.6035
 4839TIP3    H136008   0.092   0.220   0.251 -0.9486 -2.3828  0.8769
 4839TIP3    H236009  -0.051   0.231   0.301 -0.6869  3.0846  1.0015
 4840TIP3   OH236010   6.290   3.183  15.287 -0.2642 -0.6145 -0.3668
 4840TIP3    H136011   6.305   3.277  15.298  1.2073 -0.8750  0.0277
 4840TIP3    H236012   6.204   3.178  15.246 -0.5090  0.8927 -0.1162
 4841TIP3   OH236013   3.571   3.197   1.310  0.5856 -0.9753  0.6299
 4841TIP3    H136014   3.659   3.177   1.280  0.9564  1.2056  0.0897
 4841TIP3    H236015   3.580   3.210   1.405  0.6169 -1.7730  0.7451
 4842TIP3   OH236016   1.339   3.465  16.757  0.1822 -0.2157 -0.0960
 4842TIP3    H136017   1.403   3.396  16.773  0.3801 -0.0202 -0.0404
 4842TIP3    H236018   1.263   3.419  16.720  1.1330 -0.1960 -2.1757
 4843TIP3   OH236019   3.040   1.723  12.945 -0.3147  0.2176  0.2343
 4843TIP3    H136020   3.039   1.654  12.878  1.1194  1.8930 -1.6361
 4843TIP3    H236021   3.115   1.777  12.922  0.2752  0.8547  3.3108
 4844TIP3   OH236022   4.059   2.248  15.978 -0.4177  0.1333  0.0532
 4844TIP3    H136023   4.024   2.318  16.032 -2.2718 -0.8509  0.2079
 4844TIP3    H236024   4.067   2.287  15.891  0.9055  1.2067  0.6184
 4845TIP3   OH236025   4.737   5.082  16.133 -0.3215 -0.3122  0.4956
 4845TIP3    H136026   4.661   5.135  16.157  0.2915  1.3834 -1.0692
 4845TIP3    H236027   4.812   5.142  16.140  0.5924 -1.3504 -0.0008
 4846TIP3   OH236028   5.029   2.185   2.543 -0.0390 -0.4289  0.2025
 4846TIP3    H136029   5.054   2.277   2.538 -0.2239 -0.4384 -1.3642
 4846TIP3    H236030   5.057   2.147   2.460  1.2226 -2.1171  1.3245
 4847TIP3   OH236031   6.126   0.761  13.775 -0.1343 -0.3348  0.1684
 4847TIP3    H136032   6.159   0.672  13.767 -1.2607 -0.7376 -0.2030
 4847TIP3    H236033   6.169   0.809  13.705 -1.2634 -1.1579 -1.1523
 4848TIP3   OH236034   2.832   5.956   1.905 -0.2390  0.5425  0.3071
 4848TIP3    H136035   2.812   5.998   1.989  0.2172 -1.2132  1.3642
 4848TIP3    H236036   2.927   5.939   1.910  0.3998  2.9103 -1.8092
 4849TIP3   OH236037   1.860   0.418   2.396  0.4265 -0.0799 -0.2697
 4849TIP3    H136038   1.840   0.367   2.475  2.4814  0.3686  0.6201
 4849TIP3    H236039   1.937   0.470   2.420  0.1435  1.2732 -2.0802
 4850TIP3   OH236040   0.209   0.182   1.798 -0.3872 -0.4484  0.3375
 4850TIP3    H136041   0.275   0.213   1.860 -2.2677  0.4364  2.0013
 4850TIP3    H236042   0.251   0.192   1.713  0.8162  2.3799  1.1252
 4851TIP3   OH236043   2.939   3.843  12.465  0.2408 -0.2110  0.5650
 4851TIP3    H136044   3.002   3.911  12.490  0.4767 -0.7410  1.4236
 4851TIP3    H236045   2.897   3.817  12.547 -1.0436  0.0693  0.0150
 4852TIP3   OH236046   3.444   2.471   5.354  0.3727 -0.4186 -0.3048
 4852TIP3    H136047   3.405   2.523   5.283 -0.3085 -0.9224 -0.3142
 4852TIP3    H236048   3.535   2.458   5.327  0.2670 -0.1323 -0.8165
 4853TIP3   OH236049   1.116   5.451  13.494 -0.4698 -0.1341  0.0388
 4853TIP3    H136050   1.112   5.478  13.402  2.5442 -4.5245 -1.6829
 4853TIP3    H236051   1.030   5.413  13.512 -0.4959 -0.9214 -1.6127
 4854TIP3   OH236052   1.689   0.459   3.125  0.5236 -0.5397 -0.2541
 4854TIP3    H136053   1.697   0.390   3.191  0.8290 -0.5867 -0.3387
 4854TIP3    H236054   1.707   0.416   3.042  1.6129 -0.1782 -0.2191
 4855TIP3   OH236055   5.580   5.934   2.734  0.0454 -0.2635  0.3458
 4855TIP3    H136056   5.575   5.919   2.640  2.9319  1.8159 -0.2712
 4855TIP3    H236057   5.535   6.017   2.749  0.4060 -0.1170  0.6475
 4856TIP3   OH236058   1.379   3.419   6.170 -0.0731  0.4046  0.0065
 4856TIP3    H136059   1.447   3.357   6.195  0.6259  1.1998  0.1295
 4856TIP3    H236060   1.366   3.405   6.077 -0.5881 -0.5573  0.2127
 4857TIP3   OH236061   6.032   1.634   5.399 -0.2414  0.3736 -0.0258
 4857TIP3    H136062   5.939   1.645   5.417 -0.7078  0.3239 -2.1573
 4857TIP3    H236063   6.064   1.723   5.382 -0.2803  0.2327 -0.8754
 4858TIP3   OH236064   5.746   0.192   3.287 -0.5786 -0.4615 -0.4675
 4858TIP3    H136065   5.780   0.253   3.222  1.5102 -0.9251  0.1159
 4858TIP3    H236066   5.661   0.165   3.252 -0.9024  1.6328 -1.4452
 4859TIP3   OH236067   4.201   1.380  16.148 -0.1441  0.3478 -0.8371
 4859TIP3    H136068   4.276   1.427  16.186  1.8105 -2.0907 -1.4635
 4859TIP3    H236069   4.187   1.307  16.208 -0.9053 -0.1985 -1.6757
 4860TIP3   OH236070   6.027   3.084   4.915  0.1257  0.2220 -0.1587
 4860TIP3    H136071   6.043   2.990   4.926 -1.7617 -0.1235 -0.0726
 4860TIP3    H236072   5.947   3.100   4.964 -0.8278  1.4352 -2.0312
 4861TIP3   OH236073   5.255   5.005   3.923  0.3553  0.1569 -0.6820
 4861TIP3    H136074   5.257   4.912   3.898 -0.0805 -0.6290  1.9480
 4861TIP3    H236075   5.347   5.030   3.927  0.5774 -0.7648  0.5306
 4862TIP3   OH236076   0.416   4.693  15.018  0.0816  0.3725  0.2141
 4862TIP3    H136077   0.483   4.682  15.086  1.3457 -0.1602 -1.0599
 4862TIP3    H236078   0.394   4.604  14.991  0.9263  0.5874 -1.2936
 4863TIP3   OH236079   6.690   6.613  13.889  1.2381  0.0696 -0.1960
 4863TIP3    H136080   6.674   6.552  13.817 -1.2800 -1.0507  1.2246
 4863TIP3    H236081   6.650   6.695  13.861  2.0377  0.2486 -0.8638
 4864TIP3   OH236082   3.588   6.106   0.151 -0.6221 -0.0693 -0.0284
 4864TIP3    H136083   3.633   6.150   0.079 -2.4665  1.2954 -0.4291
 4864TIP3    H236084   3.626   6.144   0.230 -1.5534  1.6521 -0.3655
 4865TIP3   OH236085   4.965   0.626   3.672  0.2383 -0.2276  0.6566
 4865TIP3    H136086   4.978   0.580   3.589  1.1788 -1.7222  1.5770
 4865TIP3    H236087   5.053   0.638   3.706 -0.0482  1.6892  0.7862
 4866TIP3   OH236088   5.984   2.215  12.270 -0.1687 -0.6499  0.1996
 4866TIP3    H136089   5.953   2.150  12.207  3.3284 -1.0169 -1.3923
 4866TIP3    H236090   6.032   2.164  12.335 -0.4506  0.0629  0.9799
 4867TIP3   OH236091   3.975   1.425  15.884  0.2893 -0.3234  0.6322
 4867TIP3    H136092   3.977   1.473  15.967  0.3937  0.0665  0.4056
 4867TIP3    H236093   4.065   1.395  15.872  0.8189  1.4773 -0.4033
 4868TIP3   OH236094   2.304   1.741   1.448  0.1442  0.5267  0.0325
 4868TIP3    H136095   2.306   1.824   1.399  0.5144 -0.3233 -1.4381
 4868TIP3    H236096   2.343   1.677   1.389 -2.8257 -1.3642 -0.0986
 4869TIP3   OH236097   6.554   0.680  16.274  0.0039  0.1204 -0.2158
 4869TIP3    H136098   6.512   0.594  16.277  0.2264 -0.0581 -1.7147
 4869TIP3    H236099   6.548   0.713  16.364 -1.5960 -0.7287  0.0171
 4870TIP3   OH236100   4.720   2.064  11.520 -0.4787  0.2697  0.0684
 4870TIP3    H136101   4.680   1.978  11.514  1.5449 -0.6593 -1.4444
 4870TIP3    H236102   4.779   2.057  11.595  0.3728 -0.0043 -0.6129
 4871TIP3   OH236103   4.672   5.426   2.936 -0.3071 -0.5092 -0.6400
 4871TIP3    H136104   4.623   5.355   2.980  0.7587  0.2337  1.9490
 4871TIP3    H236105   4.609   5.463   2.874 -1.2469 -2.9721 -1.2870
 4872TIP3   OH236106   1.819   2.697  17.021  0.5860  0.0888 -0.0662
 4872TIP3    H136107   1.879   2.633  17.058 -1.2532 -0.8373  1.4892
 4872TIP3    H236108   1.732   2.661  17.038 -0.4704  2.1302 -0.8024
 4873TIP3   OH236109   4.919   3.722  12.413  0.3772 -0.4476 -0.2873
 4873TIP3    H136110   4.852   3.656  12.428 -1.4164  1.4088  0.2695
 4873TIP3    H236111   4.883   3.778  12.344  0.5092  1.6218  1.2438
 4874TIP3   OH236112   5.897   0.618   4.206 -0.2287  0.4447  0.2368
 4874TIP3    H136113   5.974   0.657   4.247  0.4472  0.6033 -1.1424
 4874TIP3    H236114   5.834   0.690   4.201 -0.1232  0.5579  0.4900
 4875TIP3   OH236115   3.215   6.288  13.566  0.0931 -0.1139  0.0677
 4875TIP3    H136116   3.199   6.242  13.484 -0.7219  1.2388 -0.5698
 4875TIP3    H236117   3.309   6.307  13.566  0.0158  0.2846 -0.7840
 4876TIP3   OH236118   3.165   1.986  14.933 -0.6737 -0.1625  0.4214
 4876TIP3    H136119   3.258   1.973  14.948 -0.5125  2.0053  1.7899
 4876TIP3    H236120   3.150   1.957  14.843  1.8077  1.6195 -0.6777
 4877TIP3   OH236121   4.342   2.577   4.455 -0.7135 -0.1228  0.0595
 4877TIP3    H136122   4.380   2.489   4.457 -0.7379 -0.2009 -1.7427
 4877TIP3    H236123   4.356   2.608   4.366  0.8054  2.4089  1.0661
 4878TIP3   OH236124   0.164   0.059  15.781  0.2653  0.2368 -0.5246
 4878TIP3    H136125   0.128   0.104  15.858 -0.5128 -0.3986 -0.4909
 4878TIP3    H236126   0.191   0.129  15.722  0.8394  0.7363  0.3114
 4879TIP3   OH236127   0.910   1.795   5.325  0.5377 -0.2735  0.5197
 4879TIP3    H136128   0.916   1.799   5.421  1.1662  1.1974  0.4484
 4879TIP3    H236129   0.850   1.865   5.302  1.5666  0.4032 -0.2306
 4880TIP3   OH236130   1.826   5.507   1.734 -0.3940  0.1044  0.2659
 4880TIP3    H136131   1.879   5.486   1.657 -0.4195 -0.5162  0.4147
 4880TIP3    H236132   1.817   5.424   1.780  0.6882  0.7075  1.6237
 4881TIP3   OH236133   3.498   1.889   4.259  0.4515  0.0072 -0.2279
 4881TIP3    H136134   3.572   1.849   4.304  0.1959  1.5736  1.7193
 4881TIP3    H236135   3.532   1.972   4.226  0.3365 -0.6292 -2.0936
 4882TIP3   OH236136   4.228   6.385  14.741 -0.3411  0.2508 -0.4993
 4882TIP3    H136137   4.145   6.337  14.735 -1.6689  2.2758  0.4587
 4882TIP3    H236138   4.229   6.420  14.830  0.5549  1.9706 -1.1494
 4883TIP3   OH236139   0.341   1.893   4.553  0.2486  0.5222 -0.5675
 4883TIP3    H136140   0.317   1.809   4.514  0.2976  0.2771 -0.0812
 4883TIP3    H236141   0.351   1.953   4.479 -1.4567  0.5292 -0.8168
 4884TIP3   OH236142   2.211   0.700  12.426 -0.4823  0.6173 -0.1176
 4884TIP3    H136143   2.129   0.748  12.422 -1.1990 -0.4000  1.5978
 4884TIP3    H236144   2.230   0.691  12.519  1.5456  0.7512 -0.4675
 4885TIP3   OH236145   3.478   3.623   1.912  0.0890  0.3426  0.3372
 4885TIP3    H136146   3.394   3.660   1.937 -0.0873 -0.1228  0.4411
 4885TIP3    H236147   3.530   3.698   1.884 -0.7921  0.4831 -1.0109
 4886TIP3   OH236148   2.018   6.681   0.724 -0.3712  0.2225 -0.2056
 4886TIP3    H136149   1.957   6.720   0.662 -0.5939 -0.3960 -0.3719
 4886TIP3    H236150   2.060   6.610   0.676  0.4221  0.5872 -0.0656
 4887TIP3   OH236151   2.198   1.171  12.713 -0.7120  0.6557 -0.0306
 4887TIP3    H136152   2.194   1.182  12.618 -0.5989  0.4953 -0.0543
 4887TIP3    H236153   2.265   1.234  12.741  0.7056 -0.6642 -0.2886
 4888TIP3   OH236154   4.875   0.475  10.291  0.3952  0.1495 -0.0220
 4888TIP3    H136155   4.919   0.458  10.208 -1.8862  0.9547 -1.5071
 4888TIP3    H236156   4.814   0.401  10.300 -0.9206  1.1832 -0.2326
 4889TIP3   OH236157   3.507   4.863  14.910 -0.5478 -0.0930 -0.7351
 4889TIP3    H136158   3.585   4.878  14.964 -0.1245 -0.7996 -1.1370
 4889TIP3    H236159   3.457   4.797  14.958 -0.8686  0.3105 -0.5108
 4890TIP3   OH236160   5.271   2.326  15.100 -0.2536 -0.4262  0.2799
 4890TIP3    H136161   5.335   2.271  15.054  0.2417 -0.8759  1.4667
 4890TIP3    H236162   5.200   2.266  15.122 -0.4079 -0.2555  0.2399
 4891TIP3   OH236163   2.004   2.945  14.988  0.4520  0.3914 -0.3902
 4891TIP3    H136164   2.070   2.918  15.053 -0.1216 -2.5553 -0.8658
 4891TIP3    H236165   2.009   2.877  14.921 -3.6211 -0.4626 -0.0418
 4892TIP3   OH236166   1.866   2.889   6.375 -0.1377 -0.3739 -0.4385
 4892TIP3    H136167   1.786   2.913   6.328  0.3602 -0.8890 -1.6176
 4892TIP3    H236168   1.912   2.830   6.314  1.2574  0.1155  0.1051
 4893TIP3   OH236169   0.223   3.593  13.751 -0.2625 -0.3265  0.3468
 4893TIP3    H136170   0.133   3.566  13.736 -0.0342 -2.2089  1.9646
 4893TIP3    H236171   0.225   3.620  13.843  0.6781  0.3850  0.1330
 4894TIP3   OH236172   3.513   5.518  14.886  0.2527 -0.1868  0.5362
 4894TIP3    H136173   3.553   5.461  14.952  2.2608 -1.1100 -1.3302
 4894TIP3    H236174   3.421   5.493  14.886  0.6494 -1.8455  1.3547
 4895TIP3   OH236175   3.963   1.596   4.396  0.1290  0.2647  0.0223
 4895TIP3    H136176   3.989   1.503   4.398 -2.9777 -0.7737 -1.6648
 4895TIP3    H236177   3.895   1.603   4.463 -0.2027  1.1355 -0.3952
 4896TIP3   OH236178   3.340   6.712   2.857 -0.2410 -0.0216 -0.2208
 4896TIP3    H136179   3.336   6.807   2.870 -1.4967 -0.1197  0.2625
 4896TIP3    H236180   3.370   6.678   2.942  0.8093 -0.0313 -0.5812
 4897TIP3   OH236181   0.113   0.237  15.981  0.5764 -0.2172 -0.0821
 4897TIP3    H136182   0.139   0.296  15.910 -2.2345  1.4523  0.1403
 4897TIP3    H236183   0.163   0.267  16.057 -0.3309  1.5485 -0.1297
 4898TIP3   OH236184   5.336   5.067  13.907 -0.1443  0.2363  0.2338
 4898TIP3    H136185   5.283   5.022  13.972 -1.0287 -0.3846 -0.8665
 4898TIP3    H236186   5.420   5.020  13.907 -1.0350 -1.4504 -0.8660
 4899TIP3   OH236187   2.969   0.587   4.322  0.1642  0.2498  0.3354
 4899TIP3    H136188   3.063   0.586   4.341  0.2127  1.7638  0.3068
 4899TIP3    H236189   2.962   0.617   4.231 -0.3159 -1.1881 -0.1344
 4900TIP3   OH236190   2.582   1.335  11.460  0.5761  0.0891  0.1719
 4900TIP3    H136191   2.658   1.390  11.441  0.6906 -0.2818 -0.4774
 4900TIP3    H236192   2.567   1.346  11.553  2.0395 -0.5959  0.5120
 4901TIP3   OH236193   1.126   5.099  15.062 -0.1122 -0.4660 -0.1783
 4901TIP3    H136194   1.065   5.173  15.060 -0.7967 -1.0125 -0.2501
 4901TIP3    H236195   1.211   5.138  15.080 -0.2032  0.5143 -1.6615
 4902TIP3   OH236196   0.933   1.638  12.895  0.2422  0.4711  0.4529
 4902TIP3    H136197   0.963   1.548  12.880 -1.0810  0.0180  0.4830
 4902TIP3    H236198   0.967   1.686  12.819  2.2092  0.2984  1.1424
 4903TIP3   OH236199   3.330   5.743  15.263 -0.0957 -0.3721 -0.4000
 4903TIP3    H136200   3.294   5.655  15.270 -0.9514  0.0457  0.7634
 4903TIP3    H236201   3.405   5.743  15.323  0.3576 -0.5172 -0.9599
 4904TIP3   OH236202   1.806   1.812   1.094 -0.5161 -0.7473  0.5062
 4904TIP3    H136203   1.720   1.850   1.111  0.4419  1.1666  1.3605
 4904TIP3    H236204   1.791   1.753   1.020 -1.9879  2.0278 -1.6238
 4905TIP3   OH236205   4.504   2.720   3.634  0.5878 -0.2623 -0.0552
 4905TIP3    H136206   4.586   2.769   3.630 -0.5628  1.6642 -1.7762
 4905TIP3    H236207   4.453   2.765   3.702  0.1750 -0.1701 -0.4266
 4906TIP3   OH236208   4.314   0.740  12.757  0.3045  0.1766 -0.2800
 4906TIP3    H136209   4.231   0.782  12.780  0.4757 -0.1496  1.0232
 4906TIP3    H236210   4.347   0.791  12.684 -1.6996 -0.5249 -1.7710
 4907TIP3   OH236211   1.364   5.933  16.782  0.5075 -0.2604  0.6293
 4907TIP3    H136212   1.348   5.974  16.697 -0.5579  0.6957  1.2783
 4907TIP3    H236213   1.450   5.966  16.809  0.0569  0.8407  0.7328
 4908TIP3   OH236214   2.292   2.306   1.200  0.4891  1.0285 -0.0568
 4908TIP3    H136215   2.316   2.369   1.133  0.6695  2.0582  0.9438
 4908TIP3    H236216   2.283   2.358   1.280  1.4222 -0.3247  0.9736
 4909TIP3   OH236217   1.813   0.281  14.171 -0.7830 -0.0212 -0.0598
 4909TIP3    H136218   1.789   0.223  14.099 -0.6891  0.6809 -0.6706
 4909TIP3    H236219   1.782   0.368  14.143  0.0030  0.4091  0.3567
 4910TIP3   OH236220   4.816   4.597  15.813  0.0690  0.4184  0.5814
 4910TIP3    H136221   4.852   4.509  15.802 -0.5315  0.2616 -0.2502
 4910TIP3    H236222   4.791   4.601  15.905 -1.2221 -0.8253  0.3235
 4911TIP3   OH236223   5.362   1.595  15.248 -0.1003  0.7311  0.1585
 4911TIP3    H136224   5.415   1.553  15.316 -0.9329  0.5617  0.7156
 4911TIP3    H236225   5.415   1.587  15.169 -0.7496 -2.5919 -0.0903
 4912TIP3   OH236226   2.266   5.315  10.705  0.3576  0.0032  0.2215
 4912TIP3    H136227   2.303   5.292  10.620  0.2080 -1.0059  0.4127
 4912TIP3    H236228   2.306   5.253  10.766 -0.9630 -0.5377  0.5739
 4913TIP3   OH236229   2.200   0.389   6.485 -0.0882 -0.5115  0.0346
 4913TIP3    H136230   2.109   0.417   6.490 -0.0382 -0.3165 -0.0832
 4913TIP3    H236231   2.249   0.472   6.481 -0.0061 -0.5996 -1.5854
 4914TIP3   OH236232   6.285   1.038  16.410  0.0608  0.0246 -0.0341
 4914TIP3    H136233   6.205   0.990  16.430  0.6230 -0.0034  2.5935
 4914TIP3    H236234   6.279   1.118  16.463  1.6007  0.1749 -0.0193
 4915TIP3   OH236235   1.343   1.072  16.423  0.0378  0.0459 -0.1563
 4915TIP3    H136236   1.315   1.157  16.389  2.2269  1.5585  1.5198
 4915TIP3    H236237   1.427   1.057  16.381 -1.1378 -2.3070 -1.8665
 4916TIP3   OH236238   0.157   6.544   5.142 -0.9238 -0.4393 -0.3776
 4916TIP3    H136239   0.064   6.568   5.137 -0.0962  4.0153  1.1460
 4916TIP3    H236240   0.197   6.585   5.066  0.1684  0.1239  0.4702
 4917TIP3   OH236241   5.207   1.406   5.116 -0.2439 -0.2528  0.1295
 4917TIP3    H136242   5.121   1.441   5.092  0.6804  1.3250 -1.1015
 4917TIP3    H236243   5.195   1.311   5.118 -2.2329 -0.0340  0.9507
 4918TIP3   OH236244   4.744   6.667   0.449  0.1274  0.1637 -0.3206
 4918TIP3    H136245   4.689   6.603   0.494  0.9336 -0.5050 -0.2672
 4918TIP3    H236246   4.691   6.695   0.374 -0.0864 -0.8394 -0.5581
 4919TIP3   OH236247   2.963   4.857   0.120 -0.1712  0.6538 -0.1471
 4919TIP3    H136248   2.980   4.767   0.093  1.3948  0.8219  0.2055
 4919TIP3    H236249   3.017   4.911   0.063 -0.7090  1.3464 -0.0229
 4920TIP3   OH236250   5.532   1.141  12.729 -0.3177  0.7231  0.0573
 4920TIP3    H136251   5.579   1.217  12.764  1.4174  0.2766 -1.1544
 4920TIP3    H236252   5.445   1.147  12.768 -0.2702  3.3652 -0.0469
 4921TIP3   OH236253   0.745   1.204  11.966 -0.4216 -0.0346  0.1358
 4921TIP3    H136254   0.738   1.109  11.956 -0.4775 -0.0170 -0.0055
 4921TIP3    H236255   0.726   1.221  12.058 -0.7737 -0.1262  0.0808
 4922TIP3   OH236256   1.458   4.746  15.361  0.2482  0.0995  0.0012
 4922TIP3    H136257   1.414   4.827  15.388 -1.8179 -0.6486 -0.9085
 4922TIP3    H236258   1.419   4.678  15.416  2.0419 -0.3113  0.8334
 4923TIP3   OH236259   5.850   0.588  14.478 -0.7863  0.1402 -0.1245
 4923TIP3    H136260   5.789   0.522  14.445 -0.8929  0.4777 -0.6110
 4923TIP3    H236261   5.813   0.617  14.561  0.4187 -2.0410  1.2593
 4924TIP3   OH236262   6.227   2.562   0.986  0.9235 -0.2160  0.4508
 4924TIP3    H136263   6.171   2.562   0.909  0.5737 -0.5792  0.7048
 4924TIP3    H236264   6.194   2.491   1.041 -1.3935  2.4368  2.8030
 4925TIP3   OH236265   2.682   6.404  11.310  0.8146 -0.3398  0.1524
 4925TIP3    H136266   2.721   6.433  11.392  1.5304  1.6043 -0.8050
 4925TIP3    H236267   2.749   6.423  11.244  0.1497 -1.5971 -0.9279
 4926TIP3   OH236268   3.893   3.278   0.349  0.1186 -0.3676  0.2634
 4926TIP3    H136269   3.907   3.269   0.255  2.3446 -0.3231  0.5600
 4926TIP3    H236270   3.913   3.192   0.385 -2.0148 -0.7825  0.6239
 4927TIP3   OH236271   2.124   3.484   5.261  0.6973 -0.1172  0.0740
 4927TIP3    H136272   2.029   3.486   5.250  0.4492 -2.7969  0.9001
 4927TIP3    H236273   2.157   3.458   5.175  0.6048 -0.0877  0.0290
 4928TIP3   OH236274   0.382   3.432   3.361  0.4610 -0.5553  0.0444
 4928TIP3    H136275   0.476   3.422   3.376  0.1919  0.0089  2.5719
 4928TIP3    H236276   0.363   3.523   3.382 -0.4892 -0.2663 -1.8085
 4929TIP3   OH236277   5.479   0.064   0.927 -0.2142 -0.1653  0.1139
 4929TIP3    H136278   5.531   0.100   1.000 -1.4702  0.6227  0.6517
 4929TIP3    H236279   5.422   0.136   0.901 -0.9373 -0.9698 -0.5578
 4930TIP3   OH236280   3.964   5.330  13.693 -0.6930 -0.2350  0.4222
 4930TIP3    H136281   3.949   5.276  13.771  1.0482 -0.1361  0.8664
 4930TIP3    H236282   3.938   5.418  13.721 -1.3981 -0.4358  0.4228
 4931TIP3   OH236283   3.469   4.112   0.125 -0.6142  0.1969  0.0974
 4931TIP3    H136284   3.542   4.161   0.161  0.5327 -2.2585  1.3670
 4931TIP3    H236285   3.411   4.097   0.199 -0.1716 -1.5923  0.1315
 4932TIP3   OH236286   5.720   3.920   0.446 -0.6840 -0.0820 -0.0882
 4932TIP3    H136287   5.808   3.905   0.411 -0.0596 -0.1421  1.4219
 4932TIP3    H236288   5.694   4.005   0.410  0.6819  0.7080  0.7168
 4933TIP3   OH236289   2.962   5.514  12.528  0.3226 -0.1781  0.0136
 4933TIP3    H136290   3.012   5.568  12.467  3.9108 -0.8973  2.0301
 4933TIP3    H236291   2.901   5.465  12.473  2.4215  0.1655 -2.8557
 4934TIP3   OH236292   1.897   2.015  16.153 -0.7579 -0.3902 -0.9278
 4934TIP3    H136293   1.988   2.040  16.171 -0.2091 -1.2398 -2.3686
 4934TIP3    H236294   1.847   2.095  16.168  0.4106  0.4718 -1.4869
 4935TIP3   OH236295   1.663   5.834   5.695 -0.0031 -0.4524  0.5971
 4935TIP3    H136296   1.616   5.824   5.777 -0.8079 -1.4002  0.0348
 4935TIP3    H236297   1.622   5.909   5.652  1.5725  1.1825  1.8013
 4936TIP3   OH236298   3.493   3.728  16.349 -0.0857  0.0715  0.0939
 4936TIP3    H136299   3.515   3.697  16.437 -1.3905  0.6485  0.6418
 4936TIP3    H236300   3.515   3.654  16.292  1.4868 -0.0392  0.7903
 4937TIP3   OH236301   0.654   4.983  15.463  0.3455 -0.4481  0.2341
 4937TIP3    H136302   0.650   5.043  15.537  1.6928 -0.9267  0.7147
 4937TIP3    H236303   0.588   4.916  15.483 -3.1775  2.1274 -1.5733
 4938TIP3   OH236304   3.651   4.523   1.813 -0.0470  0.0948  0.6835
 4938TIP3    H136305   3.744   4.526   1.834 -0.2407  0.8430  1.5134
 4938TIP3    H236306   3.611   4.588   1.872 -1.0707 -0.1219  0.2522
 4939TIP3   OH236307   1.877   1.826   0.025 -0.1408 -0.4395  0.3220
 4939TIP3    H136308   1.916   1.867  -0.052 -1.0761 -0.6877 -0.3079
 4939TIP3    H236309   1.941   1.838   0.095  1.7973 -2.2236 -1.0377
 4940TIP3   OH236310   0.263   5.752   5.964  0.0250  0.3668 -0.5412
 4940TIP3    H136311   0.326   5.725   6.031 -0.9566 -1.8658 -0.4517
 4940TIP3    H236312   0.318   5.773   5.888  0.9310 -1.2965 -0.3937
 4941TIP3   OH236313   1.388   6.617  13.180 -0.1686  0.5008 -1.0924
 4941TIP3    H136314   1.402   6.618  13.275 -1.5683  2.2050 -0.8553
 4941TIP3    H236315   1.472   6.646  13.143 -0.3077  2.1437 -0.2137
 4942TIP3   OH236316   4.191   4.843   3.140 -0.7099 -0.4959  0.0907
 4942TIP3    H136317   4.269   4.805   3.181 -1.2689 -1.3057  0.4288
 4942TIP3    H236318   4.146   4.888   3.211  0.7023  2.1762 -0.5795
 4943TIP3   OH236319   2.520   0.905   1.936 -0.5205  0.2735 -0.1687
 4943TIP3    H136320   2.435   0.866   1.918  0.0237 -0.6235 -0.9451
 4943TIP3    H236321   2.580   0.830   1.938  0.0458  0.7424  1.7430
 4944TIP3   OH236322   4.852   5.399  14.721  0.0007 -0.2480 -0.0436
 4944TIP3    H136323   4.789   5.334  14.753 -0.6534  1.2742  1.9929
 4944TIP3    H236324   4.928   5.388  14.779  1.4061 -1.5524 -1.9941
 4945TIP3   OH236325   1.416   0.073   4.460  0.2728  0.0689  0.1415
 4945TIP3    H136326   1.334   0.103   4.422  1.1538  0.9215 -1.1554
 4945TIP3    H236327   1.467   0.153   4.474  0.7295 -0.4019  1.3459
 4946TIP3   OH236328   5.871   5.665   3.172  0.0576 -0.0116 -0.0955
 4946TIP3    H136329   5.819   5.746   3.178  0.1039  0.1383 -1.3423
 4946TIP3    H236330   5.841   5.612   3.246  1.1074  1.7328  1.6642
 4947TIP3   OH236331   6.327   3.001   1.551 -0.0199 -0.6434 -0.2776
 4947TIP3    H136332   6.418   3.010   1.521 -0.3079  0.0964 -0.9794
 4947TIP3    H236333   6.282   3.077   1.512 -0.5040  0.1643  1.7478
 4948TIP3   OH236334   0.608   1.835  15.183  0.8710 -0.5919 -0.0764
 4948TIP3    H136335   0.673   1.765  15.174  1.7830  0.0682  1.1269
 4948TIP3    H236336   0.524   1.789  15.189  0.9638 -1.4064 -3.2954
 4949TIP3   OH236337   5.732   2.861  12.491 -0.2218 -0.1038  0.2733
 4949TIP3    H136338   5.808   2.828  12.539 -0.3174 -1.3553 -0.3748
 4949TIP3    H236339   5.768   2.917  12.423  0.0162  0.4469  0.8488
 4950TIP3   OH236340   5.367   2.811   6.216  1.1444  0.5295 -0.4875
 4950TIP3    H136341   5.318   2.731   6.236  1.6943  0.6091  1.4072
 4950TIP3    H236342   5.301   2.873   6.187  0.4716 -0.0903 -0.3135
 4951TIP3   OH236343   2.552   1.674  12.747  0.2186  0.0145  0.1902
 4951TIP3    H136344   2.596   1.590  12.754  0.9117 -0.1013 -3.4729
 4951TIP3    H236345   2.538   1.686  12.653 -3.6672  2.1012  0.8074
 4952TIP3   OH236346   0.271   2.341  12.664  0.1867  0.3302 -0.7874
 4952TIP3    H136347   0.190   2.360  12.617 -1.4034 -0.3495  1.4988
 4952TIP3    H236348   0.285   2.248  12.651  1.5534  0.7300 -2.4891
 4953TIP3   OH236349   1.502   0.712   0.496  0.4093  0.1996  0.3174
 4953TIP3    H136350   1.551   0.693   0.577  1.1376  0.3614 -0.0718
 4953TIP3    H236351   1.416   0.742   0.526  0.4935 -0.2433  1.0180
 4954TIP3   OH236352   1.791   6.008   5.236 -0.2590  0.2426 -0.5780
 4954TIP3    H136353   1.873   5.964   5.213 -0.1698 -0.2389  0.5733
 4954TIP3    H236354   1.802   6.098   5.205  0.5608  0.0883 -0.7503
 4955TIP3   OH236355   1.697   2.416   0.554  0.2784  0.3947  0.3708
 4955TIP3    H136356   1.678   2.424   0.647  2.1851  0.3938  0.7927
 4955TIP3    H236357   1.694   2.505   0.520  0.5244  0.4969  0.6254
 4956TIP3   OH236358   5.548   2.593  15.948  0.6591 -0.5125  0.1951
 4956TIP3    H136359   5.585   2.663  15.895 -1.1787  1.5069  1.4126
 4956TIP3    H236360   5.490   2.546  15.888 -0.2408  0.7973  0.0000
 4957TIP3   OH236361   1.954   2.461   5.009 -0.1561  0.1075  0.6384
 4957TIP3    H136362   1.978   2.441   4.919 -3.0257 -1.6147  0.1530
 4957TIP3    H236363   1.913   2.382   5.042  1.3676  0.4342  3.7729
 4958TIP3   OH236364   5.573   2.810  15.194 -0.6559  0.1005  0.5424
 4958TIP3    H136365   5.511   2.861  15.142 -0.7529 -0.6608 -0.1241
 4958TIP3    H236366   5.517   2.756  15.250 -0.7514 -2.0219 -1.4162
 4959TIP3   OH236367   6.405   1.102   5.339  0.1103  0.0064  0.3013
 4959TIP3    H136368   6.422   1.168   5.272  0.5345 -0.0533  0.3503
 4959TIP3    H236369   6.319   1.125   5.374 -0.1640 -0.0367 -0.3468
 4960TIP3   OH236370   3.591   0.103  16.912  0.3657 -0.3258  0.3113
 4960TIP3    H136371   3.557   0.185  16.947  0.9565 -0.0126  0.1649
 4960TIP3    H236372   3.578   0.040  16.983 -1.9568 -0.6178 -0.2783
 4961TIP3   OH236373   5.683   0.124   5.716 -0.1580 -0.4259 -0.3731
 4961TIP3    H136374   5.663   0.148   5.807  0.5801 -1.9168  0.2167
 4961TIP3    H236375   5.623   0.177   5.663 -1.2659 -0.2339  1.0237
 4962TIP3   OH236376   5.322   0.062   2.832  0.1046  0.6720  0.3165
 4962TIP3    H136377   5.362  -0.006   2.777 -0.4077  0.3652  0.3206
 4962TIP3    H236378   5.275   0.014   2.900  0.7737  1.0520  1.0695
 4963TIP3   OH236379   2.284   2.000   6.765  0.0547 -0.4585 -0.3625
 4963TIP3    H136380   2.364   2.004   6.711 -0.6206 -0.4479 -1.3835
 4963TIP3    H236381   2.304   2.055   6.840  1.4313 -1.3589 -0.0345
 4964TIP3   OH236382   1.800   4.330   2.299 -0.2567 -0.1950  0.0540
 4964TIP3    H136383   1.892   4.318   2.273 -0.2952 -0.0410 -0.1573
 4964TIP3    H236384   1.766   4.395   2.237 -1.2213 -2.1225 -1.5554
 4965TIP3   OH236385   0.868   4.799  13.411 -0.3038  0.4007 -0.3350
 4965TIP3    H136386   0.938   4.751  13.455 -0.3985  1.5514  1.1545
 4965TIP3    H236387   0.908   4.882  13.386 -1.2159  1.2552  0.9404
 4966TIP3   OH236388   2.732   3.270  13.988  0.2276 -0.1892 -0.3673
 4966TIP3    H136389   2.802   3.205  13.980  1.9657  1.2524  1.9160
 4966TIP3    H236390   2.762   3.344  13.934 -0.5037 -0.3011 -0.9345
 4967TIP3   OH236391   3.109   4.446   5.239  0.5845 -0.4460  0.6676
 4967TIP3    H136392   3.147   4.501   5.307 -1.1268 -1.0924  2.1978
 4967TIP3    H236393   3.136   4.357   5.261 -0.6922 -0.7606  1.0307
 4968TIP3   OH236394   3.961   4.804  16.398 -0.0215 -0.4595 -0.2208
 4968TIP3    H136395   3.945   4.721  16.445  1.1138 -0.7920 -0.3858
 4968TIP3    H236396   3.957   4.780  16.306  2.6052 -0.8829 -0.3148
 4969TIP3   OH236397   5.900   3.619   6.458 -0.3851 -0.3049  0.2149
 4969TIP3    H136398   5.957   3.555   6.415 -1.3728 -0.4617 -0.9095
 4969TIP3    H236399   5.936   3.704   6.434 -0.9738 -0.3903 -1.0102
 4970TIP3   OH236400   0.641   5.085  13.345 -0.1126  0.1013 -0.6099
 4970TIP3    H136401   0.727   5.088  13.388 -0.4332  0.2597  0.0326
 4970TIP3    H236402   0.607   5.174  13.355 -0.4485 -0.0232 -0.6551
 4971TIP3   OH236403   1.799   3.669   4.755  0.3627 -0.0161 -0.2272
 4971TIP3    H136404   1.712   3.656   4.793  0.0438  2.2273 -0.0909
 4971TIP3    H236405   1.795   3.623   4.671 -0.2114 -1.7328  0.6995
 4972TIP3   OH236406   6.404   5.516   5.129 -0.2031 -0.7548 -0.1538
 4972TIP3    H136407   6.387   5.470   5.047 -1.8601  1.9155 -1.4565
 4972TIP3    H236408   6.495   5.498   5.149  0.5973 -0.6238 -3.2201
 4973TIP3   OH236409   3.931   4.180   0.596  0.1896 -0.1976 -0.5048
 4973TIP3    H136410   3.964   4.267   0.618 -0.6845 -0.2274  1.0926
 4973TIP3    H236411   4.002   4.121   0.620 -0.6577 -0.2134  2.3382
 4974TIP3   OH236412   3.513   5.400  13.002  0.9078  0.0474 -0.2492
 4974TIP3    H136413   3.462   5.476  12.974 -0.0545 -0.6830 -0.5059
 4974TIP3    H236414   3.462   5.362  13.074  1.0444 -0.7356 -0.5598
 4975TIP3   OH236415   5.670   0.013   4.568  0.4035 -0.1044 -0.3627
 4975TIP3    H136416   5.585   0.004   4.612  0.4136  1.6129  0.0473
 4975TIP3    H236417   5.667  -0.053   4.499 -0.3110 -1.6748  1.0912
 4976TIP3   OH236418   6.007   3.696  15.606 -0.6362  0.0275 -0.4711
 4976TIP3    H136419   6.036   3.754  15.536 -1.6134 -0.2117 -1.1017
 4976TIP3    H236420   6.077   3.700  15.671 -0.1055  0.9244 -1.0677
 4977TIP3   OH236421   3.611   4.550  12.171  0.9397 -0.6375 -0.2619
 4977TIP3    H136422   3.702   4.570  12.149  1.1657 -0.9715  0.3288
 4977TIP3    H236423   3.607   4.559  12.266  0.4148 -0.8773 -0.2565
 4978TIP3   OH236424   3.656   3.680  15.349  0.3834  0.6627 -0.2224
 4978TIP3    H136425   3.606   3.732  15.412  2.5782  0.5126  1.7807
 4978TIP3    H236426   3.709   3.622  15.403 -1.5387 -3.4174 -2.3379
 4979TIP3   OH236427   1.124   6.392  12.489  0.2656  0.9093  0.5523
 4979TIP3    H136428   1.126   6.301  12.518 -0.4711  0.0329 -1.8664
 4979TIP3    H236429   1.032   6.417  12.496  0.3441  1.2177  0.4967
 4980TIP3   OH236430   1.941   6.479  13.331  0.3412 -0.2145 -0.1041
 4980TIP3    H136431   1.922   6.570  13.306 -0.5265  0.1208  1.6280
 4980TIP3    H236432   1.937   6.479  13.426 -1.0020 -2.3357 -0.0898
 4981TIP3   OH236433   5.504   1.553   0.269 -0.1762 -0.0244  0.1274
 4981TIP3    H136434   5.463   1.639   0.281  1.2675  0.7324 -0.2000
 4981TIP3    H236435   5.573   1.568   0.205  2.0062 -0.7856  2.1651
 4982TIP3   OH236436   4.766   3.516   2.593  0.1669  0.6757 -0.2308
 4982TIP3    H136437   4.748   3.428   2.625 -1.8769  0.8727 -0.6984
 4982TIP3    H236438   4.700   3.571   2.637  0.1672  1.6448 -1.4014
 4983TIP3   OH236439   1.492   3.983  11.872  0.1341 -0.5338  0.2703
 4983TIP3    H136440   1.536   4.068  11.864  0.8911 -0.6692  2.4789
 4983TIP3    H236441   1.442   3.989  11.953 -0.4134 -1.9506  0.0719
 4984TIP3   OH236442   6.294   6.373   2.485 -0.2794 -0.1067  0.1329
 4984TIP3    H136443   6.253   6.289   2.466  1.4076 -0.9128 -0.1288
 4984TIP3    H236444   6.257   6.433   2.421  0.8361 -1.4131 -1.8508
 4985TIP3   OH236445   0.063   3.878  15.359  0.2676 -0.0158 -0.3187
 4985TIP3    H136446   0.108   3.921  15.286  0.1878 -0.4834 -0.6446
 4985TIP3    H236447   0.011   3.948  15.399  1.1883  0.5076 -0.0033
 4986TIP3   OH236448   0.633   2.733  11.520  0.2848  0.2220 -0.0808
 4986TIP3    H136449   0.703   2.697  11.575  0.9247  1.3878 -0.0932
 4986TIP3    H236450   0.560   2.672  11.531  1.7908 -1.9608 -1.3368
 4987TIP3   OH236451   2.068   6.511   1.475  0.4561 -0.7167  0.4940
 4987TIP3    H136452   2.111   6.578   1.421  1.8732 -1.2485  0.9158
 4987TIP3    H236453   2.075   6.545   1.565  4.8757 -3.0693  1.3432
 4988TIP3   OH236454   1.494   5.776   5.890 -0.7347 -0.8221  0.1123
 4988TIP3    H136455   1.459   5.852   5.937  0.7487  0.1769 -0.2964
 4988TIP3    H236456   1.422   5.713   5.888 -2.3224  0.9087 -0.2904
 4989TIP3   OH236457   1.946   0.037  12.337  0.4643 -0.2144 -0.0573
 4989TIP3    H136458   1.948   0.097  12.411 -0.4286 -1.9500  1.4618
 4989TIP3    H236459   2.017  -0.025  12.355  1.9322  0.7988 -2.0307
 4990TIP3   OH236460   4.777   2.282   0.689  0.1247  0.0061 -0.7894
 4990TIP3    H136461   4.709   2.343   0.662 -0.0923 -0.3687 -1.1026
 4990TIP3    H236462   4.812   2.247   0.607 -0.4895 -1.0942 -0.5997
 4991TIP3   OH236463   3.238   2.446   3.601 -0.2535  0.1585 -0.0240
 4991TIP3    H136464   3.331   2.424   3.609  0.0182  0.9941 -0.6843
 4991TIP3    H236465   3.198   2.368   3.562 -0.1356 -0.8128  1.7291
 4992TIP3   OH236466   2.814   3.993  14.861 -0.1250 -0.3305  0.4943
 4992TIP3    H136467   2.734   4.007  14.812  0.3293 -0.1572 -0.2008
 4992TIP3    H236468   2.788   3.934  14.933 -0.6712 -1.0597 -0.2842
 4993TIP3   OH236469   0.758   0.877  16.710  0.0805 -0.4508  0.2936
 4993TIP3    H136470   0.824   0.807  16.717 -1.9107 -2.7958 -2.1484
 4993TIP3    H236471   0.690   0.852  16.772 -1.5216 -1.9298 -1.8942
 4994TIP3   OH236472   2.642   2.026   5.506 -0.5985  0.0084  0.0137
 4994TIP3    H136473   2.632   2.049   5.598 -0.8807  0.4610 -0.1273
 4994TIP3    H236474   2.594   1.943   5.497 -1.3599  0.4376  0.0758
 4995TIP3   OH236475   2.992   1.621   5.312 -0.1140 -0.1531  0.3095
 4995TIP3    H136476   3.026   1.667   5.389 -1.9230 -0.7502  1.5586
 4995TIP3    H236477   2.919   1.676   5.282 -0.6867 -0.9239  0.2619
 4996TIP3   OH236478   2.727   2.996   0.816  0.3244 -0.3460  0.1772
 4996TIP3    H136479   2.687   2.911   0.837  0.4038 -0.2228  0.8444
 4996TIP3    H236480   2.744   3.036   0.901  0.7096  0.1455 -0.1267
 4997TIP3   OH236481   1.834   6.803   2.763 -0.1360 -0.2959  0.0259
 4997TIP3    H136482   1.898   6.802   2.692 -0.0401  1.5156  0.0424
 4997TIP3    H236483   1.848   6.720   2.808  0.3314 -1.1331 -1.5866
 4998TIP3   OH236484   2.318   4.989   0.227  0.2172 -0.5238  1.1123
 4998TIP3    H136485   2.294   4.981   0.135 -1.8213  1.2139  1.4272
 4998TIP3    H236486   2.411   5.012   0.225  0.3394 -1.0255 -0.4698
 4999TIP3   OH236487   0.395   4.197  13.875  0.5994  0.2348  0.2669
 4999TIP3    H136488   0.465   4.262  13.875 -0.0833  1.0836  3.0101
 4999TIP3    H236489   0.341   4.219  13.951 -2.0835 -1.0227 -1.1199
 5000TIP3   OH236490   4.563   4.499  15.985  0.1360  0.2095 -0.0245
 5000TIP3    H136491   4.559   4.473  15.893  1.8348 -1.7044  0.3876
 5000TIP3    H236492   4.489   4.454  16.025 -0.4852  0.8806 -0.3931
 5001TIP3   OH236493   0.029   6.410  11.750 -0.0785  0.2451 -0.0087
 5001TIP3    H136494   0.009   6.498  11.720 -2.0420 -0.0014  0.4751
 5001TIP3    H236495   0.032   6.357  11.670 -0.1892  0.5031 -0.1812
 5002TIP3   OH236496   2.402   6.469   4.271  0.4598  0.0346 -0.1152
 5002TIP3    H136497   2.372   6.550   4.312  3.4986  0.5049  1.4331
 5002TIP3    H236498   2.384   6.401   4.336 -1.0779 -0.4329 -0.9707
 5003TIP3   OH236499   4.393   0.036   1.141 -0.9871  0.3593 -0.2724
 5003TIP3    H136500   4.463   0.007   1.083 -0.4738  1.3723 -0.1822
 5003TIP3    H236501   4.431   0.107   1.191 -1.7157  0.1249  0.6510
 5004TIP3   OH236502   4.979   4.160   0.822  0.1748 -0.1633 -0.0213
 5004TIP3    H136503   5.064   4.182   0.784  0.8305  0.5955  1.7432
 5004TIP3    H236504   5.000   4.098   0.892 -0.6506  0.4375  0.7827
 5005TIP3   OH236505   1.030   4.210   6.240 -0.2243 -0.3385  0.2182
 5005TIP3    H136506   1.121   4.223   6.215 -0.6061  0.6965 -0.7003
 5005TIP3    H236507   0.992   4.298   6.242 -1.5924 -0.8546 -1.0005
 5006TIP3   OH236508   0.437   6.061   5.982 -0.5190  0.6643  0.6583
 5006TIP3    H136509   0.521   6.018   5.965  0.2252  2.2760  0.0067
 5006TIP3    H236510   0.460   6.144   6.023 -1.7643  1.3109  0.1140
 5007TIP3   OH236511   1.958   0.615  15.005 -0.3202 -0.2993  0.1102
 5007TIP3    H136512   1.866   0.595  14.991 -0.8837  1.0224  1.5734
 5007TIP3    H236513   1.983   0.565  15.082 -0.2227  0.4295  0.5598
 5008TIP3   OH236514   2.646   5.106  10.591  0.3706 -0.2445 -0.2092
 5008TIP3    H136515   2.619   5.155  10.668 -0.6441 -1.6902  0.3898
 5008TIP3    H236516   2.697   5.169  10.539 -0.0457  1.1256  0.9883
 5009TIP3   OH236517   6.799   4.688   0.470 -0.1587  0.0237  0.0032
 5009TIP3    H136518   6.834   4.750   0.406 -2.7187  1.2355 -0.3449
 5009TIP3    H236519   6.839   4.714   0.553  0.1176  1.0578 -0.4316
 5010TIP3   OH236520   0.279   5.216   5.122 -0.2850 -0.5439  0.7648
 5010TIP3    H136521   0.284   5.133   5.075 -0.3288 -0.1347  0.0274
 5010TIP3    H236522   0.195   5.213   5.168 -0.8158 -0.4245 -0.1813
 5011TIP3   OH236523   3.724   2.140   5.453 -0.3314  0.4516  0.5632
 5011TIP3    H136524   3.673   2.135   5.372  2.1488  1.3121 -1.1687
 5011TIP3    H236525   3.806   2.096   5.432  0.1195  0.0588  2.8899
 5012TIP3   OH236526   1.044   1.372  10.825 -0.0605  0.3172 -0.6338
 5012TIP3    H136527   1.111   1.357  10.758  1.2155  0.2566  0.6170
 5012TIP3    H236528   1.031   1.467  10.824 -1.7860  0.1390 -2.5361
 5013TIP3   OH236529   2.588   1.655   2.490  0.3577  0.2479  0.2052
 5013TIP3    H136530   2.524   1.585   2.497  1.0696 -0.2477  2.8830
 5013TIP3    H236531   2.547   1.719   2.432 -3.8633  1.2111  3.7269
 5014TIP3   OH236532   3.097   5.829   2.579  0.5211 -0.4604 -0.4055
 5014TIP3    H136533   3.059   5.809   2.494 -0.0696 -0.3526 -0.1690
 5014TIP3    H236534   3.039   5.894   2.618  2.3249  1.6876 -1.0892
 5015TIP3   OH236535   0.364   0.641   3.375  0.0000 -0.2628 -0.3015
 5015TIP3    H136536   0.286   0.627   3.429 -0.5998 -0.0759 -1.0872
 5015TIP3    H236537   0.438   0.631   3.435 -0.6673  1.1154  0.8016
 5016TIP3   OH236538   2.777   4.497  11.761 -0.0031 -0.0219 -0.1946
 5016TIP3    H136539   2.682   4.482  11.754  0.0514 -0.9608  0.8854
 5016TIP3    H236540   2.805   4.442  11.834  1.4697 -0.1593 -0.8248
 5017TIP3   OH236541   1.065   1.744   2.578 -0.1887 -0.5890 -0.4982
 5017TIP3    H136542   1.110   1.663   2.601 -1.3332 -0.7663  1.2852
 5017TIP3    H236543   0.993   1.751   2.640 -0.4469  1.5398 -0.9374
 5018TIP3   OH236544   3.509   2.507  11.343  0.4382  0.1235  0.3405
 5018TIP3    H136545   3.567   2.435  11.367 -0.8904 -1.8328 -1.8318
 5018TIP3    H236546   3.558   2.558  11.278  0.2371 -0.7872 -0.5514
 5019TIP3   OH236547   0.103   5.430  15.388  0.1124 -0.6717 -0.1062
 5019TIP3    H136548   0.018   5.387  15.394 -0.2271 -0.2196 -1.3452
 5019TIP3    H236549   0.110   5.456  15.296  1.5868 -0.6851 -0.0102
 5020TIP3   OH236550   5.078   2.124  13.142  0.4412 -0.1046 -0.5520
 5020TIP3    H136551   5.169   2.126  13.173  1.2565  1.0381 -2.7725
 5020TIP3    H236552   5.057   2.031  13.135  1.8844 -0.4196 -1.1269
 5021TIP3   OH236553   6.447   3.055  14.834  0.2826 -0.1899 -0.1714
 5021TIP3    H136554   6.426   3.024  14.746  0.0650 -1.5376  0.3382
 5021TIP3    H236555   6.364   3.053  14.881  0.6683 -0.9741  0.5026
 5022TIP3   OH236556   0.279   2.006  15.280 -0.2285 -0.5279  0.6319
 5022TIP3    H136557   0.211   2.041  15.337 -0.8771  1.0713 -1.0228
 5022TIP3    H236558   0.337   1.958  15.339 -1.4986  0.0354  2.4362
 5023TIP3   OH236559   1.313   5.587   5.365 -0.0847 -0.3755  0.2570
 5023TIP3    H136560   1.219   5.572   5.357 -0.2659  0.8945 -0.0916
 5023TIP3    H236561   1.325   5.680   5.346  1.2782 -0.5818 -0.0131
 5024TIP3   OH236562   0.043   6.173  15.296  0.1082 -0.2662 -0.2261
 5024TIP3    H136563  -0.029   6.177  15.233 -0.7395 -0.3314  0.7168
 5024TIP3    H236564   0.066   6.264  15.313 -1.2154 -0.1364  1.0763
 5025TIP3   OH236565   0.049   3.878  16.923  0.4587  0.1573  0.0708
 5025TIP3    H136566   0.024   3.947  16.985 -0.2296  0.8091 -0.9060
 5025TIP3    H236567   0.110   3.823  16.972 -0.2097  0.5489  1.3915
 5026TIP3   OH236568   1.692   1.330   4.923 -0.2994 -0.3443  0.1050
 5026TIP3    H136569   1.720   1.240   4.939 -1.2296 -0.6057  0.3377
 5026TIP3    H236570   1.768   1.372   4.881  1.7235 -0.0385  3.7165
 5027TIP3   OH236571   6.700   0.078   1.382 -0.4021 -0.6206  0.0630
 5027TIP3    H136572   6.604   0.075   1.375 -0.3662 -0.3725 -0.7007
 5027TIP3    H236573   6.721   0.018   1.453 -1.0735 -1.3521 -0.3325
 5028TIP3   OH236574   1.448   6.630  11.396  0.3291 -0.6504 -0.3959
 5028TIP3    H136575   1.518   6.683  11.358  0.0897  0.1867  0.3089
 5028TIP3    H236576   1.371   6.688  11.395  0.2916 -0.6255  1.2583
 5029TIP3   OH236577   3.595   1.624  15.263 -0.2856 -0.1913 -1.1438
 5029TIP3    H136578   3.683   1.658  15.276  0.0311 -1.7042  1.0738
 5029TIP3    H236579   3.540   1.676  15.322 -0.1803 -1.8931  0.5013
 5030TIP3   OH236580   3.094   4.695  13.364 -0.4408 -0.6317 -0.1533
 5030TIP3    H136581   3.011   4.735  13.337 -0.7003 -0.6383  0.6153
 5030TIP3    H236582   3.134   4.665  13.282 -1.6159 -1.4364 -0.4614
 5031TIP3   OH236583   0.007   4.500  11.971 -0.6853  0.0657 -0.4578
 5031TIP3    H136584  -0.014   4.571  12.032  0.0106  0.1903 -0.3556
 5031TIP3    H236585  -0.076   4.482  11.927 -1.1002  0.2663  0.2177
 5032TIP3   OH236586   1.548   6.141  12.262 -0.1049 -0.7468  0.3939
 5032TIP3    H136587   1.485   6.127  12.333  2.2219 -0.8160  2.5994
 5032TIP3    H236588   1.498   6.187  12.194 -2.0528  0.8816  2.7504
 5033TIP3   OH236589   4.943   2.065  12.037  0.3822 -0.5595  0.3035
 5033TIP3    H136590   4.899   2.054  11.952 -0.2743  0.2129  0.5277
 5033TIP3    H236591   4.994   1.985  12.048 -1.9973 -2.1408  0.6406
 5034TIP3   OH236592   5.228   1.822  10.872  0.4775 -0.1387  0.2292
 5034TIP3    H136593   5.189   1.736  10.888 -0.4713  0.3168  0.3925
 5034TIP3    H236594   5.220   1.835  10.778  1.4446 -0.6152  0.0742
 5035TIP3   OH236595   4.215   1.252  11.418 -0.0812  0.1277 -0.5478
 5035TIP3    H136596   4.187   1.322  11.361 -1.3244 -0.8330 -1.1592
 5035TIP3    H236597   4.164   1.264  11.498  0.6170  0.6273 -0.1599
 5036TIP3   OH236598   0.791   4.784  12.121 -0.4992 -0.7323  0.0419
 5036TIP3    H136599   0.698   4.781  12.098 -1.0189  4.3093  0.5169
 5036TIP3    H236600   0.791   4.772  12.216 -0.7356 -0.1674  0.1159
 5037TIP3   OH236601   0.019   5.172  13.944  0.4738  0.7416 -0.8893
 5037TIP3    H136602   0.085   5.105  13.960 -0.0651  0.5075  0.4339
 5037TIP3    H236603   0.057   5.227  13.875  1.6026  0.0200 -0.8634
 5038TIP3   OH236604   6.098   3.098  11.299 -0.1624 -0.2864 -0.1410
 5038TIP3    H136605   6.111   3.093  11.205  0.9643 -0.8462  0.0280
 5038TIP3    H236606   6.090   3.006  11.327  0.1214 -0.1528  0.3853
 5039TIP3   OH236607   2.166   2.877   4.720 -0.2112  0.3672  0.6041
 5039TIP3    H136608   2.228   2.943   4.690  0.0465 -0.3211 -0.4480
 5039TIP3    H236609   2.082   2.904   4.683 -0.6210  1.4119  2.1994
 5040TIP3   OH236610   4.691   5.755   5.155  0.1713 -0.3343  0.0120
 5040TIP3    H136611   4.711   5.666   5.125 -2.2375 -0.0156 -2.9473
 5040TIP3    H236612   4.769   5.805   5.133  0.4000 -1.1430 -1.1241
 5041TIP3   OH236613   5.469   1.852  11.469 -0.3634  0.3193 -0.1638
 5041TIP3    H136614   5.405   1.807  11.414  0.3253 -1.0184  0.0908
 5041TIP3    H236615   5.509   1.917  11.412  0.7467 -1.4277 -1.4748
 5042TIP3   OH236616   6.183   1.786  13.348  0.2179  0.4480 -0.6085
 5042TIP3    H136617   6.264   1.745  13.319 -0.4918 -0.6186 -1.1379
 5042TIP3    H236618   6.203   1.821  13.435  0.9281 -0.8237 -0.2370
 5043TIP3   OH236619   6.517   4.508  12.499 -0.0598 -0.4702  0.4865
 5043TIP3    H136620   6.509   4.551  12.584  1.6671  0.2789  0.3071
 5043TIP3    H236621   6.456   4.555  12.443 -0.1324  0.0033  0.9572
 5044TIP3   OH236622   2.839   2.033   1.512 -0.3450 -0.5951 -0.2763
 5044TIP3    H136623   2.907   1.973   1.481  1.9625  1.2289  0.9365
 5044TIP3    H236624   2.864   2.052   1.602 -2.5598  0.1013  0.2429
 5045TIP3   OH236625   0.774   2.661   1.153 -0.1940  0.4524 -0.7426
 5045TIP3    H136626   0.844   2.636   1.212  0.4019 -0.2911 -1.7372
 5045TIP3    H236627   0.783   2.756   1.144 -0.8195  0.7091  0.9773
 5046TIP3   OH236628   5.113   0.511   2.648 -0.4148  0.4050  0.0512
 5046TIP3    H136629   5.112   0.476   2.559 -0.2382  0.0435  0.1872
 5046TIP3    H236630   5.055   0.587   2.645  0.2393  0.9036 -0.5789
 5047TIP3   OH236631   1.018   4.324  14.568 -0.1558 -0.1760  0.1945
 5047TIP3    H136632   0.952   4.267  14.606 -1.9271  1.9614  0.5283
 5047TIP3    H236633   1.080   4.340  14.639 -1.0351  0.3051  0.8662
 5048TIP3   OH236634   4.255   6.454   0.442 -0.2149  0.0568 -0.4350
 5048TIP3    H136635   4.233   6.546   0.439  0.0822  0.2717  1.8097
 5048TIP3    H236636   4.340   6.448   0.398  0.2427  1.0480  0.2709
 5049TIP3   OH236637   1.237   5.147   0.011  0.0138 -0.1182  0.1108
 5049TIP3    H136638   1.263   5.237  -0.010 -1.5455  0.1615 -0.8434
 5049TIP3    H236639   1.202   5.153   0.100  0.3726  0.1134  0.2399
 5050TIP3   OH236640   5.790   6.061  11.073 -0.1599 -0.5984  0.5849
 5050TIP3    H136641   5.850   6.042  11.146  0.7917 -0.7512 -0.2229
 5050TIP3    H236642   5.826   6.013  10.999  0.7890  2.1264 -0.8622
 5051TIP3   OH236643   1.996   0.813  11.635  0.3952 -0.0605 -0.6125
 5051TIP3    H136644   1.998   0.741  11.699  1.0622  0.8351  0.4035
 5051TIP3    H236645   1.922   0.866  11.663  1.2311  0.8174 -0.0303
 5052TIP3   OH236646   4.827   0.159  11.862 -0.2911 -0.6968  0.3687
 5052TIP3    H136647   4.787   0.165  11.948 -0.4101 -0.7023  0.3137
 5052TIP3    H236648   4.912   0.203  11.872 -0.8630  0.5015  0.1490
 5053TIP3   OH236649   1.509   4.581  11.257  0.3005  0.2194  0.2229
 5053TIP3    H136650   1.584   4.545  11.211 -1.1762 -0.2351 -1.9536
 5053TIP3    H236651   1.452   4.505  11.273 -0.7684  0.8961 -0.2926
 5054TIP3   OH236652   4.398   2.922  11.181 -0.9392  0.0634  0.4178
 5054TIP3    H136653   4.337   2.869  11.232 -1.1738 -0.3524 -0.2767
 5054TIP3    H236654   4.343   2.983  11.132 -0.7059  0.5816  0.7962
 5055TIP3   OH236655   2.561   0.899  16.570  0.0966  0.3495 -0.4088
 5055TIP3    H136656   2.505   0.825  16.546 -1.2990  1.5086 -0.8835
 5055TIP3    H236657   2.646   0.877  16.533 -0.0691 -1.3564  0.1263
 5056TIP3   OH236658   2.757   6.067  16.034  0.7559 -0.5089  0.8417
 5056TIP3    H136659   2.828   6.012  16.002  0.4724  0.0444 -0.8619
 5056TIP3    H236660   2.792   6.156  16.027  0.3864 -0.3251  1.3217
 5057TIP3   OH236661   1.605   2.920   4.239 -0.0900  0.1050 -0.1455
 5057TIP3    H136662   1.695   2.923   4.206 -0.3888 -0.6118 -1.0466
 5057TIP3    H236663   1.588   2.828   4.257 -0.5824  0.2578  0.2015
 5058TIP3   OH236664   5.042   4.449  17.190 -0.5145  0.1422 -0.5357
 5058TIP3    H136665   5.112   4.509  17.164 -0.7792  0.5531 -0.3102
 5058TIP3    H236666   4.973   4.463  17.125  0.3005 -1.5826 -1.8687
 5059TIP3   OH236667   2.144   6.269  14.541 -0.2496  0.1259 -0.3449
 5059TIP3    H136668   2.086   6.327  14.589 -0.3743 -0.6843  0.5024
 5059TIP3    H236669   2.087   6.221  14.482 -0.6005 -1.2219  1.0241
 5060TIP3   OH236670   0.995   5.064   5.645 -0.1075 -0.2755  0.2283
 5060TIP3    H136671   1.063   5.109   5.695 -0.6627 -0.2553  0.9738
 5060TIP3    H236672   1.034   5.051   5.558  0.5903  0.3449  0.4393
 5061TIP3   OH236673   5.809   6.491  10.605 -0.0747 -0.2558 -0.4182
 5061TIP3    H136674   5.770   6.420  10.656  0.1763 -0.2155 -0.1742
 5061TIP3    H236675   5.800   6.462  10.514  1.3394 -1.2830 -0.2634
 5062TIP3   OH236676   3.002   3.211   0.926  0.7724  0.1228 -0.6182
 5062TIP3    H136677   3.065   3.142   0.947  0.3472 -0.3548 -0.8873
 5062TIP3    H236678   2.922   3.185   0.973  1.1669  1.4418  0.8421
 5063TIP3   OH236679   6.207   4.528   0.588 -0.5506  0.3596 -0.1656
 5063TIP3    H136680   6.226   4.461   0.653  0.7282  1.7465  0.9872
 5063TIP3    H236681   6.203   4.610   0.639  1.0945  1.5817 -1.8734
 5064TIP3   OH236682   6.718   3.836   5.145 -0.6318  0.6178 -0.1432
 5064TIP3    H136683   6.799   3.882   5.170  0.8609 -1.4527 -0.8473
 5064TIP3    H236684   6.663   3.841   5.223  1.9805 -1.6433  2.0917
 5065TIP3   OH236685   1.975   2.317   0.744  0.3418 -0.3604  0.3084
 5065TIP3    H136686   2.055   2.268   0.764 -0.2559 -0.9779  1.3213
 5065TIP3    H236687   1.943   2.279   0.662  1.2699  0.1453 -0.3037
 5066TIP3   OH236688   0.190   1.386  15.545  0.2520  0.0897  0.1285
 5066TIP3    H136689   0.109   1.420  15.506  1.2480  0.7076 -1.4669
 5066TIP3    H236690   0.253   1.457  15.537  1.1005 -0.5435  0.9337
 5067TIP3   OH236691   3.581   2.515  11.951  0.3023 -0.0405 -0.5449
 5067TIP3    H136692   3.580   2.532  12.045 -1.3689 -0.6247 -0.4249
 5067TIP3    H236693   3.653   2.454  11.938  0.4249 -0.1053  0.3890
 5068TIP3   OH236694   2.476   4.032   0.216 -0.2733 -0.3830 -0.2803
 5068TIP3    H136695   2.514   3.944   0.208  0.1860 -0.2157  0.0679
 5068TIP3    H236696   2.404   4.021   0.279  0.6652 -0.2303  0.8342
 5069TIP3   OH236697   1.283   5.703   1.919 -0.3324 -0.6185  0.2196
 5069TIP3    H136698   1.305   5.616   1.887  1.9697  0.0517 -0.1666
 5069TIP3    H236699   1.360   5.757   1.899 -0.7074  0.9498  2.5996
 5070TIP3   OH236700   0.850   1.215  14.213 -0.4170  0.0756 -0.5871
 5070TIP3    H136701   0.899   1.296  14.223 -0.1694 -0.1419 -0.0083
 5070TIP3    H236702   0.855   1.195  14.120  0.1542  0.3248 -0.6116
 5071TIP3   OH236703   4.162   3.882  11.782 -0.0871 -0.1225 -0.0358
 5071TIP3    H136704   4.072   3.885  11.749  0.1309 -2.4773 -1.0434
 5071TIP3    H236705   4.214   3.924  11.715 -0.3185  0.5039  0.1665
 5072TIP3   OH236706   4.766   0.781   1.038 -0.3652  0.4074 -0.0385
 5072TIP3    H136707   4.672   0.784   1.021 -0.2669  1.8174 -0.4517
 5072TIP3    H236708   4.803   0.853   0.987  0.7404  0.8182  1.2492
 5073TIP3   OH236709   0.819   6.620  11.754  0.6110 -0.3489 -0.1782
 5073TIP3    H136710   0.820   6.650  11.663  0.0595  0.2094 -0.0116
 5073TIP3    H236711   0.900   6.570  11.765  1.4461  0.9001 -0.5351
 5074TIP3   OH236712   5.955   5.807   5.641  0.2207 -0.2515 -0.0092
 5074TIP3    H136713   6.039   5.838   5.605 -0.2186  0.6223 -0.3210
 5074TIP3    H236714   5.963   5.712   5.643  2.0655 -0.1413  2.0123
 5075TIP3   OH236715   1.890   1.499   4.817 -0.3894 -0.7857 -0.7627
 5075TIP3    H136716   1.829   1.562   4.778  0.1947  0.7316  0.6646
 5075TIP3    H236717   1.970   1.509   4.766 -0.4599 -0.7237 -0.8625
 5076TIP3   OH236718   4.294   0.289   3.370  0.5233 -0.6502 -0.3551
 5076TIP3    H136719   4.366   0.305   3.432 -0.4582  1.2829  0.3589
 5076TIP3    H236720   4.313   0.202   3.334  2.2030 -0.9856  1.1734
 5077TIP3   OH236721   6.153   2.267  16.223  0.4952 -0.5417 -0.3495
 5077TIP3    H136722   6.242   2.298  16.237  0.1875 -0.2234  1.0794
 5077TIP3    H236723   6.137   2.205  16.295 -0.2032 -1.1152 -0.9814
 5078TIP3   OH236724   6.162   5.010   3.628  0.4482  0.0800 -0.1789
 5078TIP3    H136725   6.120   5.012   3.714 -0.9474  1.8606 -0.8426
 5078TIP3    H236726   6.246   5.054   3.642  0.8261 -0.8108  0.5152
 5079TIP3   OH236727   5.663   0.913  10.499 -0.2226  0.4005 -0.1455
 5079TIP3    H136728   5.652   0.878  10.587  1.8794  2.3892  1.0267
 5079TIP3    H236729   5.577   0.950  10.477 -0.7996 -0.1976  1.0128
 5080TIP3   OH236730   4.418   4.824  14.962  0.7456 -0.2739 -0.1875
 5080TIP3    H136731   4.336   4.822  14.912 -0.2854  1.6602  1.3052
 5080TIP3    H236732   4.485   4.844  14.897 -0.2770  0.2571 -1.1147
 5081TIP3   OH236733   6.424   4.169  12.352 -0.0776 -0.0661 -0.3230
 5081TIP3    H136734   6.452   4.099  12.292  1.1261  0.9442 -0.9860
 5081TIP3    H236735   6.414   4.246  12.296  1.4477  1.0089  0.7801
 5082TIP3   OH236736   3.448   0.595   5.894 -0.1134 -0.3930  0.5184
 5082TIP3    H136737   3.522   0.535   5.906  0.2259 -0.1822 -0.5083
 5082TIP3    H236738   3.412   0.572   5.809 -1.6584 -0.9380  1.2850
 5083TIP3   OH236739   3.841   2.875   5.830 -0.1247 -0.4073 -0.1011
 5083TIP3    H136740   3.892   2.793   5.827 -0.8203 -0.8545  0.1074
 5083TIP3    H236741   3.832   2.901   5.739 -0.1437 -0.7190 -0.1911
 5084TIP3   OH236742   6.483   6.209   3.563 -0.7131  0.2260 -0.2973
 5084TIP3    H136743   6.539   6.251   3.498  2.1644  1.0695  2.4829
 5084TIP3    H236744   6.446   6.283   3.613  1.8230 -0.2777  2.5968
 5085TIP3   OH236745   6.707   2.124  14.505  0.6942  0.2941  0.1357
 5085TIP3    H136746   6.773   2.193  14.509  0.3578  0.5547  1.5385
 5085TIP3    H236747   6.639   2.151  14.566  0.5649 -1.2857  0.7466
 5086TIP3   OH236748   1.201   1.314  14.220 -0.0130  0.4888  0.0394
 5086TIP3    H136749   1.195   1.257  14.297  0.7147 -1.4513 -1.2796
 5086TIP3    H236750   1.120   1.365  14.222 -1.1470 -1.2456  0.7914
 5087TIP3   OH236751   5.032   1.395   2.990 -0.0108 -0.9737 -0.2731
 5087TIP3    H136752   5.100   1.405   3.056 -1.6553 -0.9329  1.5160
 5087TIP3    H236753   4.950   1.392   3.040 -1.2078 -3.0653 -2.1485
 5088TIP3   OH236754   5.749   3.788   4.160 -0.7594  0.5040  0.0199
 5088TIP3    H136755   5.814   3.852   4.186  0.0201 -0.0074 -0.6378
 5088TIP3    H236756   5.713   3.821   4.078 -0.0432 -0.1093 -0.5502
 5089TIP3   OH236757   6.307   5.803   4.079 -0.0958 -0.0162  0.2815
 5089TIP3    H136758   6.344   5.801   3.990 -1.3958 -0.0762 -0.2839
 5089TIP3    H236759   6.249   5.726   4.082  0.0620 -0.1085  1.2431
 5090TIP3   OH236760   2.321   4.754   2.929 -0.1464 -0.1218 -0.3013
 5090TIP3    H136761   2.377   4.677   2.913 -0.5303 -0.4306 -0.1802
 5090TIP3    H236762   2.265   4.759   2.851 -0.6326 -0.4170  0.0226
 5091TIP3   OH236763   0.212   2.933   0.062 -0.4423 -0.3218  0.1582
 5091TIP3    H136764   0.299   2.971   0.055 -0.0199 -1.2604  0.1827
 5091TIP3    H236765   0.186   2.949   0.153 -0.8491  1.0953 -0.1820
 5092TIP3   OH236766   3.172   3.097  14.236 -0.2631 -0.7557  0.2767
 5092TIP3    H136767   3.092   3.056  14.271 -1.3845  0.9218 -0.1900
 5092TIP3    H236768   3.219   3.025  14.195 -0.0747 -2.3579  3.0114
 5093TIP3   OH236769   6.786   3.485  13.693  0.3064 -0.1468 -0.0296
 5093TIP3    H136770   6.766   3.471  13.601  1.6842 -2.3209 -0.0895
 5093TIP3    H236771   6.711   3.534  13.727 -1.6124 -1.7514 -1.6778
 5094TIP3   OH236772   1.402   0.705  14.455 -0.9734  0.5810  0.4459
 5094TIP3    H136773   1.359   0.777  14.409  0.9068  1.0014 -0.7681
 5094TIP3    H236774   1.480   0.744  14.494  0.2737 -0.8018 -0.5369
 5095TIP3   OH236775   2.999   0.056  10.849 -0.3244  0.5839  0.0340
 5095TIP3    H136776   3.004   0.016  10.763  0.6306  0.4331  0.1551
 5095TIP3    H236777   3.008   0.150  10.833  0.4659  0.5061  0.0270
 5096TIP3   OH236778   4.911   3.006  12.593  0.0288  0.8173  0.0726
 5096TIP3    H136779   4.980   3.054  12.546  0.5727 -0.7176 -0.7766
 5096TIP3    H236780   4.925   3.029  12.685  1.4263  0.8607 -0.1224
 5097TIP3   OH236781   4.374   2.068  17.227  0.5023 -0.2352  0.3691
 5097TIP3    H136782   4.345   2.103  17.143 -0.8608 -0.3525  0.7585
 5097TIP3    H236783   4.347   1.976  17.225 -0.1386 -0.0830  1.1657
 5098TIP3   OH236784   3.024   2.064  16.325 -1.1004  0.2498 -0.4869
 5098TIP3    H136785   3.088   2.020  16.381 -1.1879  1.5662  0.6672
 5098TIP3    H236786   3.073   2.131  16.279 -1.4278  0.4710 -0.5192
 5099TIP3   OH236787   0.285   6.795  11.093 -0.1568 -0.9842  0.1907
 5099TIP3    H136788   0.190   6.803  11.084 -0.1452 -0.4785  0.4325
 5099TIP3    H236789   0.320   6.819  11.007 -0.1923  0.2608  0.5076
 5100TIP3   OH236790   4.555   6.274   3.107 -0.0244  0.0757 -0.2482
 5100TIP3    H136791   4.638   6.226   3.114  1.1500  1.8464 -1.4354
 5100TIP3    H236792   4.542   6.310   3.195  1.2613  0.9975 -0.4022
 5101TIP3   OH236793   4.748   4.205   1.112 -0.1982 -0.0084 -0.0166
 5101TIP3    H136794   4.819   4.245   1.061 -0.8322 -1.0692 -1.7987
 5101TIP3    H236795   4.780   4.206   1.202  1.8663  0.0080 -0.7032
 5102TIP3   OH236796   0.198   3.699   3.722 -0.3633  0.0293  0.5277
 5102TIP3    H136797   0.249   3.737   3.794 -1.1399  0.0004  1.1135
 5102TIP3    H236798   0.144   3.631   3.764  1.0744 -1.8397 -0.5078
 5103TIP3   OH236799   5.282   1.300   2.570 -0.1353  0.3967 -0.4167
 5103TIP3    H136800   5.299   1.385   2.528  0.1664  1.2111  1.2821
 5103TIP3    H236801   5.362   1.250   2.558 -1.0497 -0.5593 -3.3621
 5104TIP3   OH236802   3.509   3.445   3.440  0.0577 -0.1515 -0.3111
 5104TIP3    H136803   3.503   3.526   3.489 -1.1318 -1.1238  1.2489
 5104TIP3    H236804   3.534   3.379   3.505  1.4243 -0.9915 -1.6155
 5105TIP3   OH236805   3.069   1.739   5.569 -0.4879 -0.3843 -0.1516
 5105TIP3    H136806   3.068   1.824   5.611  0.9135 -0.8709  0.9420
 5105TIP3    H236807   3.005   1.687   5.618 -2.0835  0.2761 -1.4465
 5106TIP3   OH236808   5.690   0.943  17.208  0.3555 -0.4895  0.0747
 5106TIP3    H136809   5.764   0.980  17.161  0.4392 -2.1126 -1.1494
 5106TIP3    H236810   5.614   0.964  17.153  0.3018 -1.3667 -0.2018
 5107TIP3   OH236811   1.363   0.137   2.218 -0.3573  0.6988  0.2054
 5107TIP3    H136812   1.382   0.067   2.281 -1.2518 -0.1419 -0.4216
 5107TIP3    H236813   1.424   0.207   2.241 -0.0454  0.0623  1.4221
 5108TIP3   OH236814   1.560   3.643  13.867  0.1126 -0.0938 -0.3035
 5108TIP3    H136815   1.569   3.687  13.783 -0.3942 -0.6301 -0.6422
 5108TIP3    H236816   1.475   3.671  13.900 -0.1205 -0.6338 -0.4241
 5109TIP3   OH236817   6.190   5.001   2.615 -0.6181 -0.3835 -0.1920
 5109TIP3    H136818   6.204   4.950   2.695  0.0426  0.3369  0.1613
 5109TIP3    H236819   6.222   5.088   2.636 -1.1006  0.0049 -1.0168
 5110TIP3   OH236820   5.953   2.592   2.555  0.1545  0.2624 -0.3479
 5110TIP3    H136821   6.045   2.620   2.551 -0.5566  3.1076  0.7549
 5110TIP3    H236822   5.949   2.532   2.629  0.7323  2.2386  1.3889
 5111TIP3   OH236823   3.000   1.080  11.585  0.4453  0.1181  0.0729
 5111TIP3    H136824   2.948   1.108  11.660  0.0242  1.5192 -0.7130
 5111TIP3    H236825   3.057   1.155  11.566  0.5963 -0.2386 -0.9520
 5112TIP3   OH236826   4.003   4.659   3.559 -0.3550 -0.0005 -0.0956
 5112TIP3    H136827   3.915   4.635   3.534 -0.1033  0.3118 -1.3423
 5112TIP3    H236828   4.058   4.635   3.485  0.6257 -0.2462  0.6764
 5113TIP3   OH236829   5.460   1.068   1.994  1.2962  0.2006 -0.4955
 5113TIP3    H136830   5.385   1.065   1.935 -0.2033 -0.0011  1.3170
 5113TIP3    H236831   5.516   0.996   1.966  0.6149  0.1015 -1.6479
 5114TIP3   OH236832   3.423   6.679  16.800 -0.7128 -0.4010  0.1506
 5114TIP3    H136833   3.457   6.736  16.869 -0.0552  1.6073 -1.7527
 5114TIP3    H236834   3.465   6.594  16.817 -0.8544 -0.0901  2.3920
 5115TIP3   OH236835   1.236   1.665   1.677  0.1519 -0.4419 -0.0421
 5115TIP3    H136836   1.219   1.656   1.583 -0.0145 -1.5695  0.0860
 5115TIP3    H236837   1.176   1.734   1.706  0.7367  0.4484 -0.8944
 5116TIP3   OH236838   3.622   5.769   4.079  0.0700 -0.0903 -0.2055
 5116TIP3    H136839   3.668   5.802   4.001 -1.0006 -0.2072 -0.9200
 5116TIP3    H236840   3.531   5.797   4.066  0.0850  0.9838  1.6366
 5117TIP3   OH236841   5.692   5.392   3.343 -0.2765 -0.2412  0.5201
 5117TIP3    H136842   5.715   5.299   3.346 -0.6520 -0.3082  1.4010
 5117TIP3    H236843   5.682   5.410   3.249  1.6958 -0.6029  0.1873
 5118TIP3   OH236844   6.677   5.290  16.643  0.3513 -0.2864  0.2433
 5118TIP3    H136845   6.643   5.275  16.554 -0.1131 -1.9880  0.6627
 5118TIP3    H236846   6.703   5.382  16.644 -2.6382  0.6888 -0.6638
 5119TIP3   OH236847   5.103   4.651  15.934  0.1451 -0.4068  0.1003
 5119TIP3    H136848   5.063   4.574  15.975 -0.4612  0.5849  1.4272
 5119TIP3    H236849   5.037   4.720  15.945  1.5598  0.8635  0.8988
 5120TIP3   OH236850   5.971   3.555  11.409  0.5721  0.3486  0.3002
 5120TIP3    H136851   5.930   3.496  11.472  1.1850  0.8572  1.1935
 5120TIP3    H236852   5.973   3.640  11.453  2.3878  0.3902  0.2148
 5121TIP3   OH236853   6.164   6.414   5.082  0.2290  0.0084  0.6481
 5121TIP3    H136854   6.090   6.423   5.142 -0.3464 -0.4542  0.0158
 5121TIP3    H236855   6.167   6.321   5.060 -2.6828  0.7108 -3.8364
 5122TIP3   OH236856   4.609   0.709   4.990 -0.2884  0.2586  0.6492
 5122TIP3    H136857   4.632   0.628   5.035  1.1279 -0.2396 -0.8620
 5122TIP3    H236858   4.692   0.743   4.957 -0.9178  2.0731  0.7915
 5123TIP3   OH236859   0.089   3.152  17.185  0.3276  0.1282  0.0826
 5123TIP3    H136860   0.122   3.063  17.199 -2.3973 -1.2770 -1.5187
 5123TIP3    H236861   0.002   3.152  17.223 -0.7726  1.2169 -2.2279
 5124TIP3   OH236862   1.866   1.959  10.619 -0.5528  0.1968 -0.4003
 5124TIP3    H136863   1.905   1.895  10.561  0.0830 -1.7863  2.0472
 5124TIP3    H236864   1.775   1.931  10.629 -0.5894  0.3626 -0.2385
 5125TIP3   OH236865   2.264   5.137  14.618 -0.7949  0.2146 -0.2747
 5125TIP3    H136866   2.204   5.162  14.689 -0.6419 -1.2686  0.4106
 5125TIP3    H236867   2.287   5.220  14.576 -1.9196  0.9912  0.5815
 5126TIP3   OH236868   0.726   0.160   3.691 -0.2309 -0.6685 -0.5170
 5126TIP3    H136869   0.664   0.089   3.673  0.0063 -0.6201 -1.5889
 5126TIP3    H236870   0.710   0.224   3.621  1.4522 -0.9438 -1.2031
 5127TIP3   OH236871   2.195   3.454  16.281 -0.1812 -0.4996 -0.5628
 5127TIP3    H136872   2.183   3.360  16.267  0.8662 -0.7766  0.2252
 5127TIP3    H236873   2.106   3.488  16.294 -0.6718 -1.1675 -1.9947
 5128TIP3   OH236874   1.172   4.396   2.730  0.2413 -0.2695  0.3997
 5128TIP3    H136875   1.266   4.391   2.713  0.1827 -0.8848  0.2257
 5128TIP3    H236876   1.164   4.460   2.800  1.1799 -2.8848  3.1070
 5129TIP3   OH236877   2.649   6.213  15.396 -0.4214 -0.0169 -0.4430
 5129TIP3    H136878   2.561   6.212  15.433 -0.5667  0.6847 -0.7601
 5129TIP3    H236879   2.635   6.190  15.304 -0.2202 -0.3580 -0.3885
 5130TIP3   OH236880   5.617   5.933   0.969 -0.3274 -0.0918 -0.2700
 5130TIP3    H136881   5.544   5.888   0.928 -0.5524  0.8914 -0.9846
 5130TIP3    H236882   5.670   5.863   1.008 -2.2266 -0.7493  1.2844
 5131TIP3   OH236883   4.328   4.869  12.653 -0.5316  0.2296 -0.1135
 5131TIP3    H136884   4.309   4.955  12.690  0.4323  0.8049 -0.8855
 5131TIP3    H236885   4.326   4.883  12.558  1.2193 -0.2015 -0.2503
 5132TIP3   OH236886   4.214   0.942  13.011  0.0885 -0.3502  0.1666
 5132TIP3    H136887   4.199   1.023  13.060 -0.0157 -1.0528  1.3424
 5132TIP3    H236888   4.307   0.922  13.024 -0.3664 -1.6359  1.9022
 5133TIP3   OH236889   2.642   3.742   1.031 -0.0705 -0.9478  0.3273
 5133TIP3    H136890   2.659   3.814   1.092 -0.5401 -0.9207  0.4285
 5133TIP3    H236891   2.698   3.760   0.956 -0.1360 -0.5128  0.3814
 5134TIP3   OH236892   1.574   0.315   2.305 -0.8251  0.6568  0.2016
 5134TIP3    H136893   1.606   0.404   2.293 -2.4860  1.0179 -2.7456
 5134TIP3    H236894   1.519   0.319   2.383  1.5244  1.3849  1.9114
 5135TIP3   OH236895   2.327   5.874   1.730 -0.1676 -0.4109  0.1564
 5135TIP3    H136896   2.400   5.852   1.672 -0.0955  3.0081 -1.2948
 5135TIP3    H236897   2.249   5.842   1.683 -0.0605  1.7606 -1.6713
 5136TIP3   OH236898   4.012   1.087   4.512  0.4853  0.0903 -0.1663
 5136TIP3    H136899   4.009   1.160   4.450 -0.3686 -0.3914 -0.6981
 5136TIP3    H236900   3.923   1.055   4.517  1.0151 -1.5433 -0.6849
 5137TIP3   OH236901   6.661   2.568   1.087  0.3671  0.1117  0.0617
 5137TIP3    H136902   6.688   2.605   1.171  1.9001  0.8203 -0.6904
 5137TIP3    H236903   6.689   2.476   1.091 -0.1266 -0.0199  0.5514
 5138TIP3   OH236904   2.804   2.942   1.764  0.2628 -0.5422 -0.0373
 5138TIP3    H136905   2.860   3.008   1.806  1.7950 -2.0274  0.3651
 5138TIP3    H236906   2.865   2.888   1.714 -1.0960 -1.0227 -1.2182
 5139TIP3   OH236907   0.386   6.008  16.265  0.2040  0.2113 -0.1472
 5139TIP3    H136908   0.361   6.058  16.187  0.2283 -0.4146 -0.5618
 5139TIP3    H236909   0.306   6.006  16.318  0.0598  0.2682 -0.3583
 5140TIP3   OH236910   5.952   1.143  12.061 -0.2697 -0.0637 -0.5773
 5140TIP3    H136911   5.910   1.061  12.036  0.7238 -0.7043 -0.2187
 5140TIP3    H236912   5.958   1.193  11.980 -0.0785 -0.7349 -0.9857
 5141TIP3   OH236913   4.264   0.977  11.259  0.0203  0.2487 -0.0499
 5141TIP3    H136914   4.195   1.035  11.292  1.2247  2.4930 -1.2233
 5141TIP3    H236915   4.302   1.025  11.185  2.4989 -1.1110  0.2348
 5142TIP3   OH236916   6.435   0.841  13.827 -0.2327 -0.0304 -0.3244
 5142TIP3    H136917   6.401   0.832  13.738  2.3205  1.7222 -1.6015
 5142TIP3    H236918   6.413   0.758  13.869  0.4967 -1.9401 -3.3747
 5143TIP3   OH236919   4.013   0.467  12.407 -0.3489  0.2011 -0.0232
 5143TIP3    H136920   4.011   0.543  12.349  1.4994 -0.2915 -0.8302
 5143TIP3    H236921   3.994   0.392  12.350 -2.4886  0.0353  0.8244
 5144TIP3   OH236922   5.437   3.454   0.253  0.6924 -0.6600  0.4041
 5144TIP3    H136923   5.426   3.503   0.335  0.6197  0.5833 -0.3227
 5144TIP3    H236924   5.496   3.508   0.200 -1.2894 -0.0655 -1.3796
 5145TIP3   OH236925   2.645   2.301   1.758  0.2795 -0.3638 -0.3286
 5145TIP3    H136926   2.597   2.375   1.720 -0.2652 -0.6568 -0.2348
 5145TIP3    H236927   2.586   2.226   1.746  0.3538 -0.5738  0.5446
 5146TIP3   OH236928   1.039   3.145   3.284 -0.0023  0.2377 -0.0879
 5146TIP3    H136929   1.040   3.194   3.366 -1.5912 -0.7689  0.5870
 5146TIP3    H236930   1.086   3.064   3.303  2.4356  1.3303 -1.1371
 5147TIP3   OH236931   0.518   3.673  16.071 -0.2835 -0.5089  0.0729
 5147TIP3    H136932   0.465   3.709  16.000  0.7794 -0.1003 -0.5439
 5147TIP3    H236933   0.456   3.657  16.142 -0.9212  2.0621  0.1896
 5148TIP3   OH236934   6.041   6.614   2.633 -0.9383 -0.5339  0.3739
 5148TIP3    H136935   6.077   6.627   2.545 -1.2496  0.5674  0.3924
 5148TIP3    H236936   6.080   6.532   2.663  3.1887  1.4308  1.1687
 5149TIP3   OH236937   6.720   0.028   3.313 -0.3207  0.5417 -0.1754
 5149TIP3    H136938   6.629   0.004   3.297 -0.2318 -1.9815  2.4686
 5149TIP3    H236939   6.771  -0.047   3.283  0.5316  0.1462  2.0805
 5150TIP3   OH236940   2.523   2.016  16.586 -0.3249  0.2315 -0.0791
 5150TIP3    H136941   2.496   2.012  16.678 -0.1928  0.8255 -0.0098
 5150TIP3    H236942   2.524   1.924  16.557 -0.4526  0.0488  0.4843
 5151TIP3   OH236943   4.243   0.211  14.611 -0.1671  1.0139 -0.7949
 5151TIP3    H136944   4.177   0.280  14.615 -0.5665  0.6326 -0.7118
 5151TIP3    H236945   4.195   0.131  14.630  0.1728  0.6291 -1.5158
 5152TIP3   OH236946   6.370   2.410  14.948 -0.3770 -0.4072  0.3273
 5152TIP3    H136947   6.368   2.356  15.028  2.0696 -0.3156  0.5342
 5152TIP3    H236948   6.445   2.468  14.961 -0.5608  0.3187 -1.6041
 5153TIP3   OH236949   5.959   0.658  14.828  0.8097  0.3336  0.0123
 5153TIP3    H136950   5.866   0.679  14.821  1.0912  1.5891 -0.3051
 5153TIP3    H236951   5.971   0.630  14.919  0.4580  2.0879  0.6391
 5154TIP3   OH236952   3.813   6.028   0.700  0.5395  0.0407  0.4013
 5154TIP3    H136953   3.818   6.082   0.779 -1.9379 -0.7945  1.2365
 5154TIP3    H236954   3.731   6.053   0.659  1.6607  0.2826 -1.8508
 5155TIP3   OH236955   1.040   0.331   0.964  0.5267  0.1872  0.4021
 5155TIP3    H136956   1.038   0.402   1.028  2.3605  0.4897  0.1840
 5155TIP3    H236957   0.994   0.367   0.888 -1.5259 -0.1166  1.4300
 5156TIP3   OH236958   3.202   2.823   4.021 -0.3131  0.4100  0.5124
 5156TIP3    H136959   3.268   2.808   4.089  1.2507 -0.7536 -1.1789
 5156TIP3    H236960   3.204   2.918   4.006  1.2458  0.3614  0.2650
 5157TIP3   OH236961   0.300   2.900  14.253 -0.3141 -0.4224 -0.0909
 5157TIP3    H136962   0.258   2.852  14.325  0.4689 -1.0332 -0.0254
 5157TIP3    H236963   0.392   2.872  14.256  0.0858  0.8092 -0.2909
 5158TIP3   OH236964   4.098   4.143  15.423  0.1575 -0.0947  0.1303
 5158TIP3    H136965   4.149   4.224  15.429 -2.3285  1.6609 -0.6605
 5158TIP3    H236966   4.053   4.137  15.506  0.0883 -0.5146  0.0647
 5159TIP3   OH236967   3.289   6.585   6.100 -0.4209 -0.0868  0.2887
 5159TIP3    H136968   3.253   6.498   6.121 -0.4820 -0.0237  0.4531
 5159TIP3    H236969   3.213   6.636   6.072 -0.2295 -0.3849 -0.8294
 5160TIP3   OH236970   1.198   5.225  11.729 -0.0337 -0.4246  0.1206
 5160TIP3    H136971   1.275   5.272  11.696 -1.4833  1.3454 -0.9068
 5160TIP3    H236972   1.225   5.191  11.814  1.6997  0.6396  0.0439
 5161TIP3   OH236973   2.463   4.206   2.987  0.3223  0.0379  0.4075
 5161TIP3    H136974   2.460   4.112   3.008  0.2732  0.1590  0.9393
 5161TIP3    H236975   2.503   4.246   3.064  1.2771  0.3364 -0.2218
 5162TIP3   OH236976   4.530   2.853  16.209 -0.5620  0.4883  0.0607
 5162TIP3    H136977   4.573   2.881  16.128 -0.2884 -0.4609 -0.1330
 5162TIP3    H236978   4.446   2.900  16.210 -1.5849 -1.1711 -1.9207
 5163TIP3   OH236979   1.963   3.224  16.886  0.1908  0.3238  0.7339
 5163TIP3    H136980   1.937   3.312  16.859 -0.7468 -0.5268 -1.4179
 5163TIP3    H236981   1.899   3.167  16.843  1.2554 -1.4463  1.4220
 5164TIP3   OH236982   5.805   5.970   3.872 -0.3000 -1.1117 -0.7467
 5164TIP3    H136983   5.839   5.975   3.783  0.2702  0.3281 -0.4827
 5164TIP3    H236984   5.744   6.043   3.879 -1.3620 -2.0019 -0.3386
 5165TIP3   OH236985   3.777   0.794  12.112 -0.0555  0.6202 -0.1936
 5165TIP3    H136986   3.784   0.859  12.042 -0.3289 -0.9359 -1.7282
 5165TIP3    H236987   3.754   0.712  12.068 -1.4900 -0.1854  1.8326
 5166TIP3   OH236988   3.650   3.870  16.160  0.1133 -0.2982 -0.2815
 5166TIP3    H136989   3.620   3.960  16.147 -0.8129 -0.6774 -0.8537
 5166TIP3    H236990   3.592   3.835  16.228  0.8120 -0.3092  0.3167
 5167TIP3   OH236991   5.510   5.630  11.729 -0.0907 -0.0893  0.2038
 5167TIP3    H136992   5.455   5.637  11.807 -0.2415 -1.6417  0.2773
 5167TIP3    H236993   5.512   5.718  11.693 -3.2940 -0.0567 -0.2361
 5168TIP3   OH236994   2.486   6.551   6.492  0.2328  0.2276  0.1763
 5168TIP3    H136995   2.541   6.477   6.516  2.2044  1.2288 -0.9908
 5168TIP3    H236996   2.402   6.532   6.533  1.3620 -1.4599  1.9315
 5169TIP3   OH236997   4.200   3.050  15.113 -0.0432 -0.1903 -0.2055
 5169TIP3    H136998   4.263   3.105  15.066  1.0557 -1.9204 -0.8226
 5169TIP3    H236999   4.226   2.961  15.093 -2.9468 -0.9874 -0.8146
 5170TIP3   OH237000   2.039   2.640   3.454  0.1114 -0.2281 -0.3521
 5170TIP3    H137001   2.061   2.681   3.538 -1.3958  0.0169 -0.0559
 5170TIP3    H237002   2.005   2.711   3.400  0.6057 -0.4789 -1.0100
 5171TIP3   OH237003   0.422   2.255   4.951  0.7343  0.3394 -0.0867
 5171TIP3    H137004   0.493   2.245   5.015  0.0471  1.4596  0.8790
 5171TIP3    H237005   0.420   2.349   4.932 -0.9486  0.4423  0.4578
 5172TIP3   OH237006   3.268   6.217   1.909  0.7711  0.9185  0.4781
 5172TIP3    H137007   3.261   6.249   1.999 -2.4542  2.1314 -0.0391
 5172TIP3    H237008   3.253   6.295   1.855 -0.1831 -0.2184 -1.0042
 5173TIP3   OH237009   4.839   2.205   4.430 -0.3126 -0.3101 -0.0979
 5173TIP3    H137010   4.846   2.282   4.486  1.2733 -0.8392  0.4685
 5173TIP3    H237011   4.921   2.202   4.382 -1.4624 -0.0961 -2.2316
 5174TIP3   OH237012   2.569   6.057  11.899  0.1628 -0.1498  0.3694
 5174TIP3    H137013   2.483   6.017  11.886  0.9677 -2.6192  1.7397
 5174TIP3    H237014   2.590   6.038  11.991  1.2256  2.4324  0.7310
 5175TIP3   OH237015   5.900   4.029   3.251  0.0117 -0.8118 -0.7141
 5175TIP3    H137016   5.945   4.059   3.172  0.6215 -1.6879 -0.7135
 5175TIP3    H237017   5.811   4.063   3.243  0.2464 -0.3560 -1.4609
 5176TIP3   OH237018   1.629   2.089   3.049 -0.4276  0.2309 -0.0038
 5176TIP3    H137019   1.546   2.126   3.017  0.2628  0.0732 -2.1383
 5176TIP3    H237020   1.695   2.126   2.991  0.7868 -1.0906  0.4870
 5177TIP3   OH237021   5.537   0.064   1.318  0.1530  0.0805 -0.2477
 5177TIP3    H137022   5.571   0.125   1.253  0.3970  0.0497 -0.1506
 5177TIP3    H237023   5.589   0.081   1.396  0.8588 -0.8666 -0.4791
 5178TIP3   OH237024   1.885   3.929   0.360 -0.1094  0.1956 -0.0595
 5178TIP3    H137025   1.821   3.859   0.346  0.7237 -0.3983 -1.0695
 5178TIP3    H237026   1.837   4.009   0.339  0.0242 -0.3823 -3.0636
 5179TIP3   OH237027   6.171   4.305  10.736 -0.1209 -0.4491 -0.2018
 5179TIP3    H137028   6.260   4.326  10.766 -0.2942  1.1205 -0.7369
 5179TIP3    H237029   6.181   4.289  10.642 -0.6146  1.2805 -0.5837
 5180TIP3   OH237030   4.596   1.099  11.121  0.0264  0.8215 -0.1249
 5180TIP3    H137031   4.614   1.123  11.031  2.0364 -2.3163 -0.7081
 5180TIP3    H237032   4.622   1.007  11.128  0.2568  0.9910  3.7336
 5181TIP3   OH237033   4.436   2.307  11.071  0.2962  0.4387 -0.2322
 5181TIP3    H137034   4.451   2.287  11.163 -0.0408 -0.2651 -0.3151
 5181TIP3    H237035   4.421   2.221  11.031 -4.8123  0.8970  0.0074
 5182TIP3   OH237036   1.603   0.830   3.453  0.6053 -0.3162  0.2273
 5182TIP3    H137037   1.546   0.884   3.507 -0.3693 -0.0107 -1.0796
 5182TIP3    H237038   1.544   0.783   3.394  1.7514  1.1620 -2.2171
 5183TIP3   OH237039   3.376   5.799  11.375 -0.2423 -0.6949  0.0524
 5183TIP3    H137040   3.408   5.764  11.458  0.0041  1.3804  0.9009
 5183TIP3    H237041   3.300   5.852  11.399  0.4732  0.8115 -0.8674
 5184TIP3   OH237042   3.774   6.407   4.933  0.6768 -0.3486  0.4121
 5184TIP3    H137043   3.708   6.430   4.998  0.8245 -2.4486  1.3934
 5184TIP3    H237044   3.838   6.354   4.981  1.6092 -0.6780 -1.1070
 5185TIP3   OH237045   5.214   2.238   2.075 -0.4892  0.1045 -0.0987
 5185TIP3    H137046   5.242   2.329   2.061  1.0505 -0.2011  0.7696
 5185TIP3    H237047   5.151   2.244   2.147 -2.6838  0.7781 -1.9523
 5186TIP3   OH237048   3.692   3.259   3.554 -0.0325 -0.0751  0.2425
 5186TIP3    H137049   3.787   3.254   3.548  0.0035 -0.1777  0.8216
 5186TIP3    H237050   3.661   3.174   3.524 -0.0101  0.3807 -1.1266
 5187TIP3   OH237051   6.078   2.450   2.969 -0.5306 -0.1512  0.6456
 5187TIP3    H137052   6.100   2.377   2.912  0.4908  0.8103 -0.2281
 5187TIP3    H237053   6.103   2.421   3.057 -0.4611 -0.9624  0.3578
 5188TIP3   OH237054   5.465   1.143   3.914 -0.2285 -0.2953 -0.2864
 5188TIP3    H137055   5.521   1.205   3.961 -0.2791 -0.2132 -0.3357
 5188TIP3    H237056   5.465   1.173   3.823 -1.5475  0.5897 -0.0304
 5189TIP3   OH237057   4.445   1.235  13.254 -0.2183 -0.1854  0.3440
 5189TIP3    H137058   4.469   1.161  13.197 -2.0935  1.1023 -2.3730
 5189TIP3    H237059   4.350   1.240  13.246 -0.1445  2.5210  0.3707
 5190TIP3   OH237060   0.071   6.322  10.623  0.5463  0.2960 -0.2913
 5190TIP3    H137061   0.036   6.258  10.685 -1.7642 -0.6387 -2.3974
 5190TIP3    H237062   0.141   6.275  10.577  0.5363  0.1393 -0.1453
 5191TIP3   OH237063   3.285   4.641   0.482  0.4981 -0.5047  0.0004
 5191TIP3    H137064   3.372   4.649   0.442 -0.2417  2.9565 -1.2490
 5191TIP3    H237065   3.224   4.668   0.413 -1.3832 -0.5943  1.5467
 5192TIP3   OH237066   0.322   0.008  11.612 -0.2022 -0.2772 -0.0231
 5192TIP3    H137067   0.341  -0.053  11.684 -0.9723 -1.5841 -0.8861
 5192TIP3    H237068   0.252   0.064  11.647  0.1911 -0.1696  0.6197
 5193TIP3   OH237069   0.030   4.027  14.476  0.5900 -0.4238 -0.2658
 5193TIP3    H137070   0.124   4.024  14.496  0.4318  0.7773  0.7533
 5193TIP3    H237071  -0.003   4.101  14.527 -1.2984 -2.0619  1.0218
 5194TIP3   OH237072   1.519   3.290   1.496 -0.0583 -0.2750 -0.1567
 5194TIP3    H137073   1.505   3.237   1.574 -0.1118 -0.3496 -0.2176
 5194TIP3    H237074   1.604   3.262   1.462 -0.6848 -1.2637 -0.9414
 5195TIP3   OH237075   1.601   5.762   3.066 -0.2878  0.3115  0.4060
 5195TIP3    H137076   1.551   5.701   3.011 -0.8572  1.6680 -0.6316
 5195TIP3    H237077   1.623   5.711   3.144 -1.1647 -1.0672 -0.2068
 5196TIP3   OH237078   6.628   3.481  13.013 -0.6405 -0.1404  0.0905
 5196TIP3    H137079   6.648   3.467  12.920 -0.3020  0.2745  0.1022
 5196TIP3    H237080   6.687   3.421  13.059  2.4269  2.7414  0.2592
 5197TIP3   OH237081   3.323   6.003  16.548  0.0578 -0.0760  0.6245
 5197TIP3    H137082   3.260   5.932  16.538 -1.0446  0.8857  0.5129
 5197TIP3    H237083   3.408   5.959  16.555 -0.5507 -1.3751  0.1889
 5198TIP3   OH237084   5.056   6.372   3.113  0.4858  0.9770  0.1501
 5198TIP3    H137085   4.974   6.361   3.067 -0.0151 -1.2204  1.3934
 5198TIP3    H237086   5.035   6.428   3.188  0.4236  1.4223 -0.1982
 5199TIP3   OH237087   3.721   6.582   4.733  0.2560  0.2581  0.0675
 5199TIP3    H137088   3.735   6.502   4.784  0.5109 -0.2854 -0.8219
 5199TIP3    H237089   3.675   6.552   4.654 -1.8791  1.3560  0.8257
 5200TIP3   OH237090   2.786   6.671   5.833  0.4083  0.5256  0.5521
 5200TIP3    H137091   2.747   6.743   5.785 -0.4812 -0.4099 -0.1841
 5200TIP3    H237092   2.823   6.614   5.766 -1.2560 -1.0352  0.8924
 5201TIP3   OH237093   2.342   0.185  13.497 -0.0236 -0.0964 -0.1329
 5201TIP3    H137094   2.403   0.258  13.506 -0.5756  0.3256  0.1964
 5201TIP3    H237095   2.297   0.201  13.413 -1.3524  0.8759  0.7271
 5202TIP3   OH237096   2.286   2.092   2.363 -0.2000  0.4027  0.3389
 5202TIP3    H137097   2.248   2.176   2.387 -0.6971  0.6559 -1.2445
 5202TIP3    H237098   2.229   2.058   2.295 -0.3281 -1.4985  1.3159
 5203TIP3   OH237099   1.913   0.082  14.367 -0.6552  0.2091  0.6484
 5203TIP3    H137100   1.859   0.115  14.294  0.1999  1.6518  0.6243
 5203TIP3    H237101   1.907   0.151  14.433 -1.6664 -1.2259  2.1107
 5204TIP3   OH237102   1.269   1.866  12.278 -0.3180 -0.0272  0.0200
 5204TIP3    H137103   1.263   1.829  12.190  0.3244  1.4645 -0.6903
 5204TIP3    H237104   1.342   1.820  12.319 -0.9167 -1.0567 -0.0434
 5205TIP3   OH237105   2.629   6.410  12.601 -0.0863 -0.1351 -0.4448
 5205TIP3    H137106   2.608   6.398  12.693 -2.0751  0.0348 -0.8089
 5205TIP3    H237107   2.598   6.330  12.558  3.0459 -1.3150 -0.7394
 5206TIP3   OH237108   6.036   1.314  16.907 -0.2599 -0.4548 -0.4612
 5206TIP3    H137109   6.056   1.309  17.000 -1.1227 -0.9990 -0.2888
 5206TIP3    H237110   6.104   1.262  16.865  0.4202  0.2007 -0.1909
 5207TIP3   OH237111   2.055   6.227   6.537  0.2674 -0.0671  0.0885
 5207TIP3    H137112   2.010   6.181   6.466  1.7395  0.4570 -1.2322
 5207TIP3    H237113   2.112   6.162   6.576  4.1096  0.8985 -3.2593
 5208TIP3   OH237114   5.696   5.269   1.055  0.9876  0.0318 -0.5571
 5208TIP3    H137115   5.774   5.241   1.102  1.6541  1.1459 -0.9648
 5208TIP3    H237116   5.715   5.359   1.028 -0.0160 -0.0410 -1.5759
 5209TIP3   OH237117   6.045   6.176   1.320  0.1734  0.3165 -0.0496
 5209TIP3    H137118   6.031   6.102   1.261  0.2916 -0.3828  0.7871
 5209TIP3    H237119   6.039   6.139   1.408  0.8606  1.1808  0.3823
 5210TIP3   OH237120   2.753   1.366  12.087  0.4343  0.1809  0.2089
 5210TIP3    H137121   2.673   1.415  12.067  0.1095  0.1217  1.3266
 5210TIP3    H237122   2.732   1.276  12.061  0.2847  0.2433  0.1130
 5211TIP3   OH237123   4.547   1.508  12.753  0.3915 -0.3846 -0.4791
 5211TIP3    H137124   4.600   1.455  12.813  0.8460  0.4761 -0.1069
 5211TIP3    H237125   4.546   1.595  12.792 -0.2825 -0.0886 -1.1256
 5212TIP3   OH237126   2.311   6.056  13.922  0.1549 -0.2175  0.7958
 5212TIP3    H137127   2.373   6.102  13.866 -1.4829 -0.6504 -1.5132
 5212TIP3    H237128   2.249   6.124  13.950 -1.2283 -0.5856 -1.1533
 5213TIP3   OH237129   2.754   5.582  11.590 -0.3152  0.4352 -0.2622
 5213TIP3    H137130   2.720   5.494  11.607  1.2538 -0.0643  0.4695
 5213TIP3    H237131   2.768   5.584  11.496 -1.1123  0.1979 -0.3933
 5214TIP3   OH237132   5.594   0.172   5.977 -0.5092 -0.0646  0.5447
 5214TIP3    H137133   5.500   0.156   5.984 -0.2991 -0.7634  2.3055
 5214TIP3    H237134   5.625   0.172   6.068  1.2724 -0.3483 -0.0283
 5215TIP3   OH237135   2.381   4.238  14.643 -0.9090  0.4305 -0.1087
 5215TIP3    H137136   2.366   4.288  14.563  0.9065 -0.3527 -0.9962
 5215TIP3    H237137   2.370   4.302  14.713 -0.5250  1.6403 -1.1039
 5216TIP3   OH237138   3.712   6.532   6.059  0.0095 -0.2126  0.4546
 5216TIP3    H137139   3.776   6.468   6.091 -0.4304 -0.7706  0.2289
 5216TIP3    H237140   3.732   6.612   6.107  1.1538 -0.2592  0.0797
 5217TIP3   OH237141   3.087   1.340  15.073  0.1382 -0.3324  0.2606
 5217TIP3    H137142   3.039   1.269  15.114  0.5604 -0.8060 -0.0430
 5217TIP3    H237143   3.108   1.400  15.144 -1.6984  0.3644  0.2519
 5218TIP3   OH237144   3.088   0.077   2.688  0.1050 -0.7666  0.0377
 5218TIP3    H137145   3.128   0.155   2.651  0.1683 -1.0251 -0.4375
 5218TIP3    H237146   3.103   0.008   2.623 -0.6777 -0.9834  0.0755
 5219TIP3   OH237147   1.441   2.298   2.667  0.0317  0.1892 -0.3018
 5219TIP3    H137148   1.523   2.250   2.676  1.1147  1.9411 -0.3910
 5219TIP3    H237149   1.413   2.314   2.758 -0.0693 -0.1527 -0.2703
 5220TIP3   OH237150   1.489   1.461   0.397  0.2807 -0.2135  0.7275
 5220TIP3    H137151   1.443   1.541   0.422 -0.0824  0.5852 -2.1174
 5220TIP3    H237152   1.420   1.394   0.394 -0.6607  0.6986 -2.2470
 5221TIP3   OH237153   2.901   3.460   0.033 -0.3700  0.2677 -0.2939
 5221TIP3    H137154   2.992   3.459   0.062  0.4582 -1.1387 -2.6629
 5221TIP3    H237155   2.851   3.431   0.109  1.3652 -0.7196  0.5315
 5222TIP3   OH237156   4.101   4.967   3.369 -0.0393 -0.1241 -0.6827
 5222TIP3    H137157   4.088   5.060   3.348  1.8237 -0.1669 -2.2028
 5222TIP3    H237158   4.013   4.930   3.367 -0.6092  1.1982 -2.1514
 5223TIP3   OH237159   2.637   1.795  15.645  0.1010 -0.2131  0.2743
 5223TIP3    H137160   2.586   1.718  15.671 -1.2374  0.3257 -0.6102
 5223TIP3    H237161   2.636   1.852  15.722  1.0927 -1.0498  0.9333
 5224TIP3   OH237162   4.064   6.067   5.315  0.0780  0.9956  0.1326
 5224TIP3    H137163   4.026   6.014   5.386  1.1871  1.0755  0.8000
 5224TIP3    H237164   4.035   6.156   5.333 -0.8170  0.8219 -0.3371
 5225TIP3   OH237165   4.626   1.446  13.228  0.7776  0.0259  0.6974
 5225TIP3    H137166   4.576   1.505  13.172  0.5978  0.9756  1.8233
 5225TIP3    H237167   4.565   1.377  13.252  0.2913  0.6280  1.2257
 5226TIP3   OH237168   4.445   3.218   3.328 -0.0943  0.0228 -0.1845
 5226TIP3    H137169   4.372   3.253   3.379 -0.6064 -0.1766 -0.7726
 5226TIP3    H237170   4.491   3.161   3.389 -2.3167 -2.4719 -0.6576
 5227TIP3   OH237171   5.967   4.167   0.539  0.0575 -0.6061 -0.5184
 5227TIP3    H137172   5.967   4.204   0.451  1.1780 -0.0435 -0.2951
 5227TIP3    H237173   5.980   4.073   0.525 -2.9165 -1.0578 -1.0928
 5228TIP3   OH237174   5.819   1.437  17.200 -0.4932 -0.4474  0.2593
 5228TIP3    H137175   5.905   1.453  17.163 -0.6575  0.7874  0.3696
 5228TIP3    H237176   5.828   1.354  17.247  0.7233 -0.1576  0.5648
 5229TIP3   OH237177   5.049   0.574  16.605 -0.2017  0.0911 -0.2855
 5229TIP3    H137178   5.059   0.480  16.591  0.1894 -0.4452  2.8700
 5229TIP3    H237179   4.976   0.582  16.666 -0.0518  1.8149 -0.2816
 5230TIP3   OH237180   2.818   4.129   3.847 -0.0371 -0.2344 -0.5489
 5230TIP3    H137181   2.749   4.089   3.794  1.0667  0.1995 -2.3879
 5230TIP3    H237182   2.898   4.086   3.818  0.7266  0.7817  0.0146
 5231TIP3   OH237183   1.258   3.924   5.540 -0.2253  0.3885 -0.3634
 5231TIP3    H137184   1.232   4.002   5.490 -0.4380  0.1549 -0.6204
 5231TIP3    H237185   1.352   3.916   5.525  0.1441  1.6413  1.1335
 5232TIP3   OH237186   6.808   2.454   3.381 -0.3433  0.5180  0.3596
 5232TIP3    H137187   6.839   2.517   3.317  1.5764 -0.8477 -0.1684
 5232TIP3    H237188   6.818   2.369   3.338  1.4445 -0.4951  2.5577
 5233TIP3   OH237189   1.955   0.323   0.025 -0.0426 -0.2371 -0.3835
 5233TIP3    H137190   1.937   0.407   0.068 -2.4739  0.4833 -2.5714
 5233TIP3    H237191   1.992   0.347  -0.060 -1.3243 -1.3127 -1.2839
 5234TIP3   OH237192   0.270   2.051  15.936 -0.7346 -0.1110  0.0926
 5234TIP3    H137193   0.176   2.054  15.952 -1.3005 -1.2544 -2.4189
 5234TIP3    H237194   0.301   1.976  15.987 -1.3928 -0.3218  0.1864
 5235TIP3   OH237195   2.087   2.170   4.590 -0.4036  0.4000 -0.4874
 5235TIP3    H137196   2.094   2.087   4.542 -0.3635  0.2946 -0.3020
 5235TIP3    H237197   2.178   2.194   4.609 -0.4283  0.3152 -0.2527
 5236TIP3   OH237198   5.914   3.285  10.971  1.0669  0.6488  0.0697
 5236TIP3    H137199   5.982   3.348  10.946  1.8261  0.2328  1.0217
 5236TIP3    H237200   5.923   3.277  11.066  1.2403 -1.1843 -0.0746
 5237TIP3   OH237201   3.679   0.724   6.282 -0.3930 -0.0526 -0.1946
 5237TIP3    H137202   3.655   0.661   6.349 -0.4567  1.0656  0.8661
 5237TIP3    H237203   3.598   0.736   6.231 -0.0196 -1.8051 -1.2735
 5238TIP3   OH237204   6.818   0.275  11.163 -0.2674  0.0167  0.2026
 5238TIP3    H137205   6.808   0.356  11.214 -1.4248 -0.1287  0.2426
 5238TIP3    H237206   6.779   0.207  11.218 -0.7827 -0.2832 -0.5078
 5239TIP3   OH237207   5.663   4.253  15.882 -0.0021  0.7115 -0.4918
 5239TIP3    H137208   5.599   4.323  15.887  0.4955  1.2614 -1.6082
 5239TIP3    H237209   5.741   4.294  15.846  0.5997 -0.2135 -0.2808
 5240TIP3   OH237210   6.439   2.421   0.563  0.0907  0.3379  0.1431
 5240TIP3    H137211   6.498   2.355   0.527 -0.2773  0.7343 -1.2581
 5240TIP3    H237212   6.429   2.397   0.655  2.6911  0.4521  0.5184
 5241TIP3   OH237213   2.621   6.134  15.119 -0.8943  0.6056 -0.3465
 5241TIP3    H137214   2.678   6.115  15.044  1.1476  0.7225  1.0852
 5241TIP3    H237215   2.539   6.090  15.099  0.1931 -0.8339 -1.8644
 5242TIP3   OH237216   2.119   1.828  13.570  0.2124  0.1545 -0.3252
 5242TIP3    H137217   2.082   1.829  13.481  2.8616  1.6484 -1.5288
 5242TIP3    H237218   2.195   1.770  13.563  1.2861  1.4007  0.5444
 5243TIP3   OH237219   2.649   1.678   0.018 -0.0097 -0.0577  0.0224
 5243TIP3    H137220   2.567   1.707  -0.023 -0.5842  0.7036  1.6044
 5243TIP3    H237221   2.631   1.682   0.112  1.3812 -1.3144  0.3796
 5244TIP3   OH237222   4.776   3.442  13.653 -0.2003  0.0525  0.2343
 5244TIP3    H137223   4.769   3.359  13.606  0.5256 -1.4883  2.6202
 5244TIP3    H237224   4.763   3.509  13.587 -0.5534 -1.9592 -1.8542
 5245TIP3   OH237225   6.565   0.156  13.181  0.0390 -0.4986  0.2330
 5245TIP3    H137226   6.643   0.182  13.133 -0.5930 -0.6929 -0.9239
 5245TIP3    H237227   6.553   0.224  13.247  0.9585 -0.2677  0.1679
 5246TIP3   OH237228   2.705   2.599  16.880 -0.0232 -0.8376 -0.6341
 5246TIP3    H137229   2.663   2.605  16.966  0.9542  0.5504 -0.2153
 5246TIP3    H237230   2.669   2.520  16.841 -2.1965 -0.2790  0.1221
 5247TIP3   OH237231   2.950   6.123  11.550  0.1519 -0.2326  0.2194
 5247TIP3    H137232   2.858   6.105  11.572 -0.3533 -0.6115 -1.9072
 5247TIP3    H237233   2.971   6.203  11.598 -1.0199 -0.6137  1.4198
 5248TIP3   OH237234   2.201   5.644  16.707  0.3254 -0.8078 -0.7732
 5248TIP3    H137235   2.197   5.724  16.656  1.9089  1.5069  2.3879
 5248TIP3    H237236   2.288   5.608  16.689  0.5019 -0.5376 -0.4659
 5249TIP3   OH237237   4.024   1.876   2.396  0.0907  0.2141  0.1651
 5249TIP3    H137238   4.042   1.956   2.347 -2.0093 -0.2576 -1.5414
 5249TIP3    H237239   4.063   1.806   2.343 -0.6110 -0.1376  0.0964
 5250TIP3   OH237240   2.299   3.490  15.256  0.3019 -0.4896  0.1600
 5250TIP3    H137241   2.251   3.573  15.254  0.7837 -0.1657  1.3964
 5250TIP3    H237242   2.234   3.426  15.286  0.1240 -0.4249 -0.0810
 5251TIP3   OH237243   0.877   2.194  10.769 -0.5394 -0.6695  0.0715
 5251TIP3    H137244   0.973   2.187  10.775 -0.2527  1.4511 -1.3008
 5251TIP3    H237245   0.857   2.166  10.680 -1.3581 -2.1335  0.6862
 5252TIP3   OH237246   3.371   2.742  12.853  0.3293  0.3330 -0.1091
 5252TIP3    H137247   3.397   2.825  12.894  0.0636  0.1538  0.4177
 5252TIP3    H237248   3.454   2.700  12.831  0.4747  0.3535  0.3930
 5253TIP3   OH237249   3.185   1.073  15.578 -0.4504  0.7473 -0.1527
 5253TIP3    H137250   3.224   1.157  15.555 -1.6896  1.0240 -1.4173
 5253TIP3    H237251   3.207   1.016  15.504 -2.7670  1.0586 -1.1684
 5254TIP3   OH237252   5.847   4.146  12.609  0.1480 -0.8421  0.2301
 5254TIP3    H137253   5.814   4.056  12.607 -1.2428 -0.4336  2.1539
 5254TIP3    H237254   5.818   4.180  12.693  3.4540  0.3976  1.0228
 5255TIP3   OH237255   0.892   0.877   2.958 -0.3623  0.0973 -0.5681
 5255TIP3    H137256   0.943   0.797   2.942 -0.2273  0.4440 -2.1042
 5255TIP3    H237257   0.947   0.947   2.923 -0.2636  0.9479  1.1977
 5256TIP3   OH237258   4.949   3.446  12.645  0.3359 -0.7427 -0.4106
 5256TIP3    H137259   5.025   3.408  12.689 -0.0373 -0.7712  0.2214
 5256TIP3    H237260   4.984   3.520  12.595  0.7851 -0.8059 -0.1933
 5257TIP3   OH237261   1.561   6.697   1.684 -0.3011  0.5844 -0.2438
 5257TIP3    H137262   1.601   6.641   1.617 -1.4022  0.0324 -0.4521
 5257TIP3    H237263   1.484   6.649   1.714 -1.4658  2.1102 -0.6360
 5258TIP3   OH237264   0.168   2.447   5.414 -0.0383 -0.2651 -0.5839
 5258TIP3    H137265   0.191   2.514   5.479 -1.7758 -1.7271  1.7262
 5258TIP3    H237266   0.246   2.392   5.407  0.0953 -0.2359  0.5046
 5259TIP3   OH237267   0.036   1.153  13.667 -0.4692 -0.0554 -0.2801
 5259TIP3    H137268   0.095   1.102  13.724 -0.0465  0.3541 -0.3496
 5259TIP3    H237269   0.076   1.147  13.580 -1.0112 -0.5164 -0.5053
 5260TIP3   OH237270   3.854   3.707  16.676 -0.0351 -0.7576  0.5426
 5260TIP3    H137271   3.821   3.792  16.703  4.2848  0.8351  1.6979
 5260TIP3    H237272   3.838   3.704  16.581 -3.6045 -0.5107  1.0062
 5261TIP3   OH237273   3.119   1.439  17.152  0.8150  0.3494  0.9474
 5261TIP3    H137274   3.034   1.458  17.193  0.1921 -0.0681 -0.1179
 5261TIP3    H237275   3.160   1.375  17.212 -0.7265 -1.4221  0.2294
 5262TIP3   OH237276   5.286   4.286  15.378 -0.3143 -0.6933  0.0785
 5262TIP3    H137277   5.356   4.275  15.443 -1.7448 -0.2490  1.7649
 5262TIP3    H237278   5.209   4.310  15.429 -1.4732 -0.1341 -1.8234
 5263TIP3   OH237279   0.911   1.056  11.491 -0.3872 -0.0541 -0.1430
 5263TIP3    H137280   0.884   0.964  11.493 -0.2679 -0.0943 -0.3586
 5263TIP3    H237281   0.905   1.081  11.399  0.6817 -0.1730 -0.2535
 5264TIP3   OH237282   1.435   3.344   1.922 -0.7034  0.3104  0.5270
 5264TIP3    H137283   1.472   3.432   1.936  1.3173 -0.3052 -0.5195
 5264TIP3    H237284   1.370   3.356   1.853  0.6958  0.7888 -0.7767
 5265TIP3   OH237285   0.240   1.052  10.805  0.0698  0.2316  0.0653
 5265TIP3    H137286   0.316   1.004  10.775  1.7107  1.4982  1.9363
 5265TIP3    H237287   0.271   1.141  10.819 -1.5680  0.6527  1.4947
 5266TIP3   OH237288   6.620   1.663  16.578  0.0718 -0.2017 -0.2635
 5266TIP3    H137289   6.528   1.640  16.590  0.4258 -1.0782  0.9556
 5266TIP3    H237290   6.632   1.666  16.483 -1.5571  1.4576 -0.4639
 5267TIP3   OH237291   0.707   4.853  11.012  0.8696  0.1551  0.3286
 5267TIP3    H137292   0.631   4.800  11.035  1.1886  0.3246  1.8965
 5267TIP3    H237293   0.671   4.939  10.993  0.7030  0.4968  1.9951
 5268TIP3   OH237294   3.174   0.565   0.556  0.8798 -0.0695  0.0596
 5268TIP3    H137295   3.136   0.569   0.644 -0.5755  1.0625 -0.5786
 5268TIP3    H237296   3.137   0.641   0.511 -0.3928 -1.9661 -2.2999
 5269TIP3   OH237297   6.127   0.873   3.023 -0.0304 -0.3337  0.4549
 5269TIP3    H137298   6.042   0.838   2.999  1.3731 -4.6119  0.8838
 5269TIP3    H237299   6.183   0.855   2.948  0.6679  2.0665  0.3259
 5270TIP3   OH237300   5.442   6.170   2.731 -0.5422  0.0971  0.4372
 5270TIP3    H137301   5.409   6.155   2.643 -0.8943 -0.7773  0.7101
 5270TIP3    H237302   5.374   6.220   2.775 -0.0778  1.1247  0.0255
 5271TIP3   OH237303   3.930   6.331   0.439  0.3371  0.8223  0.1107
 5271TIP3    H137304   3.982   6.279   0.500 -0.8325 -2.1608 -1.2532
 5271TIP3    H237305   3.945   6.422   0.466  1.0361 -0.2453  3.8433
 5272TIP3   OH237306   6.748   1.474   4.594 -0.2320 -0.1184  0.1756
 5272TIP3    H137307   6.750   1.498   4.501 -2.0539  0.8030  0.3332
 5272TIP3    H237308   6.806   1.398   4.600  1.0043  0.6322 -1.4520
 5273TIP3   OH237309   3.379   0.406  14.892 -0.1472  0.2138 -0.0840
 5273TIP3    H137310   3.422   0.361  14.964  0.2548  2.4489  1.1915
 5273TIP3    H237311   3.435   0.390  14.816 -0.7020 -2.3842 -0.0270
 5274TIP3   OH237312   2.312   5.665   5.652 -0.2280  0.9334  0.9370
 5274TIP3    H137313   2.390   5.631   5.697  1.7044  2.7166 -0.8321
 5274TIP3    H237314   2.318   5.628   5.564 -1.5680  0.8985  0.8445
 5275TIP3   OH237315   0.412   2.804  12.932  0.6276 -0.0999 -0.2029
 5275TIP3    H137316   0.422   2.719  12.891  0.7774 -0.9920  1.5776
 5275TIP3    H237317   0.465   2.799  13.012  0.1051  1.4150  0.2782
 5276TIP3   OH237318   0.242   6.651   5.882 -0.5072 -0.3397 -0.1077
 5276TIP3    H137319   0.333   6.650   5.855  0.1241  0.9186  1.7845
 5276TIP3    H237320   0.215   6.743   5.873 -1.1480 -0.4384  0.6594
 5277TIP3   OH237321   3.060   1.041  15.819  0.0207  0.1405 -0.0509
 5277TIP3    H137322   3.080   1.071  15.730  0.0550 -0.3228 -0.2045
 5277TIP3    H237323   2.966   1.059  15.830 -0.2180 -0.7273 -0.5616
 5278TIP3   OH237324   3.327   1.359  16.436 -0.0635 -0.1624  0.5270
 5278TIP3    H137325   3.294   1.338  16.348 -0.5476 -0.8597  0.8698
 5278TIP3    H237326   3.422   1.354  16.427 -0.1009 -0.0784  0.0122
 5279TIP3   OH237327   0.354   6.417  12.665 -0.5203 -0.2474 -0.5262
 5279TIP3    H137328   0.265   6.433  12.636 -0.9485  1.2998  1.4040
 5279TIP3    H237329   0.398   6.501  12.657  0.6540 -0.8791 -1.0149
 5280TIP3   OH237330   2.776   5.037   5.491  0.1010 -0.0299  0.1794
 5280TIP3    H137331   2.847   4.999   5.542  0.4626  0.2957 -0.0797
 5280TIP3    H237332   2.700   5.033   5.549  0.1031 -1.2611  0.1109
 5281TIP3   OH237333   5.425   6.290  15.582 -0.2899  0.1751  0.2146
 5281TIP3    H137334   5.480   6.343  15.640 -0.0713 -0.6444  0.7788
 5281TIP3    H237335   5.339   6.292  15.623 -0.4943  0.7808 -0.2262
 5282TIP3   OH237336   5.669   5.525   0.706 -0.1090 -0.0758 -0.0410
 5282TIP3    H137337   5.660   5.515   0.612 -0.8782  0.7082 -0.0642
 5282TIP3    H237338   5.606   5.464   0.744 -1.0090  0.7960 -0.0834
 5283TIP3   OH237339   0.008   2.973   3.684  0.2330 -0.3107  0.0439
 5283TIP3    H137340  -0.007   2.914   3.610 -0.3429 -0.8647  0.5887
 5283TIP3    H237341   0.011   2.915   3.760  1.5354  0.1730  0.3817
 5284TIP3   OH237342   6.710   4.314  15.509 -0.2564  0.8345 -0.3656
 5284TIP3    H137343   6.688   4.370  15.583  0.3454  2.2993 -1.2336
 5284TIP3    H237344   6.768   4.368  15.455  1.3508 -1.0801 -0.6573
 5285TIP3   OH237345   2.979   5.268   1.086 -0.1526 -0.0333 -0.5875
 5285TIP3    H137346   3.004   5.339   1.028 -0.0524  0.7292  0.3642
 5285TIP3    H237347   3.005   5.188   1.040  1.4399  0.6213 -0.8696
 5286TIP3   OH237348   1.014   1.238   0.759 -0.2322 -0.1313  0.4944
 5286TIP3    H137349   0.931   1.254   0.713 -0.2851  0.3015  0.7320
 5286TIP3    H237350   0.991   1.244   0.852 -0.2992 -1.8725  0.6127
 5287TIP3   OH237351   4.754   3.188  10.290 -0.2775 -0.0094  0.0013
 5287TIP3    H137352   4.718   3.190  10.201 -0.3898 -1.1322  0.0067
 5287TIP3    H237353   4.761   3.095  10.311  3.1347  0.0665 -0.2226
 5288TIP3   OH237354   3.871   2.698   3.637  0.7186 -0.1329 -0.2393
 5288TIP3    H137355   3.814   2.720   3.711  0.6363 -1.1733  0.0274
 5288TIP3    H237356   3.825   2.628   3.591  0.6058  0.7351 -1.4990
 5289TIP3   OH237357   3.922   6.587   0.134  0.1863  0.2337  0.5625
 5289TIP3    H137358   3.864   6.663   0.147 -1.9910 -1.2677  0.1544
 5289TIP3    H237359   3.899   6.554   0.047  1.2145 -0.8081  0.6593
 5290TIP3   OH237360   5.993   1.959  15.164 -0.2447 -0.0664 -0.2120
 5290TIP3    H137361   6.080   1.923  15.179 -0.9276 -2.5060 -1.6761
 5290TIP3    H237362   5.962   1.982  15.251  2.2843  2.0939  0.2491
 5291TIP3   OH237363   3.830   4.276  15.866 -0.7133  0.0543  0.0452
 5291TIP3    H137364   3.828   4.356  15.918 -0.2096 -1.0162  1.8230
 5291TIP3    H237365   3.865   4.303  15.781  1.0418  1.4659  1.1330
 5292TIP3   OH237366   6.010   5.423  11.091 -0.3008  0.0931  0.2850
 5292TIP3    H137367   6.037   5.501  11.042 -1.2088  0.2089 -0.0679
 5292TIP3    H237368   5.987   5.359  11.024 -2.0626  0.4326  0.5078
 5293TIP3   OH237369   5.366   2.267   5.817 -0.1303 -0.1786  0.1143
 5293TIP3    H137370   5.372   2.361   5.835  0.5056 -0.5589  2.2374
 5293TIP3    H237371   5.276   2.244   5.842 -0.3539 -0.0994 -0.6152
 5294TIP3   OH237372   1.962   3.910   3.845  0.2698 -0.5057 -0.5426
 5294TIP3    H137373   2.041   3.865   3.878  0.2829  0.7622  1.2833
 5294TIP3    H237374   1.903   3.913   3.920 -1.0458 -0.3194 -1.5500
 5295TIP3   OH237375   0.536   4.016   4.298 -0.2291  0.3255 -0.0169
 5295TIP3    H137376   0.466   4.038   4.235  0.0418  1.6979  0.1428
 5295TIP3    H237377   0.510   3.931   4.333 -0.5471 -0.3441 -1.7660
 5296TIP3   OH237378   5.070   0.951   2.917  0.1100  0.0544 -0.4575
 5296TIP3    H137379   5.008   0.890   2.876  1.0913 -1.7314  0.5826
 5296TIP3    H237380   5.060   0.935   3.011  0.3795  1.5457 -0.1584
 5297TIP3   OH237381   0.428   1.341  14.070  0.1040 -0.0903 -0.6494
 5297TIP3    H137382   0.456   1.261  14.115  0.9628  0.2031 -0.6639
 5297TIP3    H237383   0.396   1.309  13.985  0.8011 -0.3821 -0.8063
 5298TIP3   OH237384   4.974   5.708  13.324 -0.0568  0.1425  0.0104
 5298TIP3    H137385   5.032   5.783  13.312  1.7010 -1.0001  0.8320
 5298TIP3    H237386   4.893   5.745  13.359  0.5818  1.6888 -0.0581
 5299TIP3   OH237387   1.472   1.106   0.375  0.5834  0.4585  0.4497
 5299TIP3    H137388   1.485   1.013   0.355  1.5407  0.9513 -1.4185
 5299TIP3    H237389   1.384   1.110   0.413 -0.4413 -0.9526 -1.5776
 5300TIP3   OH237390   3.849   4.194   2.098 -0.3684 -0.0150  0.5135
 5300TIP3    H137391   3.763   4.222   2.129 -0.4794  0.0761  0.1302
 5300TIP3    H237392   3.902   4.274   2.098 -0.6891  0.2189 -0.5940
 5301TIP3   OH237393   6.580   6.452  11.818  0.5469  0.1798  0.0139
 5301TIP3    H137394   6.556   6.436  11.909  0.8993  0.8743  0.2384
 5301TIP3    H237395   6.674   6.436  11.814  0.2615 -1.5191 -0.6303
 5302TIP3   OH237396   5.098   2.157  14.012 -0.2491  0.2823 -0.3804
 5302TIP3    H137397   5.107   2.172  14.106 -0.0253 -1.1612 -0.1389
 5302TIP3    H237398   5.043   2.228  13.980 -3.2315 -1.0141  1.4566
 5303TIP3   OH237399   0.708   6.466  13.272  0.3585 -0.3107  0.7206
 5303TIP3    H137400   0.748   6.494  13.355 -0.9095  2.2064  0.5862
 5303TIP3    H237401   0.779   6.470  13.209  0.6456  0.9473  1.0964
 5304TIP3   OH237402   3.771   1.942   3.288  0.0134  0.8231  0.3062
 5304TIP3    H137403   3.792   2.035   3.284 -0.6179  0.9489 -0.2268
 5304TIP3    H237404   3.798   1.908   3.203  0.7189  0.4094  0.6857
 5305TIP3   OH237405   2.623   1.690  15.274 -0.1283 -0.5125 -0.3679
 5305TIP3    H137406   2.663   1.607  15.247  0.2555 -0.4678  0.0376
 5305TIP3    H237407   2.651   1.753  15.208  0.0313 -0.5963 -0.3813
 5306TIP3   OH237408   4.587   0.522  11.154 -0.6479  0.1300 -0.3829
 5306TIP3    H137409   4.582   0.547  11.061  0.9088  0.0444 -0.5213
 5306TIP3    H237410   4.532   0.585  11.199 -1.0759  0.4456 -1.3149
 5307TIP3   OH237411   1.735   6.598  11.858 -0.3206  0.1842  0.4946
 5307TIP3    H137412   1.798   6.531  11.882  0.7383  0.7010 -0.7240
 5307TIP3    H237413   1.726   6.653  11.936  0.5527 -0.0413  0.7552
 5308TIP3   OH237414   6.242   1.930  11.414 -0.0015 -0.7456  0.2768
 5308TIP3    H137415   6.216   1.923  11.322 -0.3673  0.2082  0.2983
 5308TIP3    H237416   6.277   1.843  11.435  0.3422 -0.9039 -0.8374
 5309TIP3   OH237417   1.958   2.487  12.477 -0.4462 -0.9196 -0.6049
 5309TIP3    H137418   1.907   2.553  12.524  0.4028 -1.5663  1.3668
 5309TIP3    H237419   1.922   2.404  12.507  1.1839 -1.3765  0.2086
 5310TIP3   OH237420   6.098   3.547  13.483  0.1450 -0.3152 -0.1932
 5310TIP3    H137421   6.063   3.624  13.438  0.2523  0.4936  1.0630
 5310TIP3    H237422   6.168   3.516  13.425  0.8958  1.2403 -0.1853
 5311TIP3   OH237423   2.105   6.225   1.861  0.2095  0.2571  0.1410
 5311TIP3    H137424   2.137   6.298   1.810  0.1688 -0.9219 -1.6529
 5311TIP3    H237425   2.157   6.150   1.832 -2.2862 -1.1854 -0.9261
 5312TIP3   OH237426   5.236   1.538   2.844  0.5011  0.1380  0.4824
 5312TIP3    H137427   5.211   1.551   2.752 -0.0223  1.8981  0.8439
 5312TIP3    H237428   5.165   1.484   2.880  0.5349 -0.2772 -0.0480
 5313TIP3   OH237429   5.043   3.385   4.865  0.0618  0.2960 -0.5285
 5313TIP3    H137430   5.029   3.393   4.770 -0.1716 -2.0772 -0.7554
 5313TIP3    H237431   4.971   3.435   4.904 -1.7280 -1.2833 -1.6469
 5314TIP3   OH237432   6.043   2.352  15.497 -0.0041 -0.8624 -0.3782
 5314TIP3    H137433   6.065   2.261  15.515  2.4236 -0.2781  0.0291
 5314TIP3    H237434   6.126   2.391  15.468 -0.5061  1.6400  1.2428
 5315TIP3   OH237435   2.748   4.138  11.588 -0.5241  0.5233  0.8075
 5315TIP3    H137436   2.815   4.112  11.651 -0.6463 -1.7558  0.0759
 5315TIP3    H237437   2.794   4.198  11.528  0.4382  0.2278  1.2305
 5316TIP3   OH237438   4.319   5.138  14.975  0.0236  0.1946  0.0075
 5316TIP3    H137439   4.392   5.082  15.002 -0.0613 -0.4677 -1.0630
 5316TIP3    H237440   4.270   5.084  14.912 -1.0489  0.8438  0.2570
 5317TIP3   OH237441   1.337   5.236  16.830 -0.4351  0.2436  0.4012
 5317TIP3    H137442   1.382   5.239  16.745 -0.5605 -1.5966  0.2350
 5317TIP3    H237443   1.309   5.145  16.839 -0.0491  0.2932  2.6255
 5318TIP3   OH237444   1.951   3.881   4.889 -0.6610 -0.5945  0.0792
 5318TIP3    H137445   1.957   3.831   4.970 -3.2237 -0.6584  0.3150
 5318TIP3    H237446   1.884   3.836   4.838 -2.4873  2.0476 -0.0493
 5319TIP3   OH237447   3.853   1.813  16.846  0.1101  0.2979  0.6568
 5319TIP3    H137448   3.816   1.780  16.764  1.7722  1.8740 -0.8337
 5319TIP3    H237449   3.778   1.841  16.897 -0.9380 -0.1243 -0.5952
 5320TIP3   OH237450   1.987   1.162  11.512  0.5343  0.0914  0.5383
 5320TIP3    H137451   1.942   1.105  11.450  1.8701  1.4292 -1.8214
 5320TIP3    H237452   2.071   1.118  11.529  1.5302  1.1916 -1.2174
 5321TIP3   OH237453   2.182   0.114   2.568 -0.0987  0.2785 -0.0423
 5321TIP3    H137454   2.121   0.080   2.502 -0.3818 -1.4629  1.0578
 5321TIP3    H237455   2.127   0.164   2.627 -0.1742  0.1638 -0.0152
 5322TIP3   OH237456   4.068   0.038   5.564 -0.1222 -0.3037 -0.4229
 5322TIP3    H137457   4.034   0.098   5.499  1.7458 -0.1247 -1.3076
 5322TIP3    H237458   4.115  -0.029   5.514 -0.7891 -1.6146  0.6203
 5323TIP3   OH237459   2.603   3.863   4.383  0.4179  0.0174  0.1016
 5323TIP3    H137460   2.599   3.875   4.288 -0.5805 -1.9292 -0.1535
 5323TIP3    H237461   2.520   3.896   4.415  0.3700 -0.1790  0.1812
 5324TIP3   OH237462   6.198   1.287  15.265 -0.0944  0.6598  0.5956
 5324TIP3    H137463   6.111   1.304  15.228  0.2437  1.2362  0.0451
 5324TIP3    H237464   6.217   1.196  15.240 -0.6612  0.4329  0.9737
 5325TIP3   OH237465   1.725   1.076   3.407  0.4515  0.0720  0.1035
 5325TIP3    H137466   1.668   1.087   3.331  0.7936  0.1122 -0.1500
 5325TIP3    H237467   1.713   0.985   3.434 -1.1545  0.5676  1.2085
 5326TIP3   OH237468   4.256   2.676   5.928 -0.7051 -0.2104 -0.4434
 5326TIP3    H137469   4.256   2.587   5.963 -1.4246 -0.1280 -0.2181
 5326TIP3    H237470   4.243   2.665   5.834  0.1991 -0.3852 -0.5539
 5327TIP3   OH237471   6.333   1.387   6.473  0.5845  0.8071  0.0031
 5327TIP3    H137472   6.264   1.453   6.461 -0.5554 -0.6999 -2.7503
 5327TIP3    H237473   6.404   1.417   6.416  0.9857  0.8018  0.4964
 5328TIP3   OH237474   4.041   3.762   0.323 -0.1973 -0.1674  0.1498
 5328TIP3    H137475   3.983   3.743   0.249  0.3866  0.5511 -0.5042
 5328TIP3    H237476   4.059   3.856   0.316  1.6377 -0.5191 -0.1006
 5329TIP3   OH237477   2.516   4.457  13.593  0.0845 -0.6658 -0.4467
 5329TIP3    H137478   2.608   4.432  13.589  0.6976  1.1501  1.0629
 5329TIP3    H237479   2.495   4.459  13.686 -0.4522  2.3175 -0.5514
 5330TIP3   OH237480   4.275   3.660   2.980 -0.0142 -0.3971 -0.6128
 5330TIP3    H137481   4.182   3.682   2.984 -0.0562 -0.1297 -2.3191
 5330TIP3    H237482   4.277   3.574   2.936  0.4809 -1.0507  0.6538
 5331TIP3   OH237483   0.900   5.494  10.876 -0.8190 -0.3417  0.0366
 5331TIP3    H137484   0.961   5.544  10.931 -2.0137 -0.2723  1.3510
 5331TIP3    H237485   0.957   5.440  10.821  0.4469  0.1685  0.7858
 5332TIP3   OH237486   0.003   5.431  16.035  0.3175 -0.9092 -0.2234
 5332TIP3    H137487   0.017   5.489  15.961 -1.6491  0.9166  0.7322
 5332TIP3    H237488   0.077   5.370  16.032  1.2992  0.2710 -2.5357
 5333TIP3   OH237489   2.690   5.602  13.988  0.1251 -0.1262 -0.3008
 5333TIP3    H137490   2.634   5.527  14.010 -1.3774  0.8478 -0.6692
 5333TIP3    H237491   2.763   5.596  14.049 -1.5818 -0.1178  1.8388
 5334TIP3   OH237492   4.541   4.245  12.763 -0.2334  0.0800 -0.1345
 5334TIP3    H137493   4.600   4.170  12.769 -0.8005 -0.3971 -0.4284
 5334TIP3    H237494   4.599   4.321  12.755  0.3438 -0.3307  0.0964
 5335TIP3   OH237495   1.323   3.188  12.358 -0.9909 -0.2493  0.1253
 5335TIP3    H137496   1.388   3.196  12.428  3.7855  0.5021 -3.8990
 5335TIP3    H237497   1.314   3.094  12.343  0.5385 -0.3308 -0.3583
 5336TIP3   OH237498   1.508   5.037   2.474 -0.1198  0.5486 -0.1384
 5336TIP3    H137499   1.563   5.090   2.415  0.3493  1.0785  0.7508
 5336TIP3    H237500   1.424   5.031   2.429  0.1396  1.1925 -0.7328
 5337TIP3   OH237501   0.289   5.434   4.917  0.0434 -0.2342 -0.8641
 5337TIP3    H137502   0.309   5.524   4.943  2.1153 -0.3375 -1.8775
 5337TIP3    H237503   0.220   5.406   4.976  1.5304  0.9746  1.5807
 5338TIP3   OH237504   4.388   3.026  12.784  0.6230  0.4121  0.1184
 5338TIP3    H137505   4.352   3.114  12.794  0.4641  0.3945 -0.2909
 5338TIP3    H237506   4.479   3.040  12.756  0.9561  0.4565  1.1575
 5339TIP3   OH237507   6.144   4.562   5.667  1.3248  0.0833 -0.3598
 5339TIP3    H137508   6.175   4.651   5.681 -0.4795  0.9851 -1.6002
 5339TIP3    H237509   6.092   4.542   5.745  0.6305  0.6711 -0.6562
 5340TIP3   OH237510   4.566   4.586   0.550  0.4766  0.0211  0.2634
 5340TIP3    H137511   4.513   4.643   0.606  0.3233  0.8323 -0.6791
 5340TIP3    H237512   4.636   4.642   0.518  0.9113 -0.5975  0.1146
 5341TIP3   OH237513   4.262   1.912   4.198 -0.2080 -0.1001  0.1426
 5341TIP3    H137514   4.321   1.952   4.134  0.8729 -0.8695  0.6352
 5341TIP3    H237515   4.204   1.857   4.145 -0.5997  0.7695 -0.3565
 5342TIP3   OH237516   2.162   3.645  11.959  0.7580 -0.3573 -0.4510
 5342TIP3    H137517   2.173   3.632  11.865  2.1145  0.9933 -0.5322
 5342TIP3    H237518   2.247   3.619  11.996  0.5255 -0.0794  0.2878
 5343TIP3   OH237519   4.481   5.363  13.561 -0.1742  0.0236  0.2313
 5343TIP3    H137520   4.495   5.269  13.546 -0.0603  0.3118 -1.7075
 5343TIP3    H237521   4.548   5.388  13.625  0.0056 -1.1410  0.5204
 5344TIP3   OH237522   2.576   6.610  13.857  0.7475  0.0965 -0.0357
 5344TIP3    H137523   2.486   6.582  13.875  1.4005 -1.7394  0.5290
 5344TIP3    H237524   2.590   6.586  13.765  1.2071 -1.2540  0.3637
 5345TIP3   OH237525   0.166   4.789  11.120 -0.3011  0.2221 -0.1189
 5345TIP3    H137526   0.078   4.780  11.082 -0.1603 -0.3271 -0.3338
 5345TIP3    H237527   0.193   4.699  11.138  0.0366  0.4208  0.3667
 5346TIP3   OH237528   1.848   3.401  15.905  0.1202  0.0228 -0.3509
 5346TIP3    H137529   1.856   3.416  15.999 -1.7954 -3.6916  0.5784
 5346TIP3    H237530   1.936   3.377  15.876  1.3176  3.6162 -0.2192
 5347TIP3   OH237531   1.877   2.372  11.320  0.7520 -0.2561 -0.1801
 5347TIP3    H137532   1.949   2.430  11.293  1.2167 -0.3212  0.8562
 5347TIP3    H237533   1.911   2.284  11.304  0.0736 -0.2705 -1.6847
 5348TIP3   OH237534   6.376   3.094  11.030  0.8471  0.2410  0.2492
 5348TIP3    H137535   6.362   3.184  11.000  0.5967  0.9403  2.2694
 5348TIP3    H237536   6.469   3.078  11.015  0.7062  0.4893 -0.9761
 5349TIP3   OH237537   3.832   3.764   4.384  0.7222  0.1341 -0.1124
 5349TIP3    H137538   3.759   3.822   4.404  0.6462 -0.3062  0.9327
 5349TIP3    H237539   3.832   3.700   4.455  1.3134 -0.6569 -0.8097
 5350TIP3   OH237540   1.126   4.515   1.949 -0.4568 -0.1912 -0.0882
 5350TIP3    H137541   1.038   4.538   1.979 -0.1356 -0.5054  1.1476
 5350TIP3    H237542   1.120   4.423   1.924 -0.4083 -0.2873  0.2596
 5351TIP3   OH237543   4.118   3.660   5.346  0.2590  0.6567 -0.0940
 5351TIP3    H137544   4.138   3.571   5.315  0.1749  0.5037  0.2872
 5351TIP3    H237545   4.182   3.676   5.415  0.0120  0.7361  0.1167
 5352TIP3   OH237546   4.561   1.009  11.489 -0.6636 -0.4114 -0.4868
 5352TIP3    H137547   4.581   0.918  11.467 -0.5370 -0.6398  0.5150
 5352TIP3    H237548   4.518   1.044  11.411 -0.0260 -1.1034 -1.1631
 5353TIP3   OH237549   6.804   0.898   4.492 -0.2964  0.2867  0.2107
 5353TIP3    H137550   6.848   0.816   4.468 -0.1234  0.7040 -0.9375
 5353TIP3    H237551   6.766   0.880   4.578 -1.0020 -1.3037 -0.3818
 5354TIP3   OH237552   0.371   1.201   3.460 -0.0803 -0.3977  0.0306
 5354TIP3    H137553   0.322   1.127   3.496 -0.7027 -0.3230 -0.6316
 5354TIP3    H237554   0.430   1.161   3.396 -1.4109 -0.2262 -1.3751
 5355TIP3   OH237555   4.596   1.431  12.486 -0.1036 -0.2918 -0.1314
 5355TIP3    H137556   4.656   1.356  12.495  0.4606  0.2848  1.1042
 5355TIP3    H237557   4.569   1.451  12.575  0.7619  1.7790 -0.2812
 5356TIP3   OH237558   5.698   2.443   5.332 -0.1875  0.4893  0.5760
 5356TIP3    H137559   5.745   2.424   5.251 -1.4727 -1.4548  0.2063
 5356TIP3    H237560   5.641   2.516   5.311 -1.8247 -1.1208 -0.8991
 5357TIP3   OH237561   1.629   2.171   1.322  0.3466 -0.4663  0.0776
 5357TIP3    H137562   1.562   2.192   1.387 -1.3654 -1.5603 -1.2544
 5357TIP3    H237563   1.703   2.226   1.346 -1.6456  2.2170  0.5662
 5358TIP3   OH237564   0.310   5.743   5.120 -0.0907  0.1390  0.7008
 5358TIP3    H137565   0.385   5.740   5.061 -0.1721 -0.3240  0.6219
 5358TIP3    H237566   0.310   5.833   5.153  1.1611 -0.1448  1.5502
 5359TIP3   OH237567   1.224   5.554   2.162 -0.4934  0.4189  0.8179
 5359TIP3    H137568   1.243   5.618   2.093 -1.4367 -1.2093 -1.0352
 5359TIP3    H237569   1.298   5.562   2.223 -0.6729  3.3742  0.8134
 5360TIP3   OH237570   4.916   6.746  16.708 -0.5935 -0.1383 -0.5101
 5360TIP3    H137571   4.877   6.757  16.795  1.5651 -0.3150  0.5374
 5360TIP3    H237572   5.009   6.729  16.725  0.1019  0.8706 -2.8984
 5361TIP3   OH237573   6.625   1.147   4.954 -0.1972  0.4603 -0.0421
 5361TIP3    H137574   6.696   1.109   5.007 -1.6699 -1.3609  0.7153
 5361TIP3    H237575   6.549   1.145   5.011 -0.9655  2.0836 -0.9583
 5362TIP3   OH237576   0.780   5.589   3.732  0.1447  0.0711 -0.2655
 5362TIP3    H137577   0.689   5.611   3.710 -0.0122 -0.0231  0.2816
 5362TIP3    H237578   0.794   5.628   3.818  0.7079  0.3069 -0.4607
 5363TIP3   OH237579   1.388   0.683   1.052  0.4842  0.0982 -0.3821
 5363TIP3    H137580   1.468   0.647   1.014  0.4693  1.0647 -1.3735
 5363TIP3    H237581   1.417   0.727   1.132  0.6910 -0.9167  0.1223
 5364TIP3   OH237582   3.370   3.508  11.026 -0.6875  0.0557  0.0031
 5364TIP3    H137583   3.301   3.474  11.082  0.0915  0.0031  0.9738
 5364TIP3    H237584   3.325   3.549  10.953 -1.7334 -0.0535  0.5746
 5365TIP3   OH237585   1.171   4.439  15.623 -0.2092  0.4477 -0.6666
 5365TIP3    H137586   1.187   4.367  15.684 -2.2670  0.3420 -0.1948
 5365TIP3    H237587   1.155   4.397  15.538 -0.0399  0.4400 -0.6953
 5366TIP3   OH237588   1.772   5.124  16.485 -0.3900  0.5385  0.2099
 5366TIP3    H137589   1.728   5.158  16.407 -1.3884 -2.1892 -0.5155
 5366TIP3    H237590   1.785   5.202  16.540 -0.6671  2.3777 -2.1445
 5367TIP3   OH237591   5.184   5.607   1.495 -0.5700  0.0759 -0.2939
 5367TIP3    H137592   5.248   5.538   1.514 -1.2296 -0.0824  1.5884
 5367TIP3    H237593   5.100   5.563   1.502 -0.9747  0.9249  0.3092
 5368TIP3   OH237594   4.529   3.656  16.221 -0.0448  0.3180 -0.1958
 5368TIP3    H137595   4.556   3.618  16.137  2.1280  0.6195  0.3121
 5368TIP3    H237596   4.500   3.581  16.273  1.3213 -0.2683 -0.2493
 5369TIP3   OH237597   1.628   2.562   4.109 -0.3541  0.7606  0.1466
 5369TIP3    H137598   1.620   2.585   4.201 -0.0819 -0.9610  0.6473
 5369TIP3    H237599   1.583   2.632   4.062 -1.5466  1.0665  1.6582
 5370TIP3   OH237600   2.815   6.359  13.779 -0.2646  0.0734 -0.2270
 5370TIP3    H137601   2.893   6.414  13.773 -0.1568 -0.1744 -1.2542
 5370TIP3    H237602   2.843   6.273  13.747 -0.5006 -0.5200  1.1072
 5371TIP3   OH237603   0.263   5.459  10.463 -0.2216  0.8072 -0.2575
 5371TIP3    H137604   0.233   5.373  10.489  0.3010  1.1338  1.5588
 5371TIP3    H237605   0.344   5.473  10.512  0.0094  2.1111 -0.9413
 5372TIP3   OH237606   2.972   0.080   1.674  0.4371 -0.0981 -0.0343
 5372TIP3    H137607   3.051   0.054   1.721  0.2483 -0.3559  0.1443
 5372TIP3    H237608   3.001   0.149   1.615  0.5400  0.8174  1.0380
 5373TIP3   OH237609   6.517   3.826  15.488 -0.8962 -0.0414 -0.9917
 5373TIP3    H137610   6.460   3.877  15.545 -1.7543  1.1057 -2.8180
 5373TIP3    H237611   6.599   3.875  15.486 -0.4258 -0.7406  0.1968
 5374TIP3   OH237612   1.638   6.800  11.669  0.0143  0.0267  0.1591
 5374TIP3    H137613   1.651   6.749  11.748 -0.3129  0.7563  0.6995
 5374TIP3    H237614   1.547   6.830  11.674  0.8451  2.7399  1.1607
 5375TIP3   OH237615   5.020   0.133  15.612 -0.4500 -0.2861 -0.3535
 5375TIP3    H137616   5.106   0.125  15.652  0.2140  0.5604 -1.5281
 5375TIP3    H237617   4.959   0.133  15.686  0.4086 -2.3494  0.4182
 5376TIP3   OH237618   2.681   5.332  14.573  0.4848 -0.1416  0.2694
 5376TIP3    H137619   2.743   5.379  14.517 -0.5598  1.5533  0.4551
 5376TIP3    H237620   2.689   5.241  14.546  1.9044  0.2591 -0.7989
 5377TIP3   OH237621   3.402   4.921  12.533  0.0863 -0.0804  0.1475
 5377TIP3    H137622   3.311   4.948  12.517  0.1356 -0.1463 -0.2732
 5377TIP3    H237623   3.430   4.973  12.608 -0.4893 -0.4874  0.6562
 5378TIP3   OH237624   0.673   5.808   2.239  0.1360 -0.8037 -0.4790
 5378TIP3    H137625   0.598   5.831   2.184  0.9991 -1.5067 -1.9898
 5378TIP3    H237626   0.654   5.719   2.269  0.4711 -1.0852 -1.0817
 5379TIP3   OH237627   5.530   1.167   4.406 -1.0083 -0.0062  0.0548
 5379TIP3    H137628   5.477   1.242   4.377 -0.4387  0.3749 -0.0112
 5379TIP3    H237629   5.545   1.183   4.499 -0.1343  0.4324 -0.1506
 5380TIP3   OH237630   2.535   2.417  15.851  0.4685  0.7644  0.3797
 5380TIP3    H137631   2.582   2.500  15.848  0.5801  0.6765 -0.5387
 5380TIP3    H237632   2.445   2.440  15.827  0.5756  0.5753 -0.2211
 5381TIP3   OH237633   5.520   4.405  14.938 -0.0730  0.0217 -0.5736
 5381TIP3    H137634   5.510   4.482  14.995  0.7122 -0.3255  0.0474
 5381TIP3    H237635   5.615   4.398  14.924  0.0905 -2.1252  1.1861
 5382TIP3   OH237636   3.085   4.447   1.168 -0.2214 -0.3885  0.0909
 5382TIP3    H137637   3.019   4.482   1.108 -0.4273 -0.3989  0.3074
 5382TIP3    H237638   3.168   4.481   1.136 -0.3504 -0.2498 -0.0953
 5383TIP3   OH237639   0.745   5.129   2.445  0.5660  0.0723  0.2776
 5383TIP3    H137640   0.792   5.122   2.528 -0.8798 -0.1225  1.1068
 5383TIP3    H237641   0.661   5.169   2.468 -0.9914 -2.4404 -0.5859
 5384TIP3   OH237642   3.889   6.006  13.941 -0.1015  0.3141 -0.2884
 5384TIP3    H137643   3.935   6.086  13.915 -0.5143  0.5022 -0.4648
 5384TIP3    H237644   3.799   6.020  13.911 -0.2577 -0.0716 -0.0127
 5385TIP3   OH237645   4.210   4.389  15.401 -0.1029 -0.2991 -0.1850
 5385TIP3    H137646   4.149   4.459  15.377 -0.4910 -0.5971 -0.0894
 5385TIP3    H237647   4.271   4.430  15.462  0.3182  0.2227 -0.9308
 5386TIP3   OH237648   0.618   5.933  15.730 -0.4133  0.1083 -0.7729
 5386TIP3    H137649   0.594   6.017  15.767 -0.1674  0.2921 -1.0212
 5386TIP3    H237650   0.590   5.869  15.795 -0.6656  0.3754 -0.6147
 5387TIP3   OH237651   1.408   3.950  12.136  0.2035 -0.5823  0.1951
 5387TIP3    H137652   1.453   4.000  12.205  0.2279  0.6757 -0.6982
 5387TIP3    H237653   1.321   3.934  12.172  0.3145 -0.2058  0.6519
 5388TIP3   OH237654   3.416   6.061  11.656  0.1850  0.3072 -0.1414
 5388TIP3    H137655   3.363   6.027  11.728 -0.3584  2.2719  0.4505
 5388TIP3    H237656   3.446   6.147  11.687  1.8332  0.2275 -1.3792
 5389TIP3   OH237657   6.536   1.836  17.073  0.2409 -0.0492 -0.9565
 5389TIP3    H137658   6.605   1.886  17.028  0.3852 -0.1106 -0.8055
 5389TIP3    H237659   6.485   1.797  17.003 -0.6525  1.3303 -1.1255
 5390TIP3   OH237660   1.047   6.217   0.246 -0.0562 -0.1145  0.0704
 5390TIP3    H137661   1.006   6.211   0.332 -0.9740 -0.2637 -0.3685
 5390TIP3    H237662   0.992   6.164   0.189 -0.0139  0.7564 -0.8134
 5391TIP3   OH237663   0.543   5.070  16.914  0.0417  0.7116  0.1381
 5391TIP3    H137664   0.593   5.136  16.867 -2.9223  2.3285 -1.0586
 5391TIP3    H237665   0.557   5.090  17.006  1.5507  1.0693 -0.1474
 5392TIP3   OH237666   6.177   2.974  15.709  0.2833  0.3326  1.3820
 5392TIP3    H137667   6.219   2.912  15.768 -2.0699 -2.4415  0.3991
 5392TIP3    H237668   6.198   2.942  15.621 -0.9085  0.9463  0.8457
 5393TIP3   OH237669   6.445   4.878  12.292 -0.4334  0.0313  0.6028
 5393TIP3    H137670   6.403   4.938  12.230 -1.3402 -0.8387  0.3525
 5393TIP3    H237671   6.512   4.931  12.335 -1.6732  1.4318  0.8997
 5394TIP3   OH237672   2.818   4.834   3.250 -0.9833  0.1719  0.4456
 5394TIP3    H137673   2.764   4.797   3.180 -0.4696 -2.8991  1.5392
 5394TIP3    H237674   2.908   4.818   3.222 -0.6679  1.9425  0.3402
 5395TIP3   OH237675   3.554   2.107   5.677 -0.2563 -0.2111  0.0211
 5395TIP3    H137676   3.558   2.031   5.736 -2.9445 -0.9860 -0.6462
 5395TIP3    H237677   3.622   2.091   5.612  0.0141 -1.4289  0.5801
 5396TIP3   OH237678   6.269   3.072   0.874 -0.2926 -0.5629  0.4245
 5396TIP3    H137679   6.218   3.007   0.826  1.6240 -1.6653 -0.2491
 5396TIP3    H237680   6.264   3.045   0.965  1.3460 -2.3792  0.0403
 5397TIP3   OH237681   5.418   1.493  14.942 -0.6426 -0.2878  0.2244
 5397TIP3    H137682   5.323   1.486  14.933 -0.7403  0.6070  0.4292
 5397TIP3    H237683   5.449   1.510  14.852 -0.7574  0.1338  0.2599
 5398TIP3   OH237684   1.820   5.384  12.569  0.2275 -0.2108  0.5501
 5398TIP3    H137685   1.798   5.476  12.580 -0.0283 -0.1758 -0.2428
 5398TIP3    H237686   1.884   5.366  12.638 -1.3732 -0.0126  2.1692
 5399TIP3   OH237687   2.408   5.978   2.970  0.1008  0.1514  0.2787
 5399TIP3    H137688   2.374   6.057   2.928  0.8006  1.4939  2.1003
 5399TIP3    H237689   2.503   5.992   2.974  0.3590 -1.2678 -0.2610
 5400TIP3   OH237690   1.695   6.502   4.923 -0.1991 -0.0681  0.4155
 5400TIP3    H137691   1.766   6.525   4.863 -0.0181 -1.0156  0.2526
 5400TIP3    H237692   1.648   6.585   4.937 -1.5512 -0.1346 -2.7461
 5401TIP3   OH237693   1.528   2.259  13.935  0.3555  0.2155  0.1351
 5401TIP3    H137694   1.529   2.334  13.876 -0.3302 -0.1943 -0.4144
 5401TIP3    H237695   1.550   2.185  13.879 -5.0431 -1.0261 -0.8889
 5402TIP3   OH237696   1.358   2.588  14.464  0.3891  0.6347 -0.5611
 5402TIP3    H137697   1.337   2.677  14.492  1.4441 -0.1744  3.4215
 5402TIP3    H237698   1.275   2.552  14.434 -0.7143  2.0382  0.6819
 5403TIP3   OH237699   5.148   5.441  11.256  0.3428 -0.7921  0.5943
 5403TIP3    H137700   5.174   5.443  11.348  1.0008 -0.3868  0.4070
 5403TIP3    H237701   5.106   5.355  11.245 -0.7598 -0.3925  1.5320
 5404TIP3   OH237702   3.405   3.223  15.022  0.4650 -0.1312 -0.0558
 5404TIP3    H137703   3.370   3.233  14.934  1.0541 -0.8257 -0.3746
 5404TIP3    H237704   3.455   3.304  15.037  1.2243 -0.4563 -0.7635
 5405TIP3   OH237705   5.508   0.662  16.777 -0.0003  0.4772 -0.3788
 5405TIP3    H137706   5.524   0.693  16.867 -2.0502  0.5217  0.0262
 5405TIP3    H237707   5.589   0.617  16.752  0.2685 -0.4350  1.8856
 5406TIP3   OH237708   4.486   5.621   1.260 -0.1083 -0.4712 -0.0917
 5406TIP3    H137709   4.475   5.617   1.355 -0.8787  0.6464 -0.1119
 5406TIP3    H237710   4.570   5.664   1.247 -0.8921  1.2040  0.1170
 5407TIP3   OH237711   1.427   1.697   1.895 -0.0503 -0.4303 -0.2580
 5407TIP3    H137712   1.372   1.668   1.823  0.5540  0.2213 -1.0049
 5407TIP3    H237713   1.429   1.623   1.956 -2.4384 -0.1765  0.2377
 5408TIP3   OH237714   2.832   2.427  11.967  0.2600 -0.3979 -0.1108
 5408TIP3    H137715   2.813   2.500  12.026 -1.0286 -1.0382  0.3093
 5408TIP3    H237716   2.887   2.368  12.018  2.4598  0.8517 -0.8956
 5409TIP3   OH237717   0.630   2.676   5.433  0.2717  0.0475  0.2551
 5409TIP3    H137718   0.709   2.665   5.381 -0.1009  1.8197 -0.7897
 5409TIP3    H237719   0.563   2.626   5.386  0.1915  0.7279 -0.3764
 5410TIP3   OH237720   3.026   4.820   4.602  0.0370  0.1078 -0.3963
 5410TIP3    H137721   3.078   4.876   4.659 -1.2430  0.3140  0.6278
 5410TIP3    H237722   2.938   4.858   4.606 -0.5620 -1.2035 -0.7201
 5411TIP3   OH237723   0.981   6.719   2.933  0.2158 -0.1850 -0.0824
 5411TIP3    H137724   1.071   6.694   2.949  0.2282 -0.3373 -0.3759
 5411TIP3    H237725   0.933   6.690   3.010  0.5489  0.6150  0.4358
 5412TIP3   OH237726   5.957   6.059   5.393 -0.0056 -0.3465 -0.4436
 5412TIP3    H137727   5.889   5.996   5.418 -0.6316  0.1985 -0.7285
 5412TIP3    H237728   5.953   6.126   5.461  1.4150 -1.1430  0.4746
 5413TIP3   OH237729   3.775   0.441   4.422  0.1608  0.2676  0.0624
 5413TIP3    H137730   3.798   0.406   4.508 -0.8346  0.7678  0.5516
 5413TIP3    H237731   3.789   0.535   4.430 -1.3693  0.5063  0.1785
 5414TIP3   OH237732   0.749   4.173   1.248  0.3690  0.0110 -0.1254
 5414TIP3    H137733   0.790   4.093   1.216  0.2597  0.5444 -1.7157
 5414TIP3    H237734   0.684   4.195   1.181 -2.3277 -0.6065  2.1228
 5415TIP3   OH237735   5.634   4.984  16.370  0.4679  0.0167 -0.4484
 5415TIP3    H137736   5.650   4.902  16.323 -0.1164 -0.4024  0.0529
 5415TIP3    H237737   5.579   4.958  16.444  1.3709  0.6427  0.4849
 5416TIP3   OH237738   5.600   2.245   0.698 -0.7589  0.2442 -0.2512
 5416TIP3    H137739   5.598   2.221   0.606 -0.5855  0.0283 -0.1970
 5416TIP3    H237740   5.521   2.298   0.710 -1.1513 -0.3031 -0.3650
 5417TIP3   OH237741   0.237   5.601   0.450  0.1023 -0.1449  0.1946
 5417TIP3    H137742   0.157   5.642   0.485 -0.7656  0.9966 -2.8059
 5417TIP3    H237743   0.222   5.508   0.460 -2.4520 -0.0456 -1.7001
 5418TIP3   OH237744   2.759   2.942   4.541  0.1933 -0.3056 -0.5469
 5418TIP3    H137745   2.844   2.927   4.498  0.2362 -0.3831 -0.4348
 5418TIP3    H237746   2.703   2.873   4.507  0.3428 -0.6178 -0.1615
 5419TIP3   OH237747   0.358   1.372  16.359  0.0917 -0.2438  0.4464
 5419TIP3    H137748   0.366   1.282  16.392 -0.4481  0.2704  2.0811
 5419TIP3    H237749   0.445   1.410  16.375  0.4396 -0.5546 -0.5981
 5420TIP3   OH237750   3.363   0.945   3.141  0.0265 -0.1861 -0.8818
 5420TIP3    H137751   3.351   1.003   3.065  0.1513  0.6019 -0.3145
 5420TIP3    H237752   3.412   0.998   3.204 -0.9065 -0.4998  0.1290
 5421TIP3   OH237753   0.146   1.142  12.755 -0.0569  0.4721 -0.0373
 5421TIP3    H137754   0.220   1.122  12.812  1.1239  0.0047 -1.6665
 5421TIP3    H237755   0.081   1.075  12.777  0.9382 -0.5817 -0.2248
 5422TIP3   OH237756   0.654   3.008  11.150  0.4894 -0.0524 -0.1025
 5422TIP3    H137757   0.704   3.031  11.072  1.7053 -0.1801  0.6160
 5422TIP3    H237758   0.720   2.983  11.215 -0.5031 -0.1798  0.8969
 5423TIP3   OH237759   3.213   4.580   1.910  0.6640  0.8814 -0.3211
 5423TIP3    H137760   3.152   4.617   1.846  2.0640  4.7598  0.3662
 5423TIP3    H237761   3.299   4.594   1.872  1.3954  0.9309  1.3013
 5424TIP3   OH237762   0.994   3.668  15.158 -0.6931  0.0887  0.2150
 5424TIP3    H137763   1.009   3.581  15.196 -1.4980 -0.0677  0.1908
 5424TIP3    H237764   0.914   3.699  15.200 -1.6596 -0.1245 -1.3957
 5425TIP3   OH237765   3.053   1.780  16.132  0.0729 -0.1205  0.7375
 5425TIP3    H137766   3.032   1.765  16.224 -2.6693  1.3961  0.4649
 5425TIP3    H237767   2.974   1.754  16.085  1.5403 -1.2351 -1.2764
 5426TIP3   OH237768   4.229   1.182  16.858 -0.0233  0.5114  0.3702
 5426TIP3    H137769   4.291   1.251  16.882  0.1619  0.6210 -0.3989
 5426TIP3    H237770   4.229   1.123  16.933  0.7126  0.7243  0.5480
 5427TIP3   OH237771   0.872   6.598  17.080  0.0940  0.2963  0.1576
 5427TIP3    H137772   0.881   6.614  16.986 -2.4891  1.3542  0.0004
 5427TIP3    H237773   0.922   6.669  17.121 -1.3505  1.7737 -0.5002
 5428TIP3   OH237774   2.841   3.333  15.560 -0.2282  0.1800 -0.4047
 5428TIP3    H137775   2.822   3.402  15.497 -0.4898  0.7389  0.2687
 5428TIP3    H237776   2.881   3.379  15.634  0.4813 -0.5187 -0.3368
 5429TIP3   OH237777   4.010   0.933  11.524 -0.7562 -0.6668 -0.0012
 5429TIP3    H137778   4.072   0.990  11.479  0.9038 -2.4020 -0.0493
 5429TIP3    H237779   4.065   0.874  11.576 -2.4895 -0.9407  1.6019
 5430TIP3   OH237780   2.515   1.106   5.401 -0.3606 -0.1428  0.4967
 5430TIP3    H137781   2.605   1.137   5.393 -0.5469  0.3632  0.2846
 5430TIP3    H237782   2.497   1.106   5.495  0.5104 -2.1967  0.7212
 5431TIP3   OH237783   4.833   3.648  16.568 -0.6049 -0.3636 -0.3222
 5431TIP3    H137784   4.777   3.642  16.645 -2.8865 -0.8875 -1.9027
 5431TIP3    H237785   4.861   3.558  16.551 -1.3848 -0.5188 -0.9111
 5432TIP3   OH237786   5.103   4.072   0.499 -0.1886 -0.0467 -0.6292
 5432TIP3    H137787   5.189   4.034   0.482  0.4114  1.5015 -1.2825
 5432TIP3    H237788   5.044   4.023   0.442  0.4597 -0.3551 -1.0516
 5433TIP3   OH237789   0.251   0.660   2.694  0.3230 -0.3548 -0.3877
 5433TIP3    H137790   0.280   0.718   2.623  4.0706 -1.1023  0.3304
 5433TIP3    H237791   0.191   0.715   2.745  0.3395  1.4073 -2.1071
 5434TIP3   OH237792   2.040   4.444  11.604 -0.5543 -0.0397 -0.5036
 5434TIP3    H137793   2.121   4.426  11.556 -1.6865  0.3025 -2.6648
 5434TIP3    H237794   1.988   4.499  11.545 -2.5487 -0.6037  0.6116
 5435TIP3   OH237795   3.792   1.056   1.156  0.1466 -0.2006 -0.0313
 5435TIP3    H137796   3.723   1.116   1.125  0.9781  0.6172 -0.3622
 5435TIP3    H237797   3.800   0.991   1.086  2.2765  1.8485 -1.8818
 5436TIP3   OH237798   6.065   5.017  13.240 -0.4089 -0.3643  0.6279
 5436TIP3    H137799   6.140   4.979  13.195 -2.0222 -0.5577 -2.1050
 5436TIP3    H237800   6.023   4.944  13.285  1.2470 -0.1598  2.6542
 5437TIP3   OH237801   3.311   3.469  16.575  0.0377  0.6063 -0.4696
 5437TIP3    H137802   3.374   3.524  16.621 -0.0159 -1.6143  2.5817
 5437TIP3    H237803   3.256   3.432  16.644 -3.5911  1.0593 -2.8422
 5438TIP3   OH237804   1.409   0.286  15.190  0.4727 -0.2208  0.2152
 5438TIP3    H137805   1.410   0.190  15.190 -0.3218 -0.2433 -0.6734
 5438TIP3    H237806   1.388   0.309  15.281  0.0536 -0.9042  0.3031
 5439TIP3   OH237807   1.295   1.946  12.588  0.2960 -0.0724  0.1848
 5439TIP3    H137808   1.241   1.871  12.612  0.7495 -0.4939 -0.0810
 5439TIP3    H237809   1.293   1.948  12.492  1.3923 -0.5986  0.1273
 5440TIP3   OH237810   2.607   6.802   4.173  0.5463 -0.1469 -0.5141
 5440TIP3    H137811   2.695   6.816   4.208  1.0757  0.7248 -2.0810
 5440TIP3    H237812   2.620   6.797   4.078 -1.1382  0.4438 -0.8028
 5441TIP3   OH237813   0.759   6.490   1.727 -0.1527 -0.2872  0.1711
 5441TIP3    H137814   0.831   6.553   1.729  1.5290 -2.0274 -1.1692
 5441TIP3    H237815   0.706   6.512   1.803  1.8375  1.0512  1.2736
 5442TIP3   OH237816   6.796   6.668   5.829 -0.3156 -0.0990  0.1528
 5442TIP3    H137817   6.806   6.645   5.737  0.8086 -0.2165  0.2920
 5442TIP3    H237818   6.880   6.646   5.868 -2.0253 -4.1728  2.1276
 5443TIP3   OH237819   0.117   0.641   4.492  0.1063  0.1910  0.1344
 5443TIP3    H137820   0.106   0.611   4.401  1.3203 -1.6913  0.5551
 5443TIP3    H237821   0.139   0.562   4.541  0.6780  1.3589  1.8638
 5444TIP3   OH237822   5.601   6.302   4.396 -0.4156 -0.3301  0.4955
 5444TIP3    H137823   5.516   6.260   4.390  0.6837 -2.7000  0.3686
 5444TIP3    H237824   5.648   6.273   4.318  1.2598 -0.9519  1.6697
 5445TIP3   OH237825   1.320   3.511  17.060  0.3705 -0.0286 -0.3373
 5445TIP3    H137826   1.354   3.451  16.994 -1.6358  0.6719 -2.1377
 5445TIP3    H237827   1.343   3.598  17.027  0.1079  0.3031  0.3431
 5446TIP3   OH237828   5.885   2.072   5.929 -0.3105  0.4473 -0.3274
 5446TIP3    H137829   5.917   2.162   5.938  1.0031  0.2774 -2.5131
 5446TIP3    H237830   5.870   2.062   5.835  1.1480 -2.1252 -0.3509
 5447TIP3   OH237831   5.104   3.820  16.823  0.4260  0.5098  0.1920
 5447TIP3    H137832   5.054   3.851  16.899 -0.8296 -0.3881 -0.2349
 5447TIP3    H237833   5.114   3.726  16.838 -2.4697 -0.3273 -2.0856
 5448TIP3   OH237834   1.224   2.408  14.245 -0.0331  0.0964  0.2584
 5448TIP3    H137835   1.257   2.319  14.233 -0.6135 -0.1876  0.6888
 5448TIP3    H237836   1.276   2.462  14.184 -0.2668 -0.6714 -0.6492
 5449TIP3   OH237837   3.823   5.389   3.387 -0.1161 -0.1773 -0.2559
 5449TIP3    H137838   3.729   5.397   3.374 -0.2227  0.5065  0.8308
 5449TIP3    H237839   3.859   5.395   3.298 -1.0748 -0.2811 -0.6676
 5450TIP3   OH237840   1.182   1.097   3.688  0.3786  0.2356 -0.6284
 5450TIP3    H137841   1.132   1.176   3.709 -0.3795 -0.2618 -0.5430
 5450TIP3    H237842   1.118   1.038   3.649  1.0724 -0.1147 -1.2549
 5451TIP3   OH237843   5.940   1.444  12.401  0.4338  0.2631 -0.7345
 5451TIP3    H137844   5.909   1.487  12.481  1.1088 -0.5392 -0.0335
 5451TIP3    H237845   5.868   1.456  12.339 -0.4611  0.1570  0.2506
 5452TIP3   OH237846   5.417   0.145  15.525  0.3779  0.2927 -0.2207
 5452TIP3    H137847   5.378   0.092  15.595  0.3454  0.0038 -0.4561
 5452TIP3    H237848   5.417   0.087  15.449 -1.4732  1.2658 -1.0255
 5453TIP3   OH237849   6.629   0.056   5.123  0.5864 -0.0028  0.0031
 5453TIP3    H137850   6.695   0.089   5.185  0.4221  0.0241  0.1647
 5453TIP3    H237851   6.568   0.129   5.113  0.1747 -0.2885  0.4298
 5454TIP3   OH237852   2.648   4.448   5.571  0.0294 -0.0292  0.4818
 5454TIP3    H137853   2.623   4.362   5.536  0.6550 -0.4282  1.0035
 5454TIP3    H237854   2.601   4.510   5.515  0.3427 -0.6797 -0.5421
 5455TIP3   OH237855   5.779   0.444  10.998 -0.2948 -0.6799 -0.0672
 5455TIP3    H137856   5.809   0.359  10.965 -2.0923 -0.9870 -1.0533
 5455TIP3    H237857   5.779   0.435  11.093  0.2108 -1.5335 -0.1441
 5456TIP3   OH237858   2.438   0.714   0.665  0.2494  0.4331 -0.5824
 5456TIP3    H137859   2.428   0.696   0.759  0.7416  3.6454  0.1915
 5456TIP3    H237860   2.350   0.701   0.629 -0.1985  0.2052  0.5251
 5457TIP3   OH237861   1.403   1.424  11.635 -0.0253  0.0627  0.1865
 5457TIP3    H137862   1.476   1.400  11.578 -1.2618 -0.0232 -1.4205
 5457TIP3    H237863   1.332   1.365  11.610 -0.6584  0.1323  1.7328
 5458TIP3   OH237864   2.182   6.267   5.498 -0.3525  0.1879 -0.1458
 5458TIP3    H137865   2.147   6.179   5.515  1.3558 -0.5644 -0.3748
 5458TIP3    H237866   2.213   6.297   5.583 -0.0814  0.1838 -0.2433
 5459TIP3   OH237867   3.063   1.213  14.787  0.1906  0.1456  0.0107
 5459TIP3    H137868   2.978   1.234  14.749  0.7070  3.7002  0.5627
 5459TIP3    H237869   3.043   1.147  14.854 -2.2955  1.4333  0.6707
 5460TIP3   OH237870   3.867   4.924  10.693  0.0683  0.0781 -0.6957
 5460TIP3    H137871   3.877   4.839  10.737 -1.3118  0.2497  0.0032
 5460TIP3    H237872   3.957   4.955  10.681  0.6068 -1.5455 -1.1126
 5461TIP3   OH237873   1.013   0.772  16.356  0.5307 -0.1234  0.3684
 5461TIP3    H137874   1.020   0.799  16.448 -0.7220  0.5258  0.2897
 5461TIP3    H237875   0.920   0.762  16.341  0.4955  2.2004 -1.5156
 5462TIP3   OH237876   6.664   3.979   3.289 -0.2813  0.0639 -0.3806
 5462TIP3    H137877   6.725   4.047   3.316  1.3940 -1.5136  0.0246
 5462TIP3    H237878   6.585   3.995   3.340  0.5607  0.9125  0.7014
 5463TIP3   OH237879   3.237   0.410   1.778  0.4541 -0.4684  0.4271
 5463TIP3    H137880   3.303   0.347   1.749 -1.8205 -2.0340 -1.7715
 5463TIP3    H237881   3.256   0.490   1.729  0.8256 -0.8408 -0.0380
 5464TIP3   OH237882   1.715   3.155   0.252  0.4278  0.4517  0.0773
 5464TIP3    H137883   1.731   3.246   0.226  0.3519  0.4552  0.0423
 5464TIP3    H237884   1.619   3.148   0.256  0.4267  0.2924 -0.2039
 5465TIP3   OH237885   1.960   0.786  12.454 -0.0100 -0.3089  0.1757
 5465TIP3    H137886   1.914   0.865  12.482  0.6855 -0.5028  1.9690
 5465TIP3    H237887   1.921   0.715  12.505  1.0799 -0.7274  0.4664
 5466TIP3   OH237888   6.768   4.213  14.672 -0.0094 -0.1235 -0.1409
 5466TIP3    H137889   6.778   4.307  14.663 -0.6909 -0.0297  0.0231
 5466TIP3    H237890   6.792   4.195  14.763  0.8978 -0.2243 -0.3922
 5467TIP3   OH237891   2.444   3.217   2.668  0.3171 -0.4248  0.4085
 5467TIP3    H137892   2.360   3.203   2.711  0.9083  0.8301  2.0636
 5467TIP3    H237893   2.505   3.159   2.713  0.6246 -0.3022  0.1569
 5468TIP3   OH237894   4.557   3.137   4.949  0.1396 -0.1759 -0.4587
 5468TIP3    H137895   4.572   3.231   4.961  2.1250 -0.5601  0.5031
 5468TIP3    H237896   4.462   3.128   4.951 -0.0777  1.7428  0.0405
 5469TIP3   OH237897   3.977   6.083   0.018  0.0849  0.0186 -0.4259
 5469TIP3    H137898   3.951   6.016   0.081 -0.2544 -0.9580 -1.5751
 5469TIP3    H237899   3.970   6.166   0.067 -0.0018 -0.7224  0.8528
 5470TIP3   OH237900   3.735   4.158   3.894 -0.1214 -0.3849 -0.2161
 5470TIP3    H137901   3.769   4.110   3.818  1.4174  0.3209 -0.0157
 5470TIP3    H237902   3.811   4.205   3.929 -0.7944 -0.6642  1.7541
 5471TIP3   OH237903   3.067   0.296   1.529  0.5786  0.5333  0.7669
 5471TIP3    H137904   3.138   0.300   1.465 -0.1269 -0.7643 -0.1261
 5471TIP3    H237905   3.010   0.370   1.507 -0.8215 -1.0997 -1.5755
 5472TIP3   OH237906   5.936   2.756   0.365  0.2836 -0.1244 -0.1699
 5472TIP3    H137907   5.997   2.692   0.329  1.5944  0.0598  1.5702
 5472TIP3    H237908   5.987   2.802   0.432 -0.7668  2.3873 -0.9784
 5473TIP3   OH237909   2.894   4.544  12.264 -0.1274 -0.1236  0.8015
 5473TIP3    H137910   2.869   4.472  12.323 -1.7236  0.2440  0.6271
 5473TIP3    H237911   2.934   4.500  12.188  0.1184 -0.7335  1.2779
 5474TIP3   OH237912   0.972   5.739  14.012 -0.1545  0.4782 -0.2168
 5474TIP3    H137913   1.062   5.708  14.010  0.1542  0.9606  2.5777
 5474TIP3    H237914   0.925   5.674  14.063 -1.4384  0.2304 -1.6461
 5475TIP3   OH237915   4.194   5.592   6.521 -0.3972 -0.0075  1.1790
 5475TIP3    H137916   4.137   5.668   6.535 -0.1128  0.4549 -0.0260
 5475TIP3    H237917   4.277   5.629   6.491 -0.4106 -0.8033  0.1065
 5476TIP3   OH237918   2.025   1.156  14.475 -0.2743  0.1901  0.0132
 5476TIP3    H137919   1.936   1.185  14.457 -0.3726 -0.2480 -0.2199
 5476TIP3    H237920   2.026   1.140  14.569 -0.3636  0.4500  0.0604
 5477TIP3   OH237921   3.312   0.428  11.400  0.0346 -0.2690  0.4966
 5477TIP3    H137922   3.254   0.357  11.370 -3.3963  2.4884  0.0399
 5477TIP3    H237923   3.333   0.405  11.491 -0.6837 -1.9905  0.2682
 5478TIP3   OH237924   5.438   2.165  14.969 -0.0011  0.2616 -0.0938
 5478TIP3    H137925   5.531   2.168  14.993  0.5266 -0.0350 -1.9002
 5478TIP3    H237926   5.419   2.072  14.960 -0.5819  0.3080  0.6025
 5479TIP3   OH237927   2.226   3.074   4.986  0.2473  0.2281  0.2670
 5479TIP3    H137928   2.207   3.092   4.894 -0.2668  3.0127  0.8063
 5479TIP3    H237929   2.321   3.087   4.993  0.4808 -1.1268 -0.0326
 5480TIP3   OH237930   5.728   0.014  16.804  0.6502 -0.6029  0.4722
 5480TIP3    H137931   5.706   0.098  16.844  3.9137 -0.6646  2.8352
 5480TIP3    H237932   5.751   0.035  16.714  0.6595  0.9322  0.8028
 5481TIP3   OH237933   2.224   1.152  16.747  1.2969  0.9352 -0.0063
 5481TIP3    H137934   2.317   1.128  16.744  1.1759  0.5308 -0.8006
 5481TIP3    H237935   2.212   1.191  16.834  1.6764 -1.1993  1.0717
 5482TIP3   OH237936   5.207   3.535  14.675 -0.4782  0.7767 -0.0443
 5482TIP3    H137937   5.292   3.578  14.689  0.6514 -1.4459  0.2958
 5482TIP3    H237938   5.181   3.506  14.762 -0.7436 -0.0529 -0.3970
 5483TIP3   OH237939   0.670   1.800   0.490 -0.6868  0.0026  0.0765
 5483TIP3    H137940   0.636   1.719   0.528 -1.3077 -0.0039 -0.4619
 5483TIP3    H237941   0.691   1.855   0.565 -1.7158 -0.0748  0.4424
 5484TIP3   OH237942   2.238   4.755   4.676  0.5014  0.3463 -0.5314
 5484TIP3    H137943   2.220   4.662   4.661  1.0368  0.0434  0.6068
 5484TIP3    H237944   2.172   4.782   4.740  0.2595  0.7934 -0.9624
 5485TIP3   OH237945   3.387   1.941   0.539  0.7955  0.1612  0.3756
 5485TIP3    H137946   3.294   1.942   0.514  0.8920 -0.0607 -0.0000
 5485TIP3    H237947   3.409   2.033   0.552 -0.0454  0.1146  2.6254
 5486TIP3   OH237948   5.778   1.602   1.382  0.2036  0.2212 -0.1405
 5486TIP3    H137949   5.816   1.686   1.354  3.2423 -0.1761  2.3453
 5486TIP3    H237950   5.735   1.622   1.465  0.2739 -0.5215  0.0808
 5487TIP3   OH237951   4.534   4.064  11.128  0.2129 -0.2786  0.0505
 5487TIP3    H137952   4.511   4.133  11.066 -1.2604 -0.3347  0.4975
 5487TIP3    H237953   4.496   3.984  11.090 -1.5617 -0.1635  1.4298
 5488TIP3   OH237954   3.403   5.189   5.460 -0.3074  0.4122 -0.1910
 5488TIP3    H137955   3.484   5.141   5.444  0.4319  0.9237  1.6728
 5488TIP3    H237956   3.358   5.190   5.376  0.9556 -1.0996 -0.9356
 5489TIP3   OH237957   5.164   1.350  11.442 -0.2656  0.1966  0.0267
 5489TIP3    H137958   5.259   1.352  11.433 -0.2428 -1.2259 -0.2084
 5489TIP3    H237959   5.143   1.435  11.481  1.1394  0.3673  0.4955
 5490TIP3   OH237960   2.649   5.125  13.566  0.3227 -0.2019 -0.6195
 5490TIP3    H137961   2.618   5.199  13.515  0.5077 -1.4580 -2.6576
 5490TIP3    H237962   2.739   5.110  13.536  0.4966 -0.8871  0.1837
 5491TIP3   OH237963   4.121   0.181   1.088  0.0096 -0.0758 -0.6243
 5491TIP3    H137964   4.216   0.188   1.079  0.0029 -0.1030 -0.7274
 5491TIP3    H237965   4.096   0.257   1.140  0.3760 -1.4592  1.6785
 5492TIP3   OH237966   5.145   0.212   6.260  0.2227  0.2952 -0.3740
 5492TIP3    H137967   5.132   0.306   6.248 -3.0720 -0.2325 -2.2978
 5492TIP3    H237968   5.144   0.199   6.354  0.5679  2.1473 -0.0764
 5493TIP3   OH237969   5.882   1.674   5.146 -0.0444 -0.3880 -0.6035
 5493TIP3    H137970   5.851   1.623   5.070  0.2998  0.2713 -1.1983
 5493TIP3    H237971   5.955   1.623   5.180  1.0265  0.2440 -1.8803
 5494TIP3   OH237972   1.445   5.932   0.235 -0.5948  0.0778  0.1080
 5494TIP3    H137973   1.386   6.006   0.251 -0.1695  0.4631 -0.0905
 5494TIP3    H237974   1.531   5.962   0.265 -0.6393 -0.7742  1.1759
 5495TIP3   OH237975   3.488   2.919  15.295  0.9695 -0.4586  0.6608
 5495TIP3    H137976   3.519   2.829  15.289  1.2744 -0.3986  1.3026
 5495TIP3    H237977   3.453   2.927  15.384 -1.1282 -0.5947 -0.0862
 5496TIP3   OH237978   1.216   1.531  13.007  0.3098 -0.1881 -0.2323
 5496TIP3    H137979   1.289   1.517  12.947  1.4487  1.7978  0.5795
 5496TIP3    H237980   1.151   1.466  12.981  1.0946  0.0018 -3.0151
 5497TIP3   OH237981   1.570   0.322  15.677  0.7830 -0.6902  0.1044
 5497TIP3    H137982   1.522   0.334  15.595  0.2926 -1.0711  0.3331
 5497TIP3    H237983   1.512   0.358  15.744 -0.7300 -4.0815  0.8220
 5498TIP3   OH237984   1.941   0.441   2.963  0.5897  0.5946  0.5421
 5498TIP3    H137985   1.943   0.510   3.029 -1.2167  0.0213  1.2314
 5498TIP3    H237986   1.981   0.365   3.005 -1.5983 -0.1188  1.4560
 5499TIP3   OH237987   1.694   2.554  14.604 -0.4115  0.2106 -0.4549
 5499TIP3    H137988   1.709   2.617  14.533  0.0644  0.0176 -0.5287
 5499TIP3    H237989   1.637   2.488  14.566 -0.8941  0.5799 -0.3848
 5500TIP3   OH237990   2.347   5.733  14.452 -0.2218 -0.4579 -0.1535
 5500TIP3    H137991   2.405   5.786  14.397 -1.0020 -0.4649 -1.0092
 5500TIP3    H237992   2.400   5.710  14.528  0.6023  0.2935 -0.4891
 5501TIP3   OH237993   5.527   5.831   4.667 -0.5339 -0.7426  0.2742
 5501TIP3    H137994   5.588   5.830   4.593 -0.9354  0.7804 -0.1180
 5501TIP3    H237995   5.458   5.892   4.640  0.3854  1.5483  2.6974
 5502TIP3   OH237996   2.018   1.915  13.832 -0.5072 -0.1380 -0.2296
 5502TIP3    H137997   1.971   1.967  13.766 -2.2283 -1.4212 -0.1039
 5502TIP3    H237998   2.088   1.872  13.783 -1.5904 -0.8544 -1.2271
 5503TIP3   OH237999   4.112   4.316  14.737 -0.3710  0.6014 -0.5329
 5503TIP3    H138000   4.133   4.365  14.816 -0.1983 -0.5700  0.1610
 5503TIP3    H238001   4.018   4.331  14.724 -0.6045  0.0446  0.4320
 5504TIP3   OH238002   6.805   5.595   2.101 -0.3340  0.1156 -0.3243
 5504TIP3    H138003   6.829   5.536   2.173 -0.6691  0.6035  0.1968
 5504TIP3    H238004   6.736   5.650   2.137  0.6711  1.5149 -0.4735
 5505TIP3   OH238005   0.775   1.180  16.867 -0.6177 -0.4711 -0.2080
 5505TIP3    H138006   0.802   1.093  16.838  0.7427  0.0261 -0.5029
 5505TIP3    H238007   0.852   1.215  16.912 -0.6997  1.0864 -1.2141
 5506TIP3   OH238008   0.557   1.454   0.210 -0.0551  0.4324  0.0351
 5506TIP3    H138009   0.465   1.473   0.226 -0.5081 -0.4878 -1.2845
 5506TIP3    H238010   0.598   1.453   0.297 -1.5043 -0.2324  0.7335
 5507TIP3   OH238011   5.641   1.300   5.807  0.3014 -0.1995 -0.1271
 5507TIP3    H138012   5.706   1.238   5.775 -0.1376 -0.6928 -0.0797
 5507TIP3    H238013   5.619   1.353   5.730  0.9617  0.1592 -0.0736
 5508TIP3   OH238014   2.986   3.612   3.152 -0.5651  0.3956  0.4793
 5508TIP3    H138015   2.935   3.531   3.140 -0.0143  0.2398 -1.1120
 5508TIP3    H238016   2.925   3.681   3.126 -0.2972  0.2784 -0.5247
 5509TIP3   OH238017   6.785   4.620  13.454 -0.0037 -0.1119  0.7805
 5509TIP3    H138018   6.779   4.589  13.364  1.4359  0.2133  0.5498
 5509TIP3    H238019   6.878   4.616  13.475  0.0124  2.1424  1.4023
 5510TIP3   OH238020   6.575   2.729  13.472 -0.2536  1.0944  0.3315
 5510TIP3    H138021   6.543   2.642  13.447 -1.7096  1.3792  1.1404
 5510TIP3    H238022   6.612   2.716  13.560  1.3274  0.9131 -0.3219
 5511TIP3   OH238023   1.431   1.856  16.141 -0.0847  0.1430 -0.1002
 5511TIP3    H138024   1.501   1.907  16.181  2.0874 -2.1456 -0.7402
 5511TIP3    H238025   1.425   1.890  16.051  0.4807  0.0936 -0.1573
 5512TIP3   OH238026   4.831   1.261  13.575  0.7911 -0.2417 -0.5301
 5512TIP3    H138027   4.800   1.194  13.513  0.3032 -0.4648 -0.0579
 5512TIP3    H238028   4.860   1.211  13.652 -0.8701  0.1327  0.3895
 5513TIP3   OH238029   5.458   5.195  13.587 -0.4821 -0.3590 -0.0146
 5513TIP3    H138030   5.382   5.151  13.548 -0.9085 -0.8129  1.2909
 5513TIP3    H238031   5.482   5.140  13.662 -0.6025  1.2569  1.2516
 5514TIP3   OH238032   3.526   3.416  10.547 -0.1222  0.4909 -0.2184
 5514TIP3    H138033   3.456   3.373  10.596 -1.0568  1.7619 -0.3789
 5514TIP3    H238034   3.499   3.410  10.455 -0.1006  1.0915 -0.2712
 5515TIP3   OH238035   5.936   0.578   6.368  0.0633  0.1462 -0.4096
 5515TIP3    H138036   5.958   0.488   6.395  0.0811  0.6218  1.2716
 5515TIP3    H238037   5.880   0.567   6.292 -0.2021 -1.3187 -0.0354
 5516TIP3   OH238038   2.779   3.286   2.696 -0.7265 -0.5688  0.2722
 5516TIP3    H138039   2.868   3.299   2.726 -0.5174 -0.4238 -0.3895
 5516TIP3    H238040   2.725   3.292   2.775 -0.3697  1.3911  0.4180
 5517TIP3   OH238041   3.365   3.995  13.482  0.0333  0.2744  0.0310
 5517TIP3    H138042   3.441   3.961  13.435 -0.3992 -1.0262  0.2364
 5517TIP3    H238043   3.380   3.971  13.573  0.6533  2.3977  0.5434
 5518TIP3   OH238044   3.627   2.842   0.057  0.1373  0.4791 -0.7335
 5518TIP3    H138045   3.578   2.924   0.070 -0.3252 -0.0002  0.7347
 5518TIP3    H238046   3.707   2.853   0.109 -0.5745 -0.5119  0.6307
 5519TIP3   OH238047   3.894   5.879   5.741 -0.3646  0.2293  0.1508
 5519TIP3    H138048   3.859   5.946   5.799  2.1004  1.1571  0.7056
 5519TIP3    H238049   3.989   5.882   5.755  0.0794 -1.4310 -1.8986
 5520TIP3   OH238050   1.709   3.548  11.928  0.0142  0.1308 -0.3182
 5520TIP3    H138051   1.648   3.569  11.999 -0.0154  0.3869 -0.4172
 5520TIP3    H238052   1.712   3.627  11.875 -0.2009 -0.1701 -0.7808
 5521TIP3   OH238053   0.054   4.233   1.734  0.4114  0.5283 -0.0758
 5521TIP3    H138054   0.065   4.291   1.658 -0.4782 -0.3242 -0.8857
 5521TIP3    H238055  -0.022   4.270   1.780  0.5099  0.6312  0.0042
 5522TIP3   OH238056   3.202   6.668   2.312  0.3015 -0.1814  1.0880
 5522TIP3    H138057   3.290   6.639   2.338  0.6878  1.0316  1.2224
 5522TIP3    H238058   3.145   6.594   2.331  1.4054 -1.2909  0.2845
 5523TIP3   OH238059   4.724   0.176   0.455 -0.6265  0.3976 -0.5273
 5523TIP3    H138060   4.768   0.183   0.370  0.5662  1.5118  0.1563
 5523TIP3    H238061   4.640   0.222   0.443 -0.1013  1.2839 -0.8784
 5524TIP3   OH238062   0.603   1.636  11.664 -0.3954 -0.1511 -0.2776
 5524TIP3    H138063   0.581   1.727  11.687  2.2037  0.2075  1.1122
 5524TIP3    H238064   0.601   1.589  11.747 -1.8717 -1.4594 -1.0099
 5525TIP3   OH238065   2.780   0.994   1.794  0.1599 -0.0927  0.2183
 5525TIP3    H138066   2.816   1.064   1.848  2.4021 -1.0071  0.0186
 5525TIP3    H238067   2.685   1.007   1.799  0.4486  2.2321  1.0989
 5526TIP3   OH238068   1.771   3.701  10.985 -0.1045  0.1121 -0.1560
 5526TIP3    H138069   1.834   3.636  11.016  0.2792  1.6120  2.4989
 5526TIP3    H238070   1.822   3.758  10.928 -0.1583 -1.1385 -1.5134
 5527TIP3   OH238071   3.589   5.008  12.240 -0.1240 -0.0477 -1.0215
 5527TIP3    H138072   3.516   4.959  12.277  0.1041  1.4849  1.7573
 5527TIP3    H238073   3.667   4.961  12.269  0.0377  0.5489 -0.4595
 5528TIP3   OH238074   4.076   1.013   0.546  0.4490  0.3599 -0.3534
 5528TIP3    H138075   3.991   0.972   0.542 -0.2702  1.7391 -0.0242
 5528TIP3    H238076   4.119   0.990   0.464  0.6072 -2.0424  0.3293
 5529TIP3   OH238077   4.533   2.067  10.728 -0.1688 -0.1154  0.0562
 5529TIP3    H138078   4.597   2.130  10.762 -1.2780  0.5068  1.0944
 5529TIP3    H238079   4.475   2.050  10.802 -0.7511 -1.2585 -0.6348
 5530TIP3   OH238080   1.405   2.852   4.569 -0.1719 -0.0609  0.1109
 5530TIP3    H138081   1.327   2.848   4.625  0.0031 -0.0079  0.3595
 5530TIP3    H238082   1.374   2.824   4.483 -0.4030 -0.3119  0.2760
 5531TIP3   OH238083   1.943   1.230   2.279  0.1121 -0.0871 -0.3892
 5531TIP3    H138084   1.892   1.164   2.327 -0.1457  1.0071  0.9098
 5531TIP3    H238085   1.943   1.199   2.189 -1.4842 -0.9616 -0.1322
 5532TIP3   OH238086   5.731   5.445  12.387  0.1101 -0.1432  0.4723
 5532TIP3    H138087   5.798   5.458  12.320 -1.4737 -1.2339 -1.4036
 5532TIP3    H238088   5.673   5.520  12.379 -0.1315 -0.3166  0.5625
 5533TIP3   OH238089   3.962   0.601   2.709 -0.6921 -0.2436  0.0353
 5533TIP3    H138090   3.926   0.609   2.797 -0.6746  0.1674  0.0062
 5533TIP3    H238091   3.886   0.584   2.654 -0.4930 -2.5737  0.3877
 5534TIP3   OH238092   5.273   3.618   3.135 -0.0045 -0.1228  0.2056
 5534TIP3    H138093   5.282   3.599   3.042  1.3313 -0.2919  0.3416
 5534TIP3    H238094   5.180   3.607   3.154 -0.0385 -1.7046 -0.7651
 5535TIP3   OH238095   3.476   6.646  15.034  0.4285 -0.0587  0.2795
 5535TIP3    H138096   3.409   6.591  14.996  1.9231 -1.4921 -0.4141
 5535TIP3    H238097   3.484   6.721  14.975  0.4205 -0.6005 -0.4107
 5536TIP3   OH238098   2.908   0.545  12.025 -0.1277  0.0330 -0.2193
 5536TIP3    H138099   2.908   0.630  12.068 -0.6936 -0.7179  1.3595
 5536TIP3    H238100   2.850   0.556  11.950 -1.3154  0.6911  0.7517
 5537TIP3   OH238101   1.962   4.724   4.783  0.0143  0.3277  0.0797
 5537TIP3    H138102   1.940   4.815   4.763 -0.7998 -0.1174 -1.1519
 5537TIP3    H238103   1.882   4.687   4.819 -0.6973 -0.7070 -2.3566
 5538TIP3   OH238104   3.972   3.584  12.676 -0.2139  0.0174  0.7512
 5538TIP3    H138105   4.028   3.651  12.713  0.7394 -1.5699  2.3264
 5538TIP3    H238106   4.033   3.523  12.633 -0.8964 -0.7645  0.8722
 5539TIP3   OH238107   0.636   5.621   1.137 -0.0256  0.1718  0.3303
 5539TIP3    H138108   0.684   5.643   1.217  0.2617 -1.0893  0.5229
 5539TIP3    H238109   0.698   5.637   1.066 -0.5167  1.9944  0.2794
 5540TIP3   OH238110   3.580   1.854  11.456  0.3030 -0.0643  0.0381
 5540TIP3    H138111   3.511   1.914  11.429  0.0112 -0.6470 -0.5574
 5540TIP3    H238112   3.561   1.773  11.408  1.1127 -0.3905  0.2510
 5541TIP3   OH238113   0.919   3.953   5.749  0.0489 -0.4323 -0.2550
 5541TIP3    H138114   0.844   3.902   5.776  0.1591 -0.7563 -0.5582
 5541TIP3    H238115   0.971   3.964   5.829 -1.4671  1.8097  0.5209
 5542TIP3   OH238116   6.162   4.397   2.333  0.1544 -0.4458  0.0879
 5542TIP3    H138117   6.175   4.303   2.349  1.9916 -0.1630  0.4784
 5542TIP3    H238118   6.213   4.440   2.401  1.9921  0.8119 -1.9439
 5543TIP3   OH238119   2.531   1.987  15.174  0.1458 -0.4668 -0.0114
 5543TIP3    H138120   2.616   1.973  15.132  0.3392  0.9240 -0.1221
 5543TIP3    H238121   2.553   2.008  15.265  0.0128  1.0261 -0.3030
 5544TIP3   OH238122   1.196   3.555  14.636 -0.1269  0.1037 -0.1225
 5544TIP3    H138123   1.135   3.594  14.699 -1.3404  0.9743 -1.7672
 5544TIP3    H238124   1.142   3.502  14.579  0.7540  0.3130 -1.1839
 5545TIP3   OH238125   3.642   2.398   2.459 -0.0454 -0.2364 -0.0391
 5545TIP3    H138126   3.599   2.343   2.524  0.1641  0.9530  1.1632
 5545TIP3    H238127   3.583   2.473   2.447  0.1271 -0.2253 -0.9007
 5546TIP3   OH238128   4.961   3.073  15.589 -0.1768 -0.0922  0.0181
 5546TIP3    H138129   4.893   3.027  15.539 -0.0099 -0.0638 -0.2339
 5546TIP3    H238130   4.971   3.021  15.668 -1.2643  0.4926  0.5642
 5547TIP3   OH238131   4.566   6.126   4.497  1.1247 -0.1189 -0.0340
 5547TIP3    H138132   4.656   6.118   4.527  1.3538  1.4425 -0.2196
 5547TIP3    H238133   4.568   6.198   4.433 -0.3606  0.4272  0.4918
 5548TIP3   OH238134   6.749   3.876   1.379 -0.2464  0.5802  0.5415
 5548TIP3    H138135   6.767   3.966   1.352  1.0413  0.3850  0.6707
 5548TIP3    H238136   6.704   3.884   1.463 -1.1684  1.1118  0.0158
 5549TIP3   OH238137   3.347   5.815   3.946 -0.2037  0.1819  0.0633
 5549TIP3    H138138   3.362   5.824   3.852  0.7486  1.1118  0.2834
 5549TIP3    H238139   3.297   5.734   3.955  1.3012 -0.9140 -1.0762
 5550TIP3   OH238140   0.959   2.701   0.430 -0.1837  0.0929  0.1291
 5550TIP3    H138141   0.958   2.627   0.370 -0.5609  0.4672 -0.3394
 5550TIP3    H238142   1.049   2.734   0.426 -0.2724  0.2852 -0.4578
 5551TIP3   OH238143   2.354   1.441  12.826 -0.3285 -0.9828 -0.1548
 5551TIP3    H138144   2.373   1.415  12.735 -0.1700 -1.1028 -0.0876
 5551TIP3    H238145   2.311   1.526  12.818  0.6638 -0.4715 -0.2846
 5552TIP3   OH238146   2.288   0.674  12.701  0.1803  0.3311  0.3895
 5552TIP3    H138147   2.280   0.757  12.749 -0.5403  1.4909 -1.6249
 5552TIP3    H238148   2.382   0.656  12.701  0.3714  1.2792  0.6574
 5553TIP3   OH238149   1.761   2.059  11.837  0.2359  0.4876 -0.6446
 5553TIP3    H138150   1.710   1.979  11.847  0.9020  0.2081  0.7977
 5553TIP3    H238151   1.797   2.075  11.924  1.3610  1.5023 -1.2714
 5554TIP3   OH238152   1.705   2.445  11.941  0.4180 -0.1868 -0.2505
 5554TIP3    H138153   1.692   2.537  11.921  0.0630 -0.6519 -2.4280
 5554TIP3    H238154   1.624   2.403  11.913  1.3108 -1.4016 -1.1046
 5555TIP3   OH238155   5.896   2.445  12.670  0.6444  0.3679 -0.0537
 5555TIP3    H138156   5.909   2.459  12.764  2.0334 -1.1235  0.0241
 5555TIP3    H238157   5.984   2.436  12.635  0.1097 -2.9464 -0.8208
 5556TIP3   OH238158   3.963   3.213  15.142  0.1634 -0.3098  0.2720
 5556TIP3    H138159   3.901   3.144  15.120 -0.2628  0.2661 -0.3724
 5556TIP3    H238160   4.048   3.169  15.143 -0.0378 -0.7490 -0.6541
 5557TIP3   OH238161   4.222   3.382   5.333 -0.6320 -0.4685 -0.2573
 5557TIP3    H138162   4.162   3.402   5.405 -1.6819  1.6078 -1.6235
 5557TIP3    H238163   4.299   3.436   5.350 -0.6058 -0.4785 -0.3451
 5558TIP3   OH238164   4.624   5.316  16.309 -0.0315 -0.7014  0.2556
 5558TIP3    H138165   4.583   5.365  16.380  0.4202  2.0637 -1.2229
 5558TIP3    H238166   4.660   5.384  16.251  2.1714 -2.8618 -1.1228
 5559TIP3   OH238167   0.117   2.328   5.803  0.3462 -0.1011 -0.1999
 5559TIP3    H138168   0.198   2.370   5.773  0.1452 -0.5128 -1.3793
 5559TIP3    H238169   0.102   2.257   5.740 -0.0593 -1.0772  0.9597
 5560TIP3   OH238170   1.201   4.545  16.116 -0.2300  0.1146  0.6647
 5560TIP3    H138171   1.207   4.640  16.106  0.4379  0.1948  1.6702
 5560TIP3    H238172   1.192   4.512  16.026  1.5489  1.0124  0.1053
 5561TIP3   OH238173   6.710   0.637  12.241 -0.0180 -0.0867  0.2889
 5561TIP3    H138174   6.768   0.673  12.308  0.0963 -1.0043  0.7007
 5561TIP3    H238175   6.767   0.580  12.189 -0.0179  0.8969 -0.8401
 5562TIP3   OH238176   5.570   4.478   5.107 -0.0788 -0.1985  0.1138
 5562TIP3    H138177   5.523   4.503   5.027  0.0896 -0.7308 -0.1567
 5562TIP3    H238178   5.632   4.549   5.121 -0.7249  0.3418  0.2794
 5563TIP3   OH238179   3.188   4.052   1.414 -0.7978  0.3590  0.2385
 5563TIP3    H138180   3.225   4.072   1.328 -1.8164  1.3214  0.0080
 5563TIP3    H238181   3.199   4.133   1.464 -0.4383 -0.1170  0.9463
 5564TIP3   OH238182   1.541   1.332  14.763 -0.0993 -0.7309 -0.3794
 5564TIP3    H138183   1.491   1.339  14.844  0.8857  0.7273  0.1524
 5564TIP3    H238184   1.607   1.264  14.782  0.2777 -0.2302  0.1401
 5565TIP3   OH238185   2.482   2.292   2.470  0.5107 -0.1763 -0.0138
 5565TIP3    H138186   2.388   2.311   2.473  0.3073 -1.0875 -0.1649
 5565TIP3    H238187   2.508   2.317   2.381  0.2211 -0.7118 -0.2558
 5566TIP3   OH238188   2.777   3.199  16.512  0.2499  0.4190 -0.1161
 5566TIP3    H138189   2.867   3.184  16.540  0.0217 -0.4727  0.1561
 5566TIP3    H238190   2.726   3.196  16.593 -0.1519 -0.1102 -0.3830
 5567TIP3   OH238191   1.229   2.352  14.646  0.1481  0.3642  0.9876
 5567TIP3    H138192   1.269   2.438  14.644 -0.4381  0.6638  1.6415
 5567TIP3    H238193   1.286   2.297  14.592  1.9582  0.5563  2.5854
 5568TIP3   OH238194   0.933   3.112   4.184  0.1067 -0.3585 -0.4122
 5568TIP3    H138195   0.875   3.158   4.245 -0.5672 -2.0504  0.2929
 5568TIP3    H238196   1.015   3.161   4.187 -0.1881  0.0878  1.2441
 5569TIP3   OH238197   1.778   5.120  11.680 -0.4249 -0.0905 -0.2397
 5569TIP3    H138198   1.790   5.027  11.699  1.2812  0.1075 -0.1852
 5569TIP3    H238199   1.704   5.146  11.735 -2.2968 -1.8327 -1.7891
 5570TIP3   OH238200   4.254   2.571  14.430 -0.3087 -0.0038 -0.0521
 5570TIP3    H138201   4.347   2.550  14.425 -0.2148  0.5625 -1.2120
 5570TIP3    H238202   4.251   2.654  14.478 -0.1986  0.0199 -0.0846
 5571TIP3   OH238203   2.433   3.108   4.390 -0.3378 -0.1284 -0.1854
 5571TIP3    H138204   2.466   3.185   4.343  0.2976 -0.4826 -0.3391
 5571TIP3    H238205   2.456   3.034   4.334 -1.2562 -0.4052 -0.2046
 5572TIP3   OH238206   3.947   5.293  15.636  0.1408  0.7013 -0.5934
 5572TIP3    H138207   4.015   5.288  15.703 -0.8028 -0.2663  0.3334
 5572TIP3    H238208   3.950   5.383  15.606  0.1117  1.3765  1.2879
 5573TIP3   OH238209   3.668   4.396   2.263 -0.3599  0.3031 -0.6038
 5573TIP3    H138210   3.597   4.344   2.225  0.9033 -1.5412 -0.5738
 5573TIP3    H238211   3.681   4.358   2.350  1.4622 -0.2440 -1.0706
 5574TIP3   OH238212   3.603   2.503   0.586  0.3973 -0.1016  0.5182
 5574TIP3    H138213   3.646   2.445   0.649  1.6681  0.5382  0.2888
 5574TIP3    H238214   3.596   2.587   0.631 -0.3099 -0.0994  0.4177
 5575TIP3   OH238215   5.975   5.213   2.464  0.5096 -0.0521  0.7373
 5575TIP3    H138216   5.949   5.276   2.531  0.3878  1.7738 -0.9187
 5575TIP3    H238217   6.068   5.230   2.450  0.6428 -0.7389  0.7765
 5576TIP3   OH238218   4.200   4.293  11.097  0.0786  0.5890  0.0624
 5576TIP3    H138219   4.289   4.329  11.102  0.3270 -0.0842  0.5968
 5576TIP3    H238220   4.176   4.274  11.187  0.5142 -1.8915 -0.2765
 5577TIP3   OH238221   4.743   1.193  11.890  0.6457 -0.6942  0.8523
 5577TIP3    H138222   4.775   1.262  11.947  1.6852 -1.4798  1.2399
 5577TIP3    H238223   4.819   1.165  11.840  0.5976 -2.5400  1.7244
 5578TIP3   OH238224   6.584   6.456  14.970  0.1707  0.0114  0.3983
 5578TIP3    H138225   6.505   6.510  14.971  0.3886  0.3277  0.9041
 5578TIP3    H238226   6.594   6.430  14.878 -0.7809 -0.4252  0.4041
 5579TIP3   OH238227   3.629   2.752   5.132 -0.1917 -0.1016  0.0304
 5579TIP3    H138228   3.658   2.661   5.142  2.4842  0.7427  0.6743
 5579TIP3    H238229   3.704   2.797   5.094 -1.2906  1.9701  0.1750
 5580TIP3   OH238230   4.692   0.217  12.097 -0.0035 -0.1449 -0.3465
 5580TIP3    H138231   4.628   0.150  12.123  1.4370 -0.9603  1.3143
 5580TIP3    H238232   4.713   0.263  12.179  0.6715  0.8913 -1.0728
 5581TIP3   OH238233   4.063   5.113   6.141 -0.1025  0.2055 -0.7072
 5581TIP3    H138234   4.138   5.065   6.176 -1.5576 -1.0516  0.8713
 5581TIP3    H238235   4.094   5.148   6.058  2.6155  0.8032  0.4238
 5582TIP3   OH238236   5.864   3.451  13.607 -0.0336 -0.0247  0.1571
 5582TIP3    H138237   5.796   3.510  13.572  0.5115  0.9545  0.7142
 5582TIP3    H238238   5.943   3.475  13.559  0.0773 -0.6902  0.0002
 5583TIP3   OH238239   4.759   6.094  13.378  0.7363 -0.2877  0.3302
 5583TIP3    H138240   4.664   6.100  13.392  0.6779 -0.7090  0.1341
 5583TIP3    H238241   4.776   6.152  13.304  0.6747  0.0088  0.5466
 5584TIP3   OH238242   6.712   1.625   3.697 -0.1331 -0.3416  0.0792
 5584TIP3    H138243   6.677   1.592   3.614 -1.1396 -0.1443  0.4045
 5584TIP3    H238244   6.761   1.551   3.733 -0.0670 -0.5764 -0.4809
 5585TIP3   OH238245   1.545   0.333  14.928  0.0276  0.0151 -0.0658
 5585TIP3    H138246   1.515   0.310  15.016 -0.5129 -1.5524 -0.6224
 5585TIP3    H238247   1.636   0.362  14.940 -0.3777  0.8625  1.1227
 5586TIP3   OH238248   2.442   0.434  11.929 -0.5556 -0.0102  0.0824
 5586TIP3    H138249   2.468   0.367  11.992  1.5250  0.9249  0.2971
 5586TIP3    H238250   2.442   0.389  11.844  0.3164 -0.4048  0.2882
 5587TIP3   OH238251   6.037   6.350  16.557 -0.3644  0.2739  0.2224
 5587TIP3    H138252   6.041   6.434  16.511  0.1566  0.4125  0.5099
 5587TIP3    H238253   6.122   6.310  16.542 -0.5280 -0.0990  0.2843
 5588TIP3   OH238254   1.178   1.666   5.044 -0.3384  0.3156  1.0245
 5588TIP3    H138255   1.229   1.596   5.083  0.4486 -0.7454 -1.7126
 5588TIP3    H238256   1.090   1.655   5.081  0.5818  0.1571  3.3124
 5589TIP3   OH238257   2.987   4.974   4.991  0.1761  0.3935  0.3160
 5589TIP3    H138258   2.982   5.044   4.925 -0.3073 -0.2464 -0.3454
 5589TIP3    H238259   3.080   4.954   4.998  0.1507 -0.4240 -1.1707
 5590TIP3   OH238260   5.333   5.729   5.167  0.0005 -0.4041 -0.0828
 5590TIP3    H138261   5.410   5.682   5.135 -0.9361  0.1228 -3.5812
 5590TIP3    H238262   5.259   5.673   5.142 -0.9208  0.9874 -0.6405
 5591TIP3   OH238263   5.577   4.765   1.692  0.3654  0.4569 -0.6304
 5591TIP3    H138264   5.533   4.682   1.674 -0.7708  1.2894 -1.8244
 5591TIP3    H238265   5.670   4.747   1.676  0.4681 -1.1895  1.4396
 5592TIP3   OH238266   0.565   2.693  16.261  0.0571 -0.1229 -0.3914
 5592TIP3    H138267   0.640   2.634  16.260  0.0000 -0.1933 -0.9508
 5592TIP3    H238268   0.500   2.649  16.315 -0.3408 -1.0406 -1.5749
 5593TIP3   OH238269   0.271   0.733   0.073 -0.1305  0.0100  0.0511
 5593TIP3    H138270   0.189   0.742   0.025 -0.4038 -0.5591  0.4059
 5593TIP3    H238271   0.246   0.742   0.165  0.1673 -0.4067  0.1745
 5594TIP3   OH238272   5.119   3.149   4.060  1.4289 -0.3478 -0.1359
 5594TIP3    H138273   5.031   3.138   4.095  0.7533  1.9248 -0.9557
 5594TIP3    H238274   5.174   3.092   4.114 -0.4658 -1.5720  0.5869
 5595TIP3   OH238275   1.530   0.989  15.120 -0.3782 -0.1141  0.2142
 5595TIP3    H138276   1.497   1.063  15.171 -1.9780 -0.2320 -0.5809
 5595TIP3    H238277   1.527   0.915  15.182 -0.7602  0.0704  0.4214
 5596TIP3   OH238278   4.350   5.340  12.527 -0.0391 -0.3480  0.1794
 5596TIP3    H138279   4.425   5.375  12.575 -2.2912  3.0835  1.5568
 5596TIP3    H238280   4.309   5.278  12.587 -0.2612  0.4529  0.8637
 5597TIP3   OH238281   5.054   0.816   5.922 -0.3128  0.1416 -0.1709
 5597TIP3    H138282   4.991   0.827   5.850 -0.9523  0.2298  0.3830
 5597TIP3    H238283   5.111   0.892   5.916 -1.9704  1.5808  0.9543
 5598TIP3   OH238284   5.864   6.474   1.811 -0.3975  0.4204  0.1188
 5598TIP3    H138285   5.843   6.408   1.745 -0.4469  1.7417 -1.2375
 5598TIP3    H238286   5.959   6.467   1.823 -0.3286  0.4505 -0.4007
 5599TIP3   OH238287   1.708   0.457  12.047  0.0097  0.0373  0.1932
 5599TIP3    H138288   1.777   0.459  11.981  2.1845  1.8202  2.3129
 5599TIP3    H238289   1.728   0.380  12.100  0.9198  0.9994  1.2881
 5600TIP3   OH238290   1.663   6.158   4.578 -0.1531  0.3888  0.1652
 5600TIP3    H138291   1.610   6.229   4.615  2.5007  2.2213  0.6563
 5600TIP3    H238292   1.698   6.194   4.496  1.2386 -0.3322  0.4232
 5601TIP3   OH238293   1.471   2.384  17.048  0.0058  0.3137  0.6978
 5601TIP3    H138294   1.494   2.470  17.085  0.7468  0.3967  0.0664
 5601TIP3    H238295   1.405   2.404  16.982  1.0896  0.5646 -0.3399
 5602TIP3   OH238296   1.596   5.979  16.187  0.0346  0.1482  0.5138
 5602TIP3    H138297   1.507   6.011  16.203 -0.5945 -1.3219  0.0697
 5602TIP3    H238298   1.639   5.983  16.272 -0.1799  1.5948  0.5902
 5603TIP3   OH238299   0.434   6.810   4.022 -0.3245  0.2366  0.1686
 5603TIP3    H138300   0.413   6.817   3.929  0.3049  1.3820  0.0970
 5603TIP3    H238301   0.403   6.892   4.060 -1.2885 -0.5459  1.1299
 5604TIP3   OH238302   5.090   4.393   4.959 -0.5241  0.1035 -0.6377
 5604TIP3    H138303   5.120   4.466   5.014 -0.6011 -1.3453  1.4410
 5604TIP3    H238304   5.065   4.324   5.021 -0.1622 -1.8322 -2.5087
 5605TIP3   OH238305   4.032   5.665  12.488  0.6361  0.1074 -0.3202
 5605TIP3    H138306   4.064   5.623  12.567 -1.2540 -0.1190  0.3633
 5605TIP3    H238307   4.108   5.714  12.455  1.6423 -0.3141  1.2499
 5606TIP3   OH238308   2.785   5.090  16.600 -0.5970  0.0608 -0.3830
 5606TIP3    H138309   2.725   5.081  16.526  0.2115  0.3569 -1.0872
 5606TIP3    H238310   2.815   5.181  16.595 -1.1489  0.3264  0.7934
 5607TIP3   OH238311   3.187   2.869   5.253 -0.3557 -0.6067  0.1618
 5607TIP3    H138312   3.278   2.864   5.224 -0.7459 -0.4987 -1.1693
 5607TIP3    H238313   3.137   2.888   5.173 -1.4400  0.4029  1.0311
 5608TIP3   OH238314   4.199   1.879  16.581  0.2136 -0.1776 -0.4303
 5608TIP3    H138315   4.294   1.880  16.569  0.5019 -1.4121  1.2562
 5608TIP3    H238316   4.173   1.789  16.561 -0.2013 -0.4939  1.3047
 5609TIP3   OH238317   4.550   4.240  15.085  0.0304  0.7053 -0.4525
 5609TIP3    H138318   4.636   4.278  15.102  0.0839  0.4346 -0.0858
 5609TIP3    H238319   4.568   4.148  15.064 -0.1257  0.7873 -0.9482
 5610TIP3   OH238320   2.205   1.601   3.733  0.1355  0.3043  0.1299
 5610TIP3    H138321   2.143   1.651   3.680  0.7842  0.0252 -0.9283
 5610TIP3    H238322   2.178   1.510   3.721  2.3865 -0.1155 -2.6801
 5611TIP3   OH238323   3.761   5.746  14.190 -0.0918 -0.2608 -0.2934
 5611TIP3    H138324   3.694   5.803  14.154 -1.1837 -0.4314  1.3723
 5611TIP3    H238325   3.713   5.682  14.243  1.2648 -1.3877 -0.3604
 5612TIP3   OH238326   0.283   3.363  13.580  0.4328  0.2213  0.2137
 5612TIP3    H138327   0.229   3.427  13.627 -0.5071 -0.5556  0.2186
 5612TIP3    H238328   0.358   3.413  13.549 -0.6349  1.5042 -0.4103
 5613TIP3   OH238329   6.104   4.668  12.194 -0.1185 -0.0660 -0.1654
 5613TIP3    H138330   6.102   4.683  12.099 -0.3816  0.6424 -0.0522
 5613TIP3    H238331   6.041   4.597  12.208 -0.9188  0.5784 -0.3940
 5614TIP3   OH238332   3.516   2.857  13.794  0.5851 -0.9046 -0.2370
 5614TIP3    H138333   3.610   2.877  13.793  0.3654  0.7467  2.3652
 5614TIP3    H238334   3.479   2.913  13.726  1.0853  1.3871  1.2538
 5615TIP3   OH238335   4.270   2.471  12.135  0.0758  0.1073  0.1246
 5615TIP3    H138336   4.289   2.538  12.201  0.8347 -1.1842  1.2487
 5615TIP3    H238337   4.204   2.415  12.176 -0.0389 -0.2559 -0.5424
 5616TIP3   OH238338   2.504   0.593   3.746  0.2545  0.6466 -0.1939
 5616TIP3    H138339   2.500   0.517   3.687  1.4425 -0.7962  1.4681
 5616TIP3    H238340   2.452   0.567   3.822 -0.7898  2.2427 -0.3233
 5617TIP3   OH238341   2.459   2.721   2.397 -0.1002  0.0890  0.2075
 5617TIP3    H138342   2.371   2.718   2.361 -0.1148  1.8236  0.0353
 5617TIP3    H238343   2.494   2.806   2.370  1.7144 -0.6384  0.0843
 5618TIP3   OH238344   1.445   1.138  12.229 -0.1631 -0.3760  0.7390
 5618TIP3    H138345   1.403   1.111  12.147  1.6046  2.0170 -1.1085
 5618TIP3    H238346   1.498   1.063  12.255 -0.6049 -1.1104 -0.4287
 5619TIP3   OH238347   4.219   5.810   0.071  0.0039  0.1157  0.0904
 5619TIP3    H138348   4.183   5.898   0.061 -0.0153  0.1404  0.3807
 5619TIP3    H238349   4.249   5.806   0.162 -1.6163 -0.7653  0.6288
 5620TIP3   OH238350   0.756   2.404  12.330 -0.0715 -0.0235  0.0403
 5620TIP3    H138351   0.700   2.371  12.260  0.1952 -1.8055  0.6374
 5620TIP3    H238352   0.748   2.340  12.400  0.7654  1.0056  1.1235
 5621TIP3   OH238353   0.427   2.602  11.819  0.5722 -0.3388 -0.1471
 5621TIP3    H138354   0.507   2.553  11.838 -0.3796 -2.3040 -0.8577
 5621TIP3    H238355   0.356   2.540  11.839 -0.8395  1.5957  1.2267
 5622TIP3   OH238356   5.020   1.482  12.355  0.1503  0.4449 -0.1847
 5622TIP3    H138357   4.926   1.495  12.343  0.3504  1.5241 -0.7256
 5622TIP3    H238358   5.054   1.476  12.266  0.5311 -0.5292  0.0150
 5623TIP3   OH238359   5.122   3.681   0.408  0.5595  0.1945 -0.0607
 5623TIP3    H138360   5.173   3.698   0.329  0.1199 -0.6907 -0.5521
 5623TIP3    H238361   5.095   3.589   0.400  1.2919 -0.2003  1.5561
 5624TIP3   OH238362   5.300   2.098   0.853  0.4539  0.0365 -0.5323
 5624TIP3    H138363   5.221   2.058   0.816  0.2020 -0.6458  0.6962
 5624TIP3    H238364   5.353   2.024   0.881  0.5371  0.5212  0.6533
 5625TIP3   OH238365   3.620   5.880  12.677 -0.0738  0.1214  0.0013
 5625TIP3    H138366   3.554   5.862  12.744  0.7254 -3.4518 -0.0057
 5625TIP3    H238367   3.702   5.848  12.713  0.7764  0.0209 -1.8750
 5626TIP3   OH238368   6.597   0.433   1.644 -0.2110 -0.3340  0.2421
 5626TIP3    H138369   6.532   0.366   1.665  0.6537 -1.0513  0.6933
 5626TIP3    H238370   6.675   0.406   1.691  0.6829  0.0437 -0.9850
 5627TIP3   OH238371   4.512   3.799  17.056  0.1300 -0.0576 -0.2614
 5627TIP3    H138372   4.539   3.887  17.082 -0.3107 -0.3746  1.3430
 5627TIP3    H238373   4.528   3.744  17.133  0.1856 -1.3511 -1.1536
 5628TIP3   OH238374   3.428   1.219   6.062 -1.0022 -0.4714  0.0316
 5628TIP3    H138375   3.506   1.164   6.059 -1.4471 -1.0960 -0.3641
 5628TIP3    H238376   3.358   1.164   6.026 -1.7930 -0.1969  1.0877
 5629TIP3   OH238377   5.735   0.248   4.423 -0.4606  0.2492 -0.0117
 5629TIP3    H138378   5.726   0.177   4.486 -0.4641 -0.0485 -0.3435
 5629TIP3    H238379   5.719   0.207   4.338 -0.4141  0.6364 -0.2111
 5630TIP3   OH238380   5.805   4.279   5.517 -0.7563  0.3631  0.3294
 5630TIP3    H138381   5.840   4.323   5.594  0.5706 -0.8138  0.4348
 5630TIP3    H238382   5.775   4.351   5.460  2.2468  1.5357  0.0461
 5631TIP3   OH238383   3.863   5.320  14.042 -0.6382  0.1808  0.3090
 5631TIP3    H138384   3.773   5.309  14.072 -1.4719  4.1641 -0.1066
 5631TIP3    H238385   3.873   5.415  14.032  3.8085 -0.0013  0.8846
 5632TIP3   OH238386   2.800   3.882   4.908 -0.4696 -0.5469  0.1618
 5632TIP3    H138387   2.816   3.960   4.961 -1.0694  0.2443 -0.7816
 5632TIP3    H238388   2.879   3.872   4.856 -0.1684 -0.9033  0.6813
 5633TIP3   OH238389   5.646   5.235  16.694 -0.8066  0.0991 -0.1855
 5633TIP3    H138390   5.581   5.296  16.727 -0.4990  0.6975 -0.6608
 5633TIP3    H238391   5.730   5.277  16.714 -0.5979 -0.0452 -0.7418
 5634TIP3   OH238392   6.613   4.040  15.903 -1.0575  0.2049  0.1842
 5634TIP3    H138393   6.695   4.065  15.860  0.1629 -1.5143  1.3586
 5634TIP3    H238394   6.619   4.077  15.991 -0.4496 -1.7397  1.0245
 5635TIP3   OH238395   1.214   3.496  12.546  0.5255 -0.3636 -0.4433
 5635TIP3    H138396   1.246   3.584  12.569  0.1160 -0.2859 -0.1639
 5635TIP3    H238397   1.289   3.439  12.562  0.1966 -0.3620  1.4198
 5636TIP3   OH238398   4.529   3.136   4.215  0.3965  0.1865 -0.6108
 5636TIP3    H138399   4.519   3.221   4.171 -3.1383 -0.1605 -0.7262
 5636TIP3    H238400   4.526   3.072   4.144  1.4334 -0.1601 -0.3694
 5637TIP3   OH238401   4.385   5.312  10.931 -0.0280  0.3147 -0.6746
 5637TIP3    H138402   4.309   5.370  10.928 -1.8772 -1.8933  0.6072
 5637TIP3    H238403   4.374   5.252  10.857  1.5838  1.1598 -1.6702
 5638TIP3   OH238404   4.044   4.377  15.695  0.3501 -0.7266  0.0510
 5638TIP3    H138405   4.098   4.300  15.713  0.4362 -0.3949  1.2740
 5638TIP3    H238406   3.980   4.346  15.630  1.6304 -1.2695 -0.9930
 5639TIP3   OH238407   3.264   4.880   5.038 -0.3264  0.3292  0.3088
 5639TIP3    H138408   3.323   4.890   4.964  1.2535  0.8018  1.5794
 5639TIP3    H238409   3.310   4.921   5.111 -2.9421  2.2526  1.0333
 5640TIP3   OH238410   5.333   2.525   5.809 -0.2202 -0.3860  0.1757
 5640TIP3    H138411   5.363   2.581   5.738  2.4858 -1.8393  0.0535
 5640TIP3    H238412   5.266   2.577   5.854  0.3019  1.8419 -1.4592
 5641TIP3   OH238413   2.672   0.456   2.325  0.1889 -0.1170 -0.1545
 5641TIP3    H138414   2.598   0.429   2.380  1.5126 -1.8289  0.8822
 5641TIP3    H238415   2.724   0.513   2.381  0.1929  0.2586 -0.5393
 5642TIP3   OH238416   0.602   3.053  14.563  0.1133  0.2688 -0.7596
 5642TIP3    H138417   0.654   3.025  14.638  1.3147  2.0956 -0.8497
 5642TIP3    H238418   0.652   3.124  14.524 -1.6347  0.9538 -1.8981
 5643TIP3   OH238419   3.042   1.403  13.141 -0.8206  0.7724  0.6443
 5643TIP3    H138420   3.118   1.349  13.116 -0.0086  0.0675  4.1480
 5643TIP3    H238421   3.075   1.493  13.139  0.1021  0.4828  1.9917
 5644TIP3   OH238422   5.893   1.827   3.045 -0.3466 -0.1969 -0.1416
 5644TIP3    H138423   5.846   1.858   3.122  0.6864 -0.2810  0.5323
 5644TIP3    H238424   5.866   1.887   2.975  0.4746  1.3102  0.8021
 5645TIP3   OH238425   3.522   6.559   5.125 -0.1613 -0.2487 -0.0096
 5645TIP3    H138426   3.520   6.467   5.151  0.8142 -0.3443 -0.2104
 5645TIP3    H238427   3.474   6.562   5.043  2.0932 -1.1170 -1.4566
 5646TIP3   OH238428   4.302   4.352   2.527  0.0259  0.0956 -0.1297
 5646TIP3    H138429   4.251   4.293   2.472  1.3976 -0.8004 -0.5068
 5646TIP3    H238430   4.392   4.339   2.498  0.7594 -0.1533  2.0898
 5647TIP3   OH238431   5.472   2.272  14.709  0.8389 -0.0999 -0.7092
 5647TIP3    H138432   5.474   2.233  14.797  0.6804  0.8431 -0.2782
 5647TIP3    H238433   5.380   2.294  14.695  1.2920  3.0756  0.4196
 5648TIP3   OH238434   4.098   5.830   1.732  0.1504 -0.7694 -0.1949
 5648TIP3    H138435   4.069   5.914   1.696  0.4426 -0.2810  0.6936
 5648TIP3    H238436   4.058   5.765   1.674  0.8605 -0.0051 -1.5989
 5649TIP3   OH238437   2.455   6.362   1.857 -0.0147  0.2122 -0.1258
 5649TIP3    H138438   2.442   6.268   1.869  2.4955 -0.1598  0.1612
 5649TIP3    H238439   2.500   6.391   1.936  1.1639  1.2077 -1.1113
 5650TIP3   OH238440   4.523   2.411  13.128 -0.4024  0.7211 -0.7901
 5650TIP3    H138441   4.443   2.383  13.172  0.0208 -1.3128 -1.2430
 5650TIP3    H238442   4.575   2.451  13.198 -0.9574  0.2060 -0.0694
 5651TIP3   OH238443   2.065   5.966   6.906 -0.2127 -0.4883 -0.7459
 5651TIP3    H138444   2.134   5.992   6.846  1.1795 -0.4752  0.8040
 5651TIP3    H238445   2.076   5.871   6.916 -0.6094 -0.5330 -0.6903
 5652TIP3   OH238446   2.569   3.916   6.054  0.0289  0.0659  0.0660
 5652TIP3    H138447   2.533   3.884   5.971  1.7328  0.7632 -1.0010
 5652TIP3    H238448   2.661   3.931   6.035  0.6142 -0.4125  2.3159
 5653TIP3   OH238449   4.952   2.369  14.218  0.0542 -0.5782 -0.0685
 5653TIP3    H138450   4.977   2.433  14.286 -2.4126 -0.0209  0.4074
 5653TIP3    H238451   4.915   2.423  14.148  0.3147 -1.3327 -0.7899
 5654TIP3   OH238452   5.074   5.309   3.154  0.1498 -0.0403  0.3840
 5654TIP3    H138453   5.164   5.329   3.176  0.1788 -1.0590  1.2971
 5654TIP3    H238454   5.078   5.271   3.066  0.7949 -1.2653  0.9170
 5655TIP3   OH238455   3.199   0.964  13.317 -0.3080  0.0838 -0.1939
 5655TIP3    H138456   3.257   1.034  13.290  0.5737 -0.8584 -0.7962
 5655TIP3    H238457   3.111   0.995  13.294 -0.3598  2.3615  2.4555
 5656TIP3   OH238458   6.205   4.351  15.886 -0.0358 -0.1045  0.3508
 5656TIP3    H138459   6.247   4.425  15.930 -2.9193  1.4520  0.7384
 5656TIP3    H238460   6.148   4.312  15.952 -0.3171 -1.2116 -0.5119
 5657TIP3   OH238461   1.446   3.402  12.627 -0.3342 -0.6765 -0.3904
 5657TIP3    H138462   1.403   3.340  12.686 -0.7804 -1.3325 -1.3762
 5657TIP3    H238463   1.516   3.352  12.586 -1.3170 -0.8787 -1.9401
 5658TIP3   OH238464   5.503   3.628   6.170  0.0610  0.8363 -0.5635
 5658TIP3    H138465   5.596   3.646   6.183 -0.2773  1.8140  0.7792
 5658TIP3    H238466   5.501   3.555   6.108  1.7527 -0.0052  0.2912
 5659TIP3   OH238467   3.930   5.751  15.705 -0.1016 -0.2958 -0.4767
 5659TIP3    H138468   3.987   5.718  15.774  1.1853  1.0267 -0.8611
 5659TIP3    H238469   3.911   5.675  15.651  1.6509 -0.7168 -0.5613
 5660TIP3   OH238470   5.820   2.444  15.298 -0.0495  0.0481  0.0450
 5660TIP3    H138471   5.884   2.373  15.305 -1.8822 -1.6887 -0.0974
 5660TIP3    H238472   5.751   2.420  15.360 -1.5248  0.8134 -1.2474
 5661TIP3   OH238473   0.627   0.230  13.336  0.6374  0.0242  0.7970
 5661TIP3    H138474   0.627   0.316  13.292 -1.7272  0.2710  1.1641
 5661TIP3    H238475   0.685   0.242  13.411  2.6301  0.3987 -0.7221
 5662TIP3   OH238476   6.092   5.933  16.724  0.1939  0.3101  0.4101
 5662TIP3    H138477   6.030   6.006  16.723 -1.4852 -1.0398  0.3170
 5662TIP3    H238478   6.079   5.891  16.809  0.9343 -0.0613  0.3523
 5663TIP3   OH238479   2.322   1.803   4.962  0.5067 -0.1349  0.1999
 5663TIP3    H138480   2.238   1.826   5.001  0.8797  0.8318  0.4724
 5663TIP3    H238481   2.332   1.864   4.889  0.7455 -0.5792 -0.1433
 5664TIP3   OH238482   4.357   2.893  12.176  0.2856  0.3176  0.2594
 5664TIP3    H138483   4.440   2.924  12.212  0.6957 -1.1200  0.5941
 5664TIP3    H238484   4.332   2.820  12.232 -0.1657 -0.5847 -1.0651
 5665TIP3   OH238485   0.362   2.100   5.558  0.1180 -0.3435 -0.2645
 5665TIP3    H138486   0.442   2.154   5.563 -0.7092  1.1399 -1.9256
 5665TIP3    H238487   0.369   2.041   5.633  1.4694  1.5624  1.2426
 5666TIP3   OH238488   0.812   6.144   3.777  0.3823 -0.8415  0.3968
 5666TIP3    H138489   0.902   6.118   3.761  0.1915 -2.5468  1.6662
 5666TIP3    H238490   0.816   6.236   3.802  1.5179 -0.3874 -1.3292
 5667TIP3   OH238491   2.524   4.485   2.777  0.0184  0.1339 -0.1714
 5667TIP3    H138492   2.440   4.453   2.810  0.0741  1.2698  1.1681
 5667TIP3    H238493   2.589   4.426   2.813 -0.1423 -0.4637 -0.8229
 5668TIP3   OH238494   4.714   6.224  12.957  0.2461 -0.1331  0.1218
 5668TIP3    H138495   4.766   6.208  12.878 -0.7180 -0.7273 -0.4262
 5668TIP3    H238496   4.631   6.179  12.939  0.6150 -1.8020  2.1816
 5669TIP3   OH238497   6.078   2.665  16.958 -0.2698 -0.0160  0.3541
 5669TIP3    H138498   6.060   2.745  16.909 -0.9939  0.4056  1.2783
 5669TIP3    H238499   6.171   2.669  16.980 -0.1800  0.2920 -0.0763
 5670TIP3   OH238500   1.172   1.349   0.308 -0.3830  0.1944  0.1317
 5670TIP3    H138501   1.139   1.267   0.271 -2.0102  0.4659  0.9005
 5670TIP3    H238502   1.204   1.324   0.395  0.7276  0.0859 -0.2910
 5671TIP3   OH238503   0.907   0.459   3.976 -0.3336  0.1088  0.0258
 5671TIP3    H138504   0.843   0.392   3.954  0.8741 -0.8691 -0.6449
 5671TIP3    H238505   0.866   0.541   3.950 -2.3636 -0.1868  2.0220
 5672TIP3   OH238506   4.694   5.731  13.316  0.7384  0.1142 -0.1819
 5672TIP3    H138507   4.605   5.765  13.313  0.2030 -1.1737 -3.3312
 5672TIP3    H238508   4.684   5.636  13.303  2.5499  0.0805 -1.8087
 5673TIP3   OH238509   5.845   1.013   1.699  0.2593  0.1481  0.1722
 5673TIP3    H138510   5.804   0.935   1.660  1.1129  0.6628 -1.9225
 5673TIP3    H238511   5.878   0.984   1.783  1.2063 -1.9983 -0.8624
 5674TIP3   OH238512   4.045   3.764   2.898 -0.4525 -0.2679 -0.0352
 5674TIP3    H138513   3.952   3.754   2.916 -0.6492 -0.8211 -1.2301
 5674TIP3    H238514   4.064   3.698   2.831  0.4076  0.9742 -1.0773
 5675TIP3   OH238515   3.783   0.370   0.269 -0.1736 -0.3182  0.0902
 5675TIP3    H138516   3.775   0.388   0.363 -0.9016 -1.0896  0.1903
 5675TIP3    H238517   3.872   0.335   0.259  0.4922  1.2610  0.2192
 5676TIP3   OH238518   4.836   1.055  10.968  0.4407  0.1045 -0.4874
 5676TIP3    H138519   4.880   1.100  10.896  0.4215  0.9503  0.0037
 5676TIP3    H238520   4.778   0.992  10.926 -0.0840  1.0682 -1.2437
 5677TIP3   OH238521   3.485   3.644  14.343 -0.1023  0.2880  0.7316
 5677TIP3    H138522   3.572   3.670  14.314 -0.1281 -1.1005 -0.7237
 5677TIP3    H238523   3.496   3.623  14.436  0.8306  1.2682  0.8607
 5678TIP3   OH238524   0.277   4.908  12.518 -0.8302 -0.3365 -0.2980
 5678TIP3    H138525   0.212   4.909  12.447 -1.8094  0.7707  0.5623
 5678TIP3    H238526   0.309   4.998  12.522  0.2966 -0.7250 -0.2775
 5679TIP3   OH238527   0.776   2.988   2.407 -0.5761  0.0406  0.3528
 5679TIP3    H138528   0.756   2.945   2.490 -0.4112  1.4025  1.1081
 5679TIP3    H238529   0.746   2.925   2.341 -0.4853 -1.1710  1.4188
 5680TIP3   OH238530   5.887   1.999  14.312 -0.9811  0.4202  0.1179
 5680TIP3    H138531   5.865   2.004  14.405 -0.7973 -0.4186  0.2157
 5680TIP3    H238532   5.868   1.908  14.288  0.4690  0.1976 -0.2667
 5681TIP3   OH238533   5.988   5.098   4.971 -0.4966 -0.2647 -0.1657
 5681TIP3    H138534   5.939   5.038   4.915  0.5636 -0.8637 -0.4826
 5681TIP3    H238535   5.922   5.156   5.009 -1.2622  0.0769 -1.9406
 5682TIP3   OH238536   1.338   1.163   0.070  0.2506 -0.3283  0.2190
 5682TIP3    H138537   1.308   1.085   0.023 -0.8082  0.4302 -0.4211
 5682TIP3    H238538   1.375   1.129   0.151 -1.2574 -1.4426  0.4875
 5683TIP3   OH238539   1.065   3.234  12.765  0.2480 -0.1490  0.0289
 5683TIP3    H138540   0.999   3.303  12.773  1.3700  0.9079  0.5466
 5683TIP3    H238541   1.015   3.154  12.749 -1.0550  0.8904 -1.3069
 5684TIP3   OH238542   4.390   5.464   3.838  0.7417  0.3449 -0.0984
 5684TIP3    H138543   4.334   5.396   3.875  0.8461  0.7707  0.8610
 5684TIP3    H238544   4.471   5.419   3.813  0.3548 -0.0936 -0.6042
 5685TIP3   OH238545   2.441   1.671  11.806  0.3581  0.1599 -0.2218
 5685TIP3    H138546   2.483   1.757  11.807 -0.0064  0.3544 -0.7700
 5685TIP3    H238547   2.348   1.690  11.789  0.0067 -0.2480  1.1655
 5686TIP3   OH238548   5.765   5.107   2.166 -0.2707  0.3713 -0.0103
 5686TIP3    H138549   5.681   5.149   2.184 -0.1356  0.7689 -0.2866
 5686TIP3    H238550   5.771   5.106   2.070 -0.1559 -0.0441  0.0015
 5687TIP3   OH238551   1.548   4.120   2.055 -0.1169 -0.0783 -0.1759
 5687TIP3    H138552   1.580   4.209   2.066 -0.0372 -0.1997  0.6425
 5687TIP3    H238553   1.607   4.080   1.991  0.6576  0.0554  0.4406
 5688TIP3   OH238554   5.200   6.287   2.876 -0.0944  0.1395  0.6991
 5688TIP3    H138555   5.163   6.312   2.960 -1.2756  0.7896  0.0063
 5688TIP3    H238556   5.165   6.199   2.859 -0.2874  0.2304  0.6311
 5689TIP3   OH238557   6.318   5.600  10.927 -0.1365  0.7022  0.2242
 5689TIP3    H138558   6.257   5.527  10.914  0.2771  0.3532  0.2347
 5689TIP3    H238559   6.339   5.631  10.839  0.3832  0.2267  0.1741
 5690TIP3   OH238560   1.847   4.744  13.591  0.1278  0.0464 -0.1777
 5690TIP3    H138561   1.845   4.833  13.554 -0.8621  0.8515  1.6691
 5690TIP3    H238562   1.798   4.691  13.528  0.4984  0.8490 -1.1800
 5691TIP3   OH238563   6.673   4.365   1.837  0.4430 -0.3189 -0.2220
 5691TIP3    H138564   6.727   4.393   1.910 -0.7392 -0.2102  0.6294
 5691TIP3    H238565   6.594   4.418   1.843 -0.5086 -1.6748 -0.4070
 5692TIP3   OH238566   5.722   5.028  11.717 -0.5269  0.4499  0.1096
 5692TIP3    H138567   5.803   4.979  11.731  0.1190  1.2479 -0.7080
 5692TIP3    H238568   5.653   4.970  11.749  0.2560 -0.7717 -0.3554
 5693TIP3   OH238569   5.616   0.776  15.500  0.2705 -0.0821  0.1473
 5693TIP3    H138570   5.632   0.691  15.459  0.9680  0.0821  0.0630
 5693TIP3    H238571   5.562   0.756  15.577  3.4217 -1.1263  2.2740
 5694TIP3   OH238572   4.520   3.624  12.229  0.1999  0.4829  0.5616
 5694TIP3    H138573   4.442   3.608  12.282  0.5109 -1.0074  0.6325
 5694TIP3    H238574   4.545   3.714  12.248  0.1735  0.0813  2.8153
 5695TIP3   OH238575   6.625   6.123  13.080  0.2942  0.4923  0.2963
 5695TIP3    H138576   6.574   6.066  13.138 -1.6258  1.0480 -0.7431
 5695TIP3    H238577   6.697   6.069  13.049 -1.9461 -1.7431 -1.3745
 5696TIP3   OH238578   4.495   2.604   1.480  0.3046  0.0296 -0.4166
 5696TIP3    H138579   4.500   2.574   1.571  0.5322 -0.5937 -0.6265
 5696TIP3    H238580   4.403   2.626   1.467 -0.0429 -1.3160 -0.4646
 5697TIP3   OH238581   4.132   4.858  12.056 -0.7098 -0.5032 -0.0021
 5697TIP3    H138582   4.074   4.834  11.984 -0.6591  0.0592 -0.2402
 5697TIP3    H238583   4.168   4.775  12.087  0.3727 -0.6739 -1.5721
 5698TIP3   OH238584   6.733   1.307   3.764  0.8058 -0.0130  0.5245
 5698TIP3    H138585   6.804   1.284   3.703 -0.1669  0.5632 -0.8838
 5698TIP3    H238586   6.667   1.239   3.751 -0.5448  1.4863 -1.0623
 5699TIP3   OH238587   0.007   5.417  17.082  0.2649 -0.2668  0.6602
 5699TIP3    H138588  -0.040   5.339  17.114  0.9338 -0.7870  0.4127
 5699TIP3    H238589   0.100   5.392  17.086  0.4155 -0.3453 -1.5597
 5700TIP3   OH238590   6.238   1.012  15.773  0.4971 -0.2754  0.6844
 5700TIP3    H138591   6.180   0.965  15.832 -0.8250  1.2415  0.6702
 5700TIP3    H238592   6.216   1.105  15.786  2.0857  0.2662 -0.2037
 5701TIP3   OH238593   3.480   5.834   0.506  0.1680  0.3973 -0.0796
 5701TIP3    H138594   3.560   5.781   0.503 -0.4014 -0.5102  0.4465
 5701TIP3    H238595   3.418   5.782   0.556 -0.3150  1.7136  0.7511
 5702TIP3   OH238596   5.176   6.668  14.840  0.4489 -0.5703  0.3993
 5702TIP3    H138597   5.092   6.648  14.881  1.2494 -1.9666  1.4931
 5702TIP3    H238598   5.166   6.643  14.749 -0.0516 -1.6174  0.7305
 5703TIP3   OH238599   1.967   2.117   1.139  0.2554  0.3314  0.1408
 5703TIP3    H138600   1.887   2.105   1.088 -0.2735 -0.1341  1.0620
 5703TIP3    H238601   1.970   2.042   1.197  0.3154  1.3562  1.5010
 5704TIP3   OH238602   1.347   4.200   5.400 -0.5453 -0.1542  0.0072
 5704TIP3    H138603   1.390   4.277   5.439  0.1512 -1.0086  0.9652
 5704TIP3    H238604   1.393   4.125   5.438 -0.9802 -1.0510 -1.1929
 5705TIP3   OH238605   1.527   6.737   3.901  0.1725  0.2325  0.0932
 5705TIP3    H138606   1.481   6.801   3.955  0.4224  2.8968 -2.5540
 5705TIP3    H238607   1.611   6.723   3.945  0.2859  2.1330  0.5672
 5706TIP3   OH238608   0.275   0.239   5.095  0.3151  0.3020  0.0669
 5706TIP3    H138609   0.218   0.181   5.045  2.0706 -0.8797 -0.6604
 5706TIP3    H238610   0.317   0.295   5.029  0.2122  0.9851  0.5638
 5707TIP3   OH238611   3.647   4.128   3.298 -0.2730 -0.5652  0.3229
 5707TIP3    H138612   3.701   4.103   3.223 -0.1729  0.2506  0.1126
 5707TIP3    H238613   3.694   4.201   3.338 -0.6048 -0.6400  0.8620
 5708TIP3   OH238614   3.048   1.302  16.191  0.6492 -0.2196  0.0261
 5708TIP3    H138615   3.037   1.382  16.242  0.0008  0.5934 -1.3249
 5708TIP3    H238616   3.082   1.332  16.107  0.4468 -1.3729 -0.4804
 5709TIP3   OH238617   5.926   4.183   2.122 -0.4424 -0.5403  0.8299
 5709TIP3    H138618   5.974   4.236   2.187  0.4585 -0.0876 -0.1723
 5709TIP3    H238619   5.952   4.093   2.141 -0.7997 -0.4970  1.5819
 5710TIP3   OH238620   1.329   2.958   5.099  0.3561  0.0487  0.4857
 5710TIP3    H138621   1.375   3.042   5.111  2.0182 -0.5334 -1.2146
 5710TIP3    H238622   1.288   2.966   5.013  0.4313 -0.8330  0.3608
 5711TIP3   OH238623   4.671   6.315   4.778 -0.2153 -0.1203  0.3494
 5711TIP3    H138624   4.642   6.224   4.770  0.1555 -0.2638  0.6227
 5711TIP3    H238625   4.745   6.312   4.838 -1.3248  0.5809  1.8174
 5712TIP3   OH238626   0.632   0.988  10.984 -0.3885 -0.1290 -0.3980
 5712TIP3    H138627   0.563   1.049  11.011 -1.3715 -0.5577 -1.8396
 5712TIP3    H238628   0.609   0.905  11.026 -0.6621 -0.2317 -0.7501
 5713TIP3   OH238629   5.247   1.620  13.123 -0.2474 -0.7805 -0.0996
 5713TIP3    H138630   5.291   1.687  13.176 -0.6630  0.0458 -0.7722
 5713TIP3    H238631   5.189   1.575  13.185  0.9037 -1.3289  0.6191
 5714TIP3   OH238632   5.591   6.217   5.998  0.6621  0.2001  0.0456
 5714TIP3    H138633   5.631   6.183   6.078  0.3611  2.6972  1.3463
 5714TIP3    H238634   5.658   6.273   5.959  0.9019 -1.1870 -1.6680
 5715TIP3   OH238635   0.883   0.234   2.833 -0.1793  0.1997 -0.3661
 5715TIP3    H138636   0.924   0.183   2.902 -1.9761  0.5628  1.0472
 5715TIP3    H238637   0.794   0.200   2.827 -0.8890  1.9456 -0.5956
 5716TIP3   OH238638   4.425   6.121   0.219 -0.3045 -0.1324  0.0627
 5716TIP3    H138639   4.505   6.174   0.216 -1.0737  1.3060  2.3375
 5716TIP3    H238640   4.456   6.032   0.239  0.7631  0.2826  0.3365
 5717TIP3   OH238641   1.851   2.786   0.481  0.2225  0.5591  0.0553
 5717TIP3    H138642   1.813   2.757   0.564 -1.1469 -1.0482 -1.0648
 5717TIP3    H238643   1.779   2.828   0.435  0.7163  0.5857 -0.7088
 5718TIP3   OH238644   5.801   5.796  12.892 -0.6747 -0.1735 -0.6739
 5718TIP3    H138645   5.793   5.730  12.960 -0.1357  0.2112 -0.2348
 5718TIP3    H238646   5.894   5.794  12.867 -0.3568  1.3671  0.3105
 5719TIP3   OH238647   5.190   3.396   3.947 -0.6724 -0.1420  0.8285
 5719TIP3    H138648   5.142   3.327   3.993  0.5256 -1.1898  0.5762
 5719TIP3    H238649   5.279   3.361   3.937 -0.4503  0.7532 -0.7530
 5720TIP3   OH238650   6.421   0.723  12.790 -0.1332 -0.2437  0.3294
 5720TIP3    H138651   6.390   0.681  12.709  0.5759 -0.3690  0.1214
 5720TIP3    H238652   6.469   0.800  12.760  0.3451 -0.4281  0.6168
 5721TIP3   OH238653   0.790   3.575   0.701  0.4532  0.3661  0.0778
 5721TIP3    H138654   0.719   3.624   0.660  1.5157  1.2727 -0.7299
 5721TIP3    H238655   0.748   3.530   0.775 -0.5810  2.4548  0.8608
 5722TIP3   OH238656   2.023   0.290   0.561 -0.0800 -0.1930 -0.2956
 5722TIP3    H138657   1.966   0.226   0.517 -0.0753 -0.7563  0.4937
 5722TIP3    H238658   1.967   0.330   0.627  0.6050 -1.3326  1.0506
 5723TIP3   OH238659   5.277   5.701   6.620  0.0066  0.0289  0.0791
 5723TIP3    H138660   5.293   5.682   6.528 -1.2811 -1.2147  0.0824
 5723TIP3    H238661   5.183   5.712   6.627  0.0470 -0.1967  1.2891
 5724TIP3   OH238662   2.948   1.592  14.568 -0.1038  0.5445 -0.4921
 5724TIP3    H138663   2.853   1.605  14.572 -0.4401 -1.6726 -0.0617
 5724TIP3    H238664   2.978   1.602  14.658 -0.4784 -1.9201 -0.0129
 5725TIP3   OH238665   1.413   1.421   3.372 -0.0009  0.0135  0.4730
 5725TIP3    H138666   1.370   1.421   3.287 -1.0945 -1.3765  0.9743
 5725TIP3    H238667   1.363   1.357   3.424  0.9474  0.4471  1.9895
 5726TIP3   OH238668   6.210   2.619   2.489  0.4937 -0.0584 -0.5495
 5726TIP3    H138669   6.237   2.671   2.413 -0.0865  2.1655  0.6822
 5726TIP3    H238670   6.287   2.568   2.512  1.6194  1.4109 -0.9243
 5727TIP3   OH238671   3.246   4.226   5.275 -0.1030  0.6275 -0.0252
 5727TIP3    H138672   3.313   4.255   5.214  0.1357 -1.1693 -0.6639
 5727TIP3    H238673   3.258   4.131   5.281 -0.7278  0.6384  2.0974
 5728TIP3   OH238674   3.257   2.892  10.949 -0.0807 -0.3058  0.6564
 5728TIP3    H138675   3.348   2.885  10.978  0.2997  0.1604 -0.3404
 5728TIP3    H238676   3.254   2.975  10.902 -0.7656 -0.7822 -0.1741
 5729TIP3   OH238677   4.489   1.981   1.369 -0.8085  0.0716  0.1626
 5729TIP3    H138678   4.483   2.064   1.417  2.2439  0.3656  0.2166
 5729TIP3    H238679   4.465   2.005   1.279 -1.8088  0.5842  0.5510
 5730TIP3   OH238680   3.599   0.166   5.405  0.2585  0.2776 -0.0712
 5730TIP3    H138681   3.636   0.205   5.325  2.0207  0.9529  1.0100
 5730TIP3    H238682   3.583   0.075   5.381  0.4320  0.5463 -1.2937
 5731TIP3   OH238683   4.782   2.450  15.469  0.1629  0.7188 -0.1228
 5731TIP3    H138684   4.770   2.544  15.455 -1.6197  1.1291  3.2458
 5731TIP3    H238685   4.755   2.410  15.386 -1.1942  3.0606 -0.9052
 5732TIP3   OH238686   3.653   4.990   5.723  0.3171  0.4981 -0.0353
 5732TIP3    H138687   3.736   4.947   5.702 -0.0408 -0.3838  0.3291
 5732TIP3    H238688   3.589   4.949   5.664  0.3524  2.0996 -1.2629
 5733TIP3   OH238689   4.617   1.551   2.391  0.1586 -0.0737 -0.1950
 5733TIP3    H138690   4.697   1.534   2.440  0.2165 -1.3301 -0.6844
 5733TIP3    H238691   4.635   1.519   2.302 -0.2926  1.2167 -0.7845
 5734TIP3   OH238692   4.836   5.556   5.026  0.1395 -0.1173  0.2546
 5734TIP3    H138693   4.851   5.462   5.015  0.1951 -0.2585  1.4270
 5734TIP3    H238694   4.807   5.585   4.939  0.8220 -1.0671 -0.3226
 5735TIP3   OH238695   3.661   6.712  12.839 -0.2960  0.4806 -0.0859
 5735TIP3    H138696   3.714   6.757  12.904  2.8946 -3.0922  0.1732
 5735TIP3    H238697   3.706   6.728  12.756 -0.5126 -0.2092 -0.3431
 5736TIP3   OH238698   2.088   6.075   0.970 -0.2059  0.1466 -0.4913
 5736TIP3    H138699   1.999   6.080   1.004  0.0559 -1.2384  0.4923
 5736TIP3    H238700   2.122   6.164   0.978 -1.3146  0.5821 -0.4134
 5737TIP3   OH238701   4.882   2.147  17.165  0.0977 -0.6748  0.1918
 5737TIP3    H138702   4.973   2.154  17.135  0.1196 -1.9488 -0.1124
 5737TIP3    H238703   4.876   2.058  17.202  0.1575  0.8248  4.3384
 5738TIP3   OH238704   4.689   1.817   1.543  0.0533  0.2749  0.3652
 5738TIP3    H138705   4.639   1.841   1.464  0.8626  2.1332  0.3518
 5738TIP3    H238706   4.702   1.900   1.589  0.9585 -0.5425  1.6574
 5739TIP3   OH238707   3.074   0.714  15.402 -0.5251  0.2029  0.3781
 5739TIP3    H138708   3.153   0.701  15.454 -0.2753 -1.2279 -0.3154
 5739TIP3    H238709   3.104   0.761  15.324 -0.0813 -1.4533 -0.4944
 5740TIP3   OH238710   5.276   0.214  12.409  0.5196  0.2726 -0.2172
 5740TIP3    H138711   5.216   0.288  12.401  2.0874  1.9031  1.9233
 5740TIP3    H238712   5.245   0.166  12.486  0.6219 -0.2456 -0.4906
 5741TIP3   OH238713   4.196   3.513  13.107 -0.1906 -0.0299 -0.0525
 5741TIP3    H138714   4.234   3.599  13.127 -0.4661  0.0554  0.1256
 5741TIP3    H238715   4.110   3.516  13.150  0.1497 -0.7241  0.6857
 5742TIP3   OH238716   2.717   2.643  15.573  0.3841  0.5359  0.0735
 5742TIP3    H138717   2.759   2.571  15.619 -1.2272  0.2190  1.1231
 5742TIP3    H238718   2.789   2.694  15.536  1.6310 -0.4039  1.1363
 5743TIP3   OH238719   6.679   4.986   4.455 -0.4014  0.4858 -0.0536
 5743TIP3    H138720   6.621   5.055   4.487 -0.5601 -0.1291  1.0137
 5743TIP3    H238721   6.745   4.976   4.524 -0.3768 -0.4143 -0.1998
 5744TIP3   OH238722   1.671   1.653   0.306  0.5397  0.4696 -0.2589
 5744TIP3    H138723   1.760   1.618   0.318  1.0035  1.0996 -1.6876
 5744TIP3    H238724   1.614   1.577   0.318  1.6151 -1.9094 -6.4355
 5745TIP3   OH238725   0.911   6.348   5.136  0.0985  0.0290  0.0406
 5745TIP3    H138726   0.997   6.372   5.172  0.1639 -0.0691 -0.0504
 5745TIP3    H238727   0.855   6.341   5.213  0.3944 -0.8287  0.1851
 5746TIP3   OH238728   4.363   4.974   4.743  0.0126  0.2993 -0.0855
 5746TIP3    H138729   4.442   4.949   4.789  0.6425 -0.7599 -1.6550
 5746TIP3    H238730   4.369   5.069   4.734  1.0414  0.2393 -0.0721
 5747TIP3   OH238731   2.362   3.827  16.705 -0.0039  0.4897 -0.4185
 5747TIP3    H138732   2.357   3.832  16.610 -2.0794  0.5133 -0.3626
 5747TIP3    H238733   2.354   3.918  16.735 -0.9419  0.3552 -0.2161
 5748TIP3   OH238734   1.631   1.891   4.002 -0.2453  0.1909  0.0051
 5748TIP3    H138735   1.653   1.949   3.929 -1.5476  0.4100 -0.2252
 5748TIP3    H238736   1.618   1.805   3.961  1.0175 -0.1576  0.2638
 5749TIP3   OH238737   5.832   1.009  14.253  0.4265 -0.2278  0.3610
 5749TIP3    H138738   5.886   0.946  14.301  0.1907 -1.2350 -0.6554
 5749TIP3    H238739   5.817   0.968  14.167 -1.1417  0.4610  0.2702
 5750TIP3   OH238740   6.193   1.819   1.567 -0.5582 -0.3940  0.5749
 5750TIP3    H138741   6.239   1.897   1.537  0.8119 -1.1452  0.6768
 5750TIP3    H238742   6.159   1.843   1.653  0.1597 -0.0125  0.7580
 5751TIP3   OH238743   2.026   4.712  10.886  0.1057 -0.3469 -0.3836
 5751TIP3    H138744   2.039   4.735  10.794 -0.2874 -0.3911 -0.4521
 5751TIP3    H238745   2.114   4.705  10.922  0.2525  1.7045 -0.2442
 5752TIP3   OH238746   6.076   0.867  16.515 -0.0818  0.1351 -0.8090
 5752TIP3    H138747   6.019   0.944  16.521  0.0349  0.1890 -0.3885
 5752TIP3    H238748   6.093   0.843  16.606  0.0934 -0.2325 -0.9399
 5753TIP3   OH238749   2.334   6.347  11.094 -0.2805 -0.5037 -0.2437
 5753TIP3    H138750   2.294   6.310  11.173  0.6186 -1.1151 -0.0574
 5753TIP3    H238751   2.368   6.432  11.122 -0.8920 -0.2585 -0.2443
 5754TIP3   OH238752   6.764   4.494   1.540 -0.1351  0.2743 -0.0860
 5754TIP3    H138753   6.693   4.506   1.603  1.4832  1.8240  1.5739
 5754TIP3    H238754   6.759   4.572   1.484 -1.9265 -1.3693 -2.3857
 5755TIP3   OH238755   2.891   4.450  15.159  0.4093  0.0457 -0.0280
 5755TIP3    H138756   2.938   4.533  15.167  1.0627 -0.0675 -2.0477
 5755TIP3    H238757   2.898   4.427  15.066 -1.0280 -1.5381  0.1992
 5756TIP3   OH238758   4.252   6.495  16.106  0.3553 -0.0606  0.4000
 5756TIP3    H138759   4.254   6.426  16.173 -0.5098  0.1432  0.6432
 5756TIP3    H238760   4.223   6.451  16.026  1.0639 -0.2366  0.2370
 5757TIP3   OH238761   5.443   6.060  14.803  0.0516 -0.8960 -0.2827
 5757TIP3    H138762   5.349   6.076  14.798  0.0305 -0.3922  1.1279
 5757TIP3    H238763   5.462   6.062  14.897  1.6513  0.1354 -0.5953
 5758TIP3   OH238764   0.338   5.891  11.726 -0.3569  0.2014  0.0126
 5758TIP3    H138765   0.432   5.905  11.738 -0.1910 -0.3422 -0.5762
 5758TIP3    H238766   0.310   5.964  11.670 -0.3807  0.6208  0.5677
 5759TIP3   OH238767   3.613   2.428  13.279 -0.2780  0.2250  0.3938
 5759TIP3    H138768   3.644   2.345  13.244  1.3790  2.1273 -3.1864
 5759TIP3    H238769   3.543   2.456  13.220 -0.0338  1.8858  0.8180
 5760TIP3   OH238770   2.672   6.387  14.295 -0.0323  0.6107  0.2309
 5760TIP3    H138771   2.658   6.292  14.296  1.8993  0.2896  0.7643
 5760TIP3    H238772   2.650   6.414  14.205 -1.0889 -0.2411  0.2193
 5761TIP3   OH238773   1.153   1.869  16.177  0.5542 -0.1111  0.2291
 5761TIP3    H138774   1.247   1.881  16.190  1.4235 -2.2776 -2.9756
 5761TIP3    H238775   1.123   1.951  16.139  0.9460  0.8350  1.8698
 5762TIP3   OH238776   4.757   3.772   4.195 -0.5095 -0.3350  0.2402
 5762TIP3    H138777   4.819   3.811   4.258 -0.4321  0.5304 -0.3632
 5762TIP3    H238778   4.773   3.678   4.202 -0.3646 -0.2447  1.3786
 5763TIP3   OH238779   0.028   3.697  15.100 -0.1918  0.1080  0.1531
 5763TIP3    H138780   0.119   3.689  15.130 -0.2741  1.5339  0.8703
 5763TIP3    H238781   0.027   3.780  15.052 -1.5233  1.0989  1.8029
 5764TIP3   OH238782   0.275   1.718   5.229 -0.0356 -0.4463  0.0289
 5764TIP3    H138783   0.345   1.729   5.165  0.6213  3.3308  1.1062
 5764TIP3    H238784   0.252   1.626   5.225  2.2575 -1.0325 -3.1962
 5765TIP3   OH238785   6.579   2.952   4.617  0.0871  0.1906 -0.2430
 5765TIP3    H138786   6.504   2.895   4.633 -0.6338  1.5927  1.7647
 5765TIP3    H238787   6.649   2.915   4.670 -0.2595  0.8956  0.7286
 5766TIP3   OH238788   2.011   0.927  10.654  0.1761 -0.5072  0.1163
 5766TIP3    H138789   2.084   0.905  10.712  0.5963  3.0673  1.2443
 5766TIP3    H238790   2.052   0.975  10.581 -0.9246  2.7968  1.4561
 5767TIP3   OH238791   2.860   3.280  12.869 -0.0184 -0.7786 -0.4077
 5767TIP3    H138792   2.886   3.274  12.961 -0.6698 -0.3139 -0.1823
 5767TIP3    H238793   2.764   3.279  12.872 -0.0679  0.7038 -0.9750
 5768TIP3   OH238794   2.242   4.964   0.953 -0.0857 -0.4210 -0.1641
 5768TIP3    H138795   2.308   5.001   1.012 -0.7489 -0.7775  0.8114
 5768TIP3    H238796   2.286   4.962   0.868  1.5795 -1.7246  0.6732
 5769TIP3   OH238797   6.443   0.602   3.091  0.0538  0.0596  0.0537
 5769TIP3    H138798   6.476   0.684   3.056 -0.5388  0.4177  0.3281
 5769TIP3    H238799   6.452   0.611   3.186 -1.4417  0.4365  0.1802
 5770TIP3   OH238800   1.020   2.910  11.641  0.6513 -0.2501 -0.0459
 5770TIP3    H138801   1.075   2.967  11.587  0.0099 -0.5880 -1.0639
 5770TIP3    H238802   1.038   2.938  11.731  1.1114  0.8624 -0.4734
 5771TIP3   OH238803   5.921   2.151   3.125  0.1768 -0.1051  0.1477
 5771TIP3    H138804   5.834   2.143   3.165  0.2507 -1.9260  0.0344
 5771TIP3    H238805   5.972   2.201   3.188 -1.3409  2.4876 -0.5106
 5772TIP3   OH238806   6.743   6.050  13.597  0.1072  0.0608 -0.4428
 5772TIP3    H138807   6.834   6.063  13.571  0.4794 -0.0071  0.7843
 5772TIP3    H238808   6.748   6.014  13.685 -1.0598 -1.9072 -1.1150
 5773TIP3   OH238809   6.559   0.363  12.223 -0.4131  0.2077  0.2023
 5773TIP3    H138810   6.585   0.449  12.257 -0.8222  0.0112  1.0392
 5773TIP3    H238811   6.504   0.383  12.147  1.0611  0.6434 -0.7896
 5774TIP3   OH238812   0.540   3.387   5.582  0.0171  0.0190 -0.4213
 5774TIP3    H138813   0.534   3.481   5.568  1.8700  0.1723 -0.4694
 5774TIP3    H238814   0.581   3.378   5.668  0.6351 -0.7108 -0.7743
 5775TIP3   OH238815   0.792   5.166   5.498  0.1569  0.3024 -0.2146
 5775TIP3    H138816   0.838   5.121   5.569 -0.0081 -1.0929 -0.9683
 5775TIP3    H238817   0.812   5.115   5.420 -0.9376  0.9074 -0.9164
 5776TIP3   OH238818   4.818   1.569   3.938  0.3445  0.2229  0.2238
 5776TIP3    H138819   4.881   1.511   3.896 -0.2418 -0.7347  0.6475
 5776TIP3    H238820   4.770   1.609   3.866  1.5495  1.1189 -0.1161
 5777TIP3   OH238821   0.019   2.903   1.075  0.5020 -0.2022  0.5442
 5777TIP3    H138822   0.050   2.936   1.159  1.8666  0.5414 -0.2127
 5777TIP3    H238823   0.098   2.892   1.023 -0.4475  1.9753 -1.5679
 5778TIP3   OH238824   1.076   2.027   2.507 -0.2601  0.4578  0.0715
 5778TIP3    H138825   1.055   2.029   2.414  1.1349 -1.5700 -0.3583
 5778TIP3    H238826   1.074   1.934   2.530  1.4212  0.7450  1.5685
 5779TIP3   OH238827   3.162   5.731   1.327 -0.3138  0.0389 -0.7217
 5779TIP3    H138828   3.182   5.787   1.402 -0.9850 -0.5751 -0.0740
 5779TIP3    H238829   3.071   5.707   1.338 -0.2712 -0.5080 -1.4544
 5780TIP3   OH238830   0.405   2.849  16.535 -0.1624 -0.2882  0.7536
 5780TIP3    H138831   0.344   2.804  16.476  0.0231  0.3226  0.0855
 5780TIP3    H238832   0.467   2.892  16.477  1.4853 -1.6567  1.4395
 5781TIP3   OH238833   3.617   3.950   4.433 -0.5757 -0.6184  0.0938
 5781TIP3    H138834   3.544   4.001   4.399 -0.1318  0.0812  0.1764
 5781TIP3    H238835   3.578   3.896   4.503 -0.7587  0.8169  1.1459
 5782TIP3   OH238836   1.496   2.797   3.964 -0.4669  0.0288  0.0428
 5782TIP3    H138837   1.495   2.851   4.043  0.2021  2.2137 -1.3349
 5782TIP3    H238838   1.419   2.742   3.971 -0.1209 -0.2597  2.4614
 5783TIP3   OH238839   5.429   6.498  16.691  0.0426 -0.3376  0.2741
 5783TIP3    H138840   5.410   6.463  16.778  1.6828 -0.5573  0.5782
 5783TIP3    H238841   5.502   6.558  16.705  0.1226 -0.1420 -0.9142
 5784TIP3   OH238842   3.185   4.473  17.076 -0.1224  0.1208 -0.0957
 5784TIP3    H138843   3.137   4.413  17.133  1.6260 -0.4856  0.8226
 5784TIP3    H238844   3.275   4.467  17.107 -0.0544  4.5665  1.3339
 5785TIP3   OH238845   0.495   1.099  14.201 -0.2345  0.1816 -0.2939
 5785TIP3    H138846   0.424   1.037  14.182  0.6632 -0.6236 -1.1340
 5785TIP3    H238847   0.542   1.059  14.275  0.7662 -0.5348 -1.2833
 5786TIP3   OH238848   2.278   5.545   1.593  0.1547 -0.1552  0.3805
 5786TIP3    H138849   2.196   5.502   1.572 -1.3915  2.2404  1.0697
 5786TIP3    H238850   2.284   5.618   1.531  2.4284 -0.9428 -0.4505
 5787TIP3   OH238851   5.642   5.852  14.775  0.0668  0.4621 -0.0896
 5787TIP3    H138852   5.585   5.927  14.787 -0.2427  0.1154  0.6950
 5787TIP3    H238853   5.583   5.776  14.779  0.6183  0.0692  1.2478
 5788TIP3   OH238854   5.576   1.192   4.690  0.5629  0.0320  0.5826
 5788TIP3    H138855   5.494   1.239   4.703  0.5554 -0.0361  0.7860
 5788TIP3    H238856   5.568   1.113   4.744 -0.2599 -1.2362 -1.2863
 5789TIP3   OH238857   3.953   3.274   3.671 -0.0264  0.2150  0.0046
 5789TIP3    H138858   4.005   3.198   3.648  0.9172  1.1992 -1.2422
 5789TIP3    H238859   4.010   3.327   3.727  0.6589  1.6263 -1.9130
 5790TIP3   OH238860   2.608   4.868   0.612  0.3416  0.3920  0.2287
 5790TIP3    H138861   2.633   4.955   0.645 -3.4971  2.1605 -0.9303
 5790TIP3    H238862   2.633   4.870   0.519  0.3077  0.2509  0.2170
 5791TIP3   OH238863   1.716   6.235   4.305 -0.6803  0.2042 -0.3639
 5791TIP3    H138864   1.640   6.178   4.317  0.1249 -0.6841  0.6946
 5791TIP3    H238865   1.681   6.313   4.261 -2.1881 -0.1841  0.1049
 5792TIP3   OH238866   3.845   5.167   0.858  0.3530  0.3365  0.1520
 5792TIP3    H138867   3.912   5.109   0.894  2.4533  1.0070 -2.3547
 5792TIP3    H238868   3.853   5.155   0.763 -1.2964  2.4159 -0.2953
 5793TIP3   OH238869   5.802   4.113  13.063 -0.3360 -0.2850  0.4363
 5793TIP3    H138870   5.777   4.161  12.985  0.3247 -0.8809 -0.1510
 5793TIP3    H238871   5.720   4.102  13.112 -0.6942  0.3603 -0.0070
 5794TIP3   OH238872   2.138   0.675   4.228 -0.4727 -0.2498  0.4405
 5794TIP3    H138873   2.219   0.717   4.256 -0.8943  2.1280 -1.4975
 5794TIP3    H238874   2.094   0.742   4.175 -3.4565 -1.6265  0.9550
 5795TIP3   OH238875   6.195   6.105  15.314  0.1200 -0.3394  0.8369
 5795TIP3    H138876   6.155   6.079  15.398  1.1195 -1.3751  1.0199
 5795TIP3    H238877   6.140   6.064  15.248 -0.5406  0.2901  0.9804
 5796TIP3   OH238878   2.220   4.145   1.292 -0.2797  0.5043 -1.0572
 5796TIP3    H138879   2.299   4.164   1.344 -0.7608  0.1924 -0.1868
 5796TIP3    H238880   2.151   4.195   1.334 -0.7526 -0.0419 -1.1749
 5797TIP3   OH238881   1.182   1.000  13.549 -0.3521 -0.1561  0.4386
 5797TIP3    H138882   1.235   0.932  13.590 -0.4102 -1.0846 -0.9404
 5797TIP3    H238883   1.160   1.060  13.620 -0.5255 -1.7134  1.7556
 5798TIP3   OH238884   0.442   4.974  13.031 -0.0238 -0.0617 -0.5849
 5798TIP3    H138885   0.444   4.885  12.997 -2.7977 -0.3268 -0.3399
 5798TIP3    H238886   0.439   4.963  13.126 -1.5300  0.1677 -0.5733
 5799TIP3   OH238887   4.125   6.750  15.380 -0.6445  0.5004 -0.3691
 5799TIP3    H138888   4.142   6.825  15.437 -0.4328 -0.6055  1.0742
 5799TIP3    H238889   4.032   6.732  15.393 -0.2345 -0.8155  1.0172
 5800TIP3   OH238890   1.272   0.476   0.689  0.0394  0.3462 -0.2350
 5800TIP3    H138891   1.326   0.554   0.678 -0.0621  0.5715  0.7978
 5800TIP3    H238892   1.332   0.412   0.728  0.5156 -0.5797 -2.3343
 5801TIP3   OH238893   4.748   5.535   1.619 -0.4688 -0.1614  0.0266
 5801TIP3    H138894   4.798   5.576   1.548 -0.6792 -0.0337 -0.0492
 5801TIP3    H238895   4.730   5.606   1.680 -1.7166  0.0898 -0.6045
 5802TIP3   OH238896   6.505   1.027  13.512  0.2547  0.1121 -1.0514
 5802TIP3    H138897   6.534   1.084  13.583  2.0933 -0.6904 -1.1006
 5802TIP3    H238898   6.559   1.053  13.437  0.1276 -0.7672 -1.4596
 5803TIP3   OH238899   4.076   3.220  11.160 -0.0039 -0.0409 -0.2302
 5803TIP3    H138900   4.059   3.210  11.253  1.1391 -1.6244 -0.1397
 5803TIP3    H238901   4.024   3.151  11.119  1.1301 -0.7492 -0.5304
 5804TIP3   OH238902   4.630   6.364   5.141 -0.1452 -0.3099 -0.8666
 5804TIP3    H138903   4.544   6.404   5.143 -0.3627 -0.7599  1.1003
 5804TIP3    H238904   4.617   6.280   5.097 -0.5713 -0.1158 -1.1165
 5805TIP3   OH238905   2.466   0.222   2.096 -0.1016  0.0065 -0.4017
 5805TIP3    H138906   2.537   0.270   2.053 -1.1909  1.5705 -0.5298
 5805TIP3    H238907   2.387   0.254   2.053 -0.9360 -1.3100  0.1145
 5806TIP3   OH238908   2.143   4.110  14.513  0.0622  0.6008 -0.0355
 5806TIP3    H138909   2.212   4.043  14.510 -0.1511  0.3949 -0.5905
 5806TIP3    H238910   2.191   4.193  14.521  0.2787  0.2974  3.0141
 5807TIP3   OH238911   4.819   3.923  11.351  0.3732  0.2096  0.4406
 5807TIP3    H138912   4.899   3.964  11.318  0.9692 -0.1302  1.4179
 5807TIP3    H238913   4.809   3.844  11.299  0.4042  0.5016 -0.0123
 5808TIP3   OH238914   0.878   5.757  12.876  0.0491 -0.2545 -0.0840
 5808TIP3    H138915   0.951   5.782  12.932  0.5981 -0.5537 -0.6423
 5808TIP3    H238916   0.916   5.752  12.788 -0.5276 -0.9142 -0.3078
 5809TIP3   OH238917   2.914   1.573   1.310 -0.3428  0.1843  0.2862
 5809TIP3    H138918   2.888   1.558   1.401 -0.3029 -0.1899  0.2385
 5809TIP3    H238919   2.865   1.508   1.260 -0.2504  0.2902  0.0579
 5810TIP3   OH238920   6.052   5.472   0.867 -0.1585 -0.2817 -0.0192
 5810TIP3    H138921   6.012   5.469   0.780  0.8300  0.8859 -0.5515
 5810TIP3    H238922   6.017   5.396   0.913 -2.5500  0.3701 -0.6286
 5811TIP3   OH238923   3.981   3.515  11.769 -0.3991 -0.7122 -0.3241
 5811TIP3    H138924   4.019   3.601  11.752  0.9578 -1.2199  0.0354
 5811TIP3    H238925   3.950   3.484  11.684 -3.0398  1.0629 -0.1381
 5812TIP3   OH238926   1.394   6.475  17.240  0.4108  0.2479  0.1384
 5812TIP3    H138927   1.426   6.517  17.161 -0.7042  1.1137  0.1222
 5812TIP3    H238928   1.433   6.387  17.238  2.5823  1.1392  0.0459
 5813TIP3   OH238929   0.888   1.457   1.491 -0.3262 -0.5082 -0.3798
 5813TIP3    H138930   0.839   1.461   1.409 -0.2879 -0.5257 -0.4036
 5813TIP3    H238931   0.825   1.484   1.558  0.4309  2.5457 -0.7429
 5814TIP3   OH238932   3.158   4.630   4.989 -0.3122 -0.5047 -0.4121
 5814TIP3    H138933   3.210   4.572   5.045  0.3729  0.9194  0.4860
 5814TIP3    H238934   3.192   4.717   5.006 -2.1850  0.3488 -0.7180
 5815TIP3   OH238935   4.790   2.059   4.146  0.1420  0.0982 -0.4092
 5815TIP3    H138936   4.781   2.034   4.054  1.2170 -0.2213 -0.4373
 5815TIP3    H238937   4.783   1.977   4.194  0.2810  0.1755 -0.2562
 5816TIP3   OH238938   3.249   6.176  16.755  0.8065  0.5251  0.3332
 5816TIP3    H138939   3.282   6.119  16.686 -0.2038  1.4173 -0.9291
 5816TIP3    H238940   3.171   6.133  16.788  1.6451 -0.2296  1.4323
 5817TIP3   OH238941   6.019   1.989   3.399 -0.1870  0.4747  0.4487
 5817TIP3    H138942   5.944   2.032   3.358 -0.2123 -0.8513 -0.9560
 5817TIP3    H238943   6.093   2.014   3.344  0.0360 -0.0583  0.5045
 5818TIP3   OH238944   5.838   1.390   2.859 -0.3904 -0.1490  0.8313
 5818TIP3    H138945   5.844   1.469   2.805 -0.3031 -1.1139 -0.6358
 5818TIP3    H238946   5.838   1.422   2.949  1.6001  1.4377  0.3508
 5819TIP3   OH238947   0.470   3.977  13.379  0.0385 -0.4557 -0.1951
 5819TIP3    H138948   0.520   3.969  13.298  0.1743 -0.3298 -0.1232
 5819TIP3    H238949   0.386   4.016  13.352  1.4287  3.2210  0.2052
 5820TIP3   OH238950   3.243   6.447  11.805 -0.3055  0.5178 -0.2620
 5820TIP3    H138951   3.163   6.396  11.816  0.3002 -0.0841  1.7844
 5820TIP3    H238952   3.274   6.425  11.717 -2.6821  1.2794 -1.3782
 5821TIP3   OH238953   3.883   6.325  14.113  0.3783  0.2878  0.5140
 5821TIP3    H138954   3.907   6.271  14.038 -0.2266 -0.5477  0.9031
 5821TIP3    H238955   3.913   6.413  14.090  2.2949 -0.3785  0.2959
 5822TIP3   OH238956   6.795   5.674  13.163  0.4900 -0.3677  0.1639
 5822TIP3    H138957   6.809   5.757  13.208  0.7301 -0.1179 -0.3605
 5822TIP3    H238958   6.714   5.688  13.113  0.3572 -0.5580  0.3258
 5823TIP3   OH238959   4.237   5.114  11.371  0.0349  0.5433  0.2513
 5823TIP3    H138960   4.313   5.159  11.408 -0.5506  1.3322  0.5022
 5823TIP3    H238961   4.187   5.182  11.326  0.0393 -0.1590 -0.8759
 5824TIP3   OH238962   1.503   6.048  11.509 -0.2880  0.0397 -0.1009
 5824TIP3    H138963   1.433   6.098  11.552  0.2920  0.9630 -0.2106
 5824TIP3    H238964   1.499   6.075  11.418 -0.2080 -0.3973 -0.2359
 5825TIP3   OH238965   2.516   2.701  15.777  0.2844  0.4173 -0.1904
 5825TIP3    H138966   2.590   2.719  15.719 -1.1619  1.4795 -1.8092
 5825TIP3    H238967   2.453   2.656  15.721 -1.5670  2.3348  0.2181
 5826TIP3   OH238968   4.051   2.682   6.241  1.0071  0.5078  0.5242
 5826TIP3    H138969   4.070   2.604   6.189  1.7494  1.1393 -0.1879
 5826TIP3    H238970   4.067   2.656   6.331  0.5882 -0.3496  0.3606
 5827TIP3   OH238971   3.478   5.587  11.999  0.0080  0.6388 -0.3178
 5827TIP3    H138972   3.503   5.536  11.922 -0.5194 -0.5929  0.2870
 5827TIP3    H238973   3.515   5.538  12.072 -2.6811 -0.3809  0.5016
 5828TIP3   OH238974   4.348   0.157  16.034 -0.1742  0.0084  0.0149
 5828TIP3    H138975   4.378   0.067  16.051  0.8962  0.4813  0.7644
 5828TIP3    H238976   4.287   0.149  15.961  1.1631 -1.1349 -1.0263
 5829TIP3   OH238977   6.738   5.015   4.911  0.3302  0.0933  0.1784
 5829TIP3    H138978   6.645   4.997   4.901  0.2491  0.5804  0.0529
 5829TIP3    H238979   6.758   5.080   4.844  1.0203 -0.8918 -0.6051
 5830TIP3   OH238980   1.877   3.669  13.114  0.6528 -0.0553  0.8252
 5830TIP3    H138981   1.883   3.755  13.156 -0.7959  0.4950 -0.0262
 5830TIP3    H238982   1.902   3.684  13.023 -0.4391 -0.3270  0.4578
 5831TIP3   OH238983   2.087   2.543   0.645 -0.5011 -0.1683 -0.9456
 5831TIP3    H138984   2.025   2.490   0.694 -0.9203  0.7744 -0.4204
 5831TIP3    H238985   2.170   2.533   0.691 -0.8915  0.7098 -0.0073
 5832TIP3   OH238986   2.315   5.610   2.206  0.2514 -0.4292 -0.0598
 5832TIP3    H138987   2.368   5.535   2.178  3.0549  1.1208  0.7310
 5832TIP3    H238988   2.307   5.600   2.301  0.4131  0.1299  0.0165
 5833TIP3   OH238989   1.406   6.486   5.739  0.0277  0.2542  0.1073
 5833TIP3    H138990   1.478   6.423   5.743 -0.2521 -0.0066  2.8992
 5833TIP3    H238991   1.339   6.442   5.687  1.1383 -0.2669 -0.9495
 5834TIP3   OH238992   2.463   4.218  13.236  0.0410  0.6634  0.5302
 5834TIP3    H138993   2.391   4.260  13.283 -1.0740 -1.9891  1.3321
 5834TIP3    H238994   2.445   4.125  13.242  1.0438  0.0652 -3.3430
 5835TIP3   OH238995   4.337   6.148  10.741 -0.6761 -0.0142 -0.5359
 5835TIP3    H138996   4.298   6.216  10.685 -1.4251  0.5159  0.5936
 5835TIP3    H238997   4.288   6.069  10.719 -1.0805  0.2279 -0.5159
 5836TIP3   OH238998   0.687   4.417   6.007 -0.0348  0.4816  0.2414
 5836TIP3    H138999   0.746   4.475   6.055  0.6315  0.3483 -0.3864
 5836TIP3    H239000   0.628   4.476   5.960 -1.2269  0.6079  1.8278
 5837TIP3   OH239001   0.028   0.022   3.544 -0.3808 -0.8349 -0.8009
 5837TIP3    H139002  -0.033   0.004   3.473 -0.6899 -1.6589 -0.3405
 5837TIP3    H239003   0.036  -0.061   3.591 -0.9979 -0.0716  0.7448
 5838TIP3   OH239004   0.557   3.206  15.626 -0.3898 -0.3984 -0.0114
 5838TIP3    H139005   0.480   3.184  15.573  0.0117  1.5871 -1.5044
 5838TIP3    H239006   0.539   3.164  15.711 -1.9037 -2.1272 -1.0885
 5839TIP3   OH239007   3.636   3.934   0.354 -0.0711 -0.1748  0.0973
 5839TIP3    H139008   3.586   3.891   0.285 -1.3555  0.5444  0.5473
 5839TIP3    H239009   3.692   3.865   0.390 -2.5978 -1.7591  1.3182
 5840TIP3   OH239010   1.296   3.989   1.949 -0.0281 -0.3072 -0.0716
 5840TIP3    H139011   1.284   3.992   1.854  3.0226 -0.3323 -0.5720
 5840TIP3    H239012   1.380   4.031   1.963  0.4135 -1.8332  2.4466
 5841TIP3   OH239013   3.602   3.664  11.365  0.0172 -0.3018  0.2213
 5841TIP3    H139014   3.574   3.573  11.364 -0.0811 -0.2702 -0.2266
 5841TIP3    H239015   3.554   3.705  11.292  1.3270 -0.2867 -0.6728
 5842TIP3   OH239016   3.621   2.938   1.103 -0.3395 -0.0701 -0.3124
 5842TIP3    H139017   3.628   2.922   1.197  1.0453 -1.4860 -0.5975
 5842TIP3    H239018   3.529   2.921   1.082 -0.1118 -2.6091  0.3709
 5843TIP3   OH239019   1.569   0.827   5.367 -0.2988 -0.4214  0.5519
 5843TIP3    H139020   1.501   0.775   5.323 -0.3027  0.7912 -0.9165
 5843TIP3    H239021   1.561   0.914   5.329 -0.4262  0.7721  3.0981
 5844TIP3   OH239022   5.186   2.129   3.072  0.4136 -0.6011  0.1553
 5844TIP3    H139023   5.213   2.216   3.100  1.2781 -0.4029 -1.2162
 5844TIP3    H239024   5.116   2.145   3.008  0.6661 -0.9097 -0.1991
 5845TIP3   OH239025   3.579   1.031  13.653 -0.1274  0.3483  0.0173
 5845TIP3    H139026   3.552   1.001  13.566 -1.2395 -0.6867  0.6825
 5845TIP3    H239027   3.617   0.953  13.694 -0.4982  0.5768  0.7980
 5846TIP3   OH239028   1.629   6.194   2.012 -0.0752 -0.5892 -0.4404
 5846TIP3    H139029   1.551   6.182   1.958 -0.0796 -0.8534 -0.3765
 5846TIP3    H239030   1.596   6.226   2.096 -0.1013 -0.5531 -0.4644
 5847TIP3   OH239031   3.064   4.656   2.202 -0.7084  0.7689 -0.3631
 5847TIP3    H139032   3.132   4.667   2.136 -0.1096  1.2861  0.3257
 5847TIP3    H239033   2.982   4.672   2.155 -0.2620  1.6656 -0.8581
 5848TIP3   OH239034   2.763   2.085   5.151 -0.0166 -0.1595  0.5519
 5848TIP3    H139035   2.723   2.004   5.183  0.2758  0.5824  2.9577
 5848TIP3    H239036   2.809   2.121   5.226 -1.2940  2.9747 -0.0267
 5849TIP3   OH239037   6.017   0.799  10.650 -0.2041 -0.3735  0.0935
 5849TIP3    H139038   6.012   0.715  10.696  0.3548 -0.3693  0.1687
 5849TIP3    H239039   6.046   0.861  10.717  0.8505 -0.4130 -0.3119
 5850TIP3   OH239040   3.525   6.557  13.036  0.0653  0.4945  0.2062
 5850TIP3    H139041   3.494   6.634  13.083 -1.9460  0.2401 -0.6144
 5850TIP3    H239042   3.555   6.591  12.952 -1.7337  0.3322 -0.5460
 5851TIP3   OH239043   5.344   4.902  11.514  0.5332 -0.8288  0.7309
 5851TIP3    H139044   5.406   4.865  11.451 -0.4999  0.0101 -0.8296
 5851TIP3    H239045   5.287   4.829  11.537 -0.0666 -0.7691 -0.5420
 5852TIP3   OH239046   0.159   0.657  16.946 -0.1385 -0.3903 -0.4190
 5852TIP3    H139047   0.093   0.692  17.006  0.8590  1.7009 -0.4280
 5852TIP3    H239048   0.153   0.562  16.956 -1.4583 -0.1796  1.3845
 5853TIP3   OH239049   1.693   0.434   0.512  0.1573 -0.2922 -1.2053
 5853TIP3    H139050   1.629   0.396   0.572  0.6535 -0.2172 -0.6172
 5853TIP3    H239051   1.716   0.362   0.454 -0.1281 -0.4434 -1.1340
 5854TIP3   OH239052   2.860   4.111   5.095 -0.3730 -0.2822  0.3031
 5854TIP3    H139053   2.949   4.144   5.108 -0.0761 -1.4643  1.4556
 5854TIP3    H239054   2.810   4.188   5.068  0.8935  0.4960  0.0856
 5855TIP3   OH239055   2.636   6.807   2.834 -0.6429 -0.7744  0.6022
 5855TIP3    H139056   2.711   6.850   2.791 -1.1123  0.7700  1.2330
 5855TIP3    H239057   2.674   6.766   2.912 -0.2392 -1.1816  0.1956
 5856TIP3   OH239058   5.764   2.012   3.620  0.0234 -0.7279  0.2240
 5856TIP3    H139059   5.737   2.081   3.558 -0.6236 -2.0657 -1.0498
 5856TIP3    H239060   5.844   2.046   3.660 -0.1380  0.6633 -0.5537
 5857TIP3   OH239061   1.268   5.180  14.077  0.1285 -0.1325  0.6741
 5857TIP3    H139062   1.345   5.207  14.026  0.0058 -0.5687  0.2487
 5857TIP3    H239063   1.263   5.085  14.064 -0.1496 -0.1892  1.1684
 5858TIP3   OH239064   1.786   0.732  16.126 -0.5013 -0.0814 -0.9928
 5858TIP3    H139065   1.795   0.806  16.186 -0.2876 -0.0855 -1.0191
 5858TIP3    H239066   1.830   0.761  16.046  2.1690 -1.2803 -0.0829
 5859TIP3   OH239067   5.483   6.729  16.136  0.5024 -0.4230 -0.2936
 5859TIP3    H139068   5.546   6.657  16.142  1.3519  0.3493  0.1237
 5859TIP3    H239069   5.399   6.687  16.156  0.7169 -1.6570 -1.8296
 5860TIP3   OH239070   0.636   2.010  16.891 -0.5980  0.0991  0.0618
 5860TIP3    H139071   0.708   1.965  16.935 -1.5555 -1.0489  0.5369
 5860TIP3    H239072   0.558   1.962  16.919 -1.3388 -0.2389 -2.3439
 5861TIP3   OH239073   1.539   6.123  15.411 -0.2431  0.5835 -0.3432
 5861TIP3    H139074   1.566   6.207  15.448  0.2058 -0.4434  1.7900
 5861TIP3    H239075   1.473   6.089  15.471  0.7353 -1.3012 -0.2481
 5862TIP3   OH239076   5.866   1.031  16.726 -0.0978  0.0763  0.6822
 5862TIP3    H139077   5.794   1.071  16.776 -0.9212 -0.8072  0.2440
 5862TIP3    H239078   5.876   1.087  16.650 -2.3135 -1.3163 -0.7444
 5863TIP3   OH239079   0.326   0.285   3.345  0.1153  0.6321 -0.3859
 5863TIP3    H139080   0.291   0.315   3.429 -1.1501 -0.4629 -0.4825
 5863TIP3    H239081   0.249   0.265   3.292  0.8973  0.3563 -1.4608
 5864TIP3   OH239082   4.817   4.926   3.645  0.0339  0.1147 -0.1275
 5864TIP3    H139083   4.735   4.973   3.659  0.4936  1.7918 -2.4937
 5864TIP3    H239084   4.816   4.902   3.552  1.6883 -0.9372  0.0733
 5865TIP3   OH239085   5.818   1.690   4.047  0.2762  0.1064  0.3721
 5865TIP3    H139086   5.732   1.730   4.058  1.2239  2.0870  1.2047
 5865TIP3    H239087   5.803   1.596   4.055 -1.7521  0.4251  0.7824
 5866TIP3   OH239088   0.894   0.624   2.307 -0.0623  0.1761 -0.1710
 5866TIP3    H139089   0.959   0.627   2.237 -0.0318 -2.2887 -0.3275
 5866TIP3    H239090   0.895   0.533   2.337 -1.6955  0.6512  1.5027
 5867TIP3   OH239091   1.435   0.600   2.766  0.3560 -0.7655 -0.1497
 5867TIP3    H139092   1.465   0.510   2.756 -1.5477 -1.5452  0.7273
 5867TIP3    H239093   1.435   0.616   2.860 -1.2817 -0.5913 -0.1487
 5868TIP3   OH239094   2.482   6.782  11.987  0.0380 -0.1410  0.1986
 5868TIP3    H139095   2.572   6.754  12.000 -0.0210 -0.8310 -0.8122
 5868TIP3    H239096   2.473   6.795  11.893 -0.5841  1.1177  0.3997
 5869TIP3   OH239097   4.185   6.095  12.614  0.0281 -0.1255  0.4983
 5869TIP3    H139098   4.182   6.187  12.587  0.3467 -0.0479  0.7169
 5869TIP3    H239099   4.098   6.060  12.592  0.6193 -0.3582 -1.5939
 5870TIP3   OH239100   3.027   0.399  13.402  0.4591  0.1368 -0.1715
 5870TIP3    H139101   3.037   0.471  13.463 -0.9335  0.4951 -0.3432
 5870TIP3    H239102   3.062   0.433  13.319  4.3652 -1.0349  0.7540
 5871TIP3   OH239103   4.162   3.496  15.499  0.2422  0.2650 -0.6901
 5871TIP3    H139104   4.151   3.567  15.436  1.3938  0.9211 -0.1859
 5871TIP3    H239105   4.257   3.491  15.514  0.0322 -0.0942  0.7243
 5872TIP3   OH239106   0.850   4.916   4.743  0.2390 -0.2441 -0.0351
 5872TIP3    H139107   0.776   4.934   4.685 -0.1730  0.1205  0.5970
 5872TIP3    H239108   0.818   4.848   4.803  0.2391  0.2651  0.5561
 5873TIP3   OH239109   1.220   0.801   6.911 -0.8126 -0.3582  0.2352
 5873TIP3    H139110   1.260   0.717   6.893 -1.8356 -0.9435  0.6209
 5873TIP3    H239111   1.171   0.822   6.832  2.0685  1.5066 -1.2154
 5874TIP3   OH239112   5.068   1.280   2.331  0.2492 -0.3936  0.4255
 5874TIP3    H139113   5.118   1.344   2.281  1.3934 -0.1400  1.8153
 5874TIP3    H239114   5.119   1.199   2.323  1.6066  0.1316  2.7639
 5875TIP3   OH239115   0.524   3.669   5.560 -0.1069  0.0243  0.0446
 5875TIP3    H139116   0.557   3.689   5.472  1.6706 -0.2999  0.6054
 5875TIP3    H239117   0.578   3.722   5.618  0.8496 -2.0768  1.1610
 5876TIP3   OH239118   0.324   2.387  13.583 -0.1397  0.1877 -0.6735
 5876TIP3    H139119   0.410   2.351  13.562 -0.0182  0.0717  0.0099
 5876TIP3    H239120   0.340   2.448  13.655 -0.6375  0.1357 -0.5127
 5877TIP3   OH239121   3.438   4.167  16.498 -0.9835  0.3413 -0.6637
 5877TIP3    H139122   3.433   4.153  16.403  0.5909  0.1827 -0.7481
 5877TIP3    H239123   3.458   4.260  16.507 -1.1437  0.3588 -0.4806
 5878TIP3   OH239124   4.506   4.525  11.084 -0.0145 -0.0565  0.1574
 5878TIP3    H139125   4.464   4.569  11.158  1.9398  3.4264 -0.5503
 5878TIP3    H239126   4.449   4.542  11.010  0.4200  0.8030  0.0070
 5879TIP3   OH239127   0.644   1.087   1.540  0.2046  0.1781 -0.3234
 5879TIP3    H139128   0.575   1.027   1.514  1.2947 -1.2924  0.0715
 5879TIP3    H239129   0.703   1.035   1.594  1.9213  1.2269 -1.0913
 5880TIP3   OH239130   4.110   2.249  12.109  0.0588 -0.2972 -0.6104
 5880TIP3    H139131   4.117   2.166  12.062 -0.9268  0.0183 -1.3453
 5880TIP3    H239132   4.058   2.228  12.187  2.7889 -1.1054  1.1141
 5881TIP3   OH239133   2.673   1.735  11.578 -0.5834  0.1492 -0.2882
 5881TIP3    H139134   2.703   1.732  11.669  2.2540 -1.4937 -1.1698
 5881TIP3    H239135   2.751   1.759  11.528 -2.0726  0.9696 -2.3487
 5882TIP3   OH239136   6.526   2.285  11.769  0.8223  0.4116  1.2163
 5882TIP3    H139137   6.600   2.232  11.738 -0.1000 -1.0072  1.3571
 5882TIP3    H239138   6.479   2.228  11.830 -1.1765  0.7520  0.0772
 5883TIP3   OH239139   5.016   3.452   2.971 -0.3016 -0.4748 -0.3639
 5883TIP3    H139140   5.092   3.487   2.926  0.4789 -0.2239  1.1010
 5883TIP3    H239141   5.003   3.510   3.046  0.9278 -3.0914  2.0543
 5884TIP3   OH239142   5.606   6.184  13.414 -0.0263  0.3810  0.1121
 5884TIP3    H139143   5.621   6.125  13.340  2.5857  0.0377  0.8197
 5884TIP3    H239144   5.692   6.224  13.430 -1.0406  2.0953  1.5901
 5885TIP3   OH239145   5.347   2.091   1.180  0.3133  0.4745  0.4331
 5885TIP3    H139146   5.406   2.143   1.126  0.7166  0.5882  0.9713
 5885TIP3    H239147   5.332   2.145   1.258  0.5229 -0.0933  0.8758
 5886TIP3   OH239148   0.090   1.172  11.160 -0.0266 -0.3934 -0.0405
 5886TIP3    H139149   0.110   1.263  11.140 -1.5173 -0.0183  0.0004
 5886TIP3    H239150   0.041   1.175  11.242 -0.2482 -1.2050 -0.1300
 5887TIP3   OH239151   1.750   2.137  14.885  0.3728  0.5827 -0.1157
 5887TIP3    H139152   1.773   2.053  14.845  0.3137 -0.3095  1.6051
 5887TIP3    H239153   1.654   2.142  14.878  0.3660  0.4431 -0.1251
 5888TIP3   OH239154   5.626   4.082   5.051 -0.1263 -0.3880  0.6069
 5888TIP3    H139155   5.620   4.061   5.144 -1.5518 -0.0935  0.6121
 5888TIP3    H239156   5.688   4.018   5.016  0.9544 -0.0621  1.8751
 5889TIP3   OH239157   6.300   2.304   1.319  0.0789  0.7140  0.0711
 5889TIP3    H139158   6.225   2.304   1.380  0.0679 -0.0876  0.0566
 5889TIP3    H239159   6.356   2.375   1.352 -0.0971  0.5257  0.8108
 5890TIP3   OH239160   6.363   3.984   1.431  0.3984  0.1664 -0.1996
 5890TIP3    H139161   6.406   3.951   1.352 -0.2795 -0.8871 -0.1569
 5890TIP3    H239162   6.386   3.922   1.499  0.5617  0.7887  0.3194
 5891TIP3   OH239163   4.480   1.072  17.061  0.2623 -0.2812 -0.2585
 5891TIP3    H139164   4.516   1.053  16.974 -0.4437  0.4041 -0.7183
 5891TIP3    H239165   4.407   1.131  17.044  1.6298  1.9140  0.9609
 5892TIP3   OH239166   3.397   3.749  11.555  0.0252  0.4307  0.7223
 5892TIP3    H139167   3.370   3.834  11.520 -1.5045  0.1695  1.2015
 5892TIP3    H239168   3.469   3.721  11.498 -3.3832 -0.8045 -3.4742
 5893TIP3   OH239169   1.267   3.965  12.466 -0.6422  0.3743 -0.2233
 5893TIP3    H139170   1.219   4.047  12.473 -2.0492 -0.3248 -1.1399
 5893TIP3    H239171   1.255   3.937  12.375  1.3469  0.0441 -0.4289
 5894TIP3   OH239172   2.523   1.603   2.842  0.3727  0.1078 -0.6421
 5894TIP3    H139173   2.461   1.671   2.869 -1.9916 -1.3821 -1.9688
 5894TIP3    H239174   2.601   1.618   2.896 -0.9533  2.3750  0.7728
 5895TIP3   OH239175   1.523   3.795  16.366 -0.2200 -0.0887 -0.4734
 5895TIP3    H139176   1.442   3.845  16.359  0.4946  1.2246  0.1836
 5895TIP3    H239177   1.592   3.857  16.340  0.7254 -0.5854  0.7470
 5896TIP3   OH239178   1.983   4.142   2.070 -0.0628 -0.0718  0.1535
 5896TIP3    H139179   2.005   4.188   1.989 -1.6595  0.3221 -0.0908
 5896TIP3    H239180   2.011   4.202   2.140 -1.8812  1.2017 -0.1635
 5897TIP3   OH239181   3.190   6.728  14.998 -0.1917  0.5673 -0.1380
 5897TIP3    H139182   3.111   6.743  15.051 -0.0825  1.6608 -0.2479
 5897TIP3    H239183   3.203   6.811  14.952  0.1494 -0.1197 -1.3095
 5898TIP3   OH239184   5.608   4.965   6.522 -0.6309 -1.1086  0.5005
 5898TIP3    H139185   5.577   4.929   6.439  0.7880 -1.0097 -0.1137
 5898TIP3    H239186   5.703   4.949   6.521 -0.1348  1.3890  0.8090
 5899TIP3   OH239187   6.574   4.793   3.084 -0.5360 -0.1428  0.1156
 5899TIP3    H139188   6.504   4.849   3.118 -0.8214 -0.9331  0.8636
 5899TIP3    H239189   6.590   4.827   2.996 -1.1204  0.7268  0.3238
 5900TIP3   OH239190   0.096   0.110   3.887 -0.3254 -0.3579 -0.1707
 5900TIP3    H139191   0.005   0.094   3.912  0.1986 -0.9734  1.4743
 5900TIP3    H239192   0.130   0.024   3.863  0.0484 -0.2682  0.0324
 5901TIP3   OH239193   3.905   3.527  15.959 -0.5251 -0.1223 -0.4683
 5901TIP3    H139194   3.822   3.528  15.912  0.0117  1.1937 -1.4830
 5901TIP3    H239195   3.939   3.616  15.948  1.3948 -0.8517 -0.8193
 5902TIP3   OH239196   4.170   5.248  12.318 -0.2978 -0.3105  0.2336
 5902TIP3    H139197   4.239   5.288  12.371  0.0591 -0.7404  0.0929
 5902TIP3    H239198   4.115   5.322  12.291 -0.1332 -0.0188  0.6933
 5903TIP3   OH239199   0.947   4.763  13.690 -0.4836 -0.2925  0.2849
 5903TIP3    H139200   0.985   4.710  13.619 -2.0726  0.0168 -0.8529
 5903TIP3    H239201   1.019   4.777  13.751  0.6222 -1.6124 -0.6645
 5904TIP3   OH239202   1.082   2.128  14.026 -0.1044 -0.5696  0.7428
 5904TIP3    H139203   1.055   2.097  14.112 -0.2419 -1.0893  0.5192
 5904TIP3    H239204   1.177   2.113  14.025  0.0453  0.3019  1.1461
 5905TIP3   OH239205   4.707   1.809   5.596  0.4747 -0.0107 -0.7468
 5905TIP3    H139206   4.692   1.872   5.667  0.7909 -0.7222 -0.0416
 5905TIP3    H239207   4.798   1.781   5.607  0.2458 -0.8233 -0.8596
 5906TIP3   OH239208   3.044   0.605  14.400  0.2516  0.5648 -0.1441
 5906TIP3    H139209   2.967   0.606  14.456  0.5121  1.0967  0.2175
 5906TIP3    H239210   3.078   0.695  14.404  1.4844  0.0959  0.5503
 5907TIP3   OH239211   4.064   4.430  16.411 -0.3263 -0.1242  0.1844
 5907TIP3    H139212   3.985   4.473  16.443 -0.5836 -0.3965 -0.0826
 5907TIP3    H239213   4.130   4.449  16.478 -0.5369  0.3481  0.2635
 5908TIP3   OH239214   6.479   3.196  12.012 -0.6261  0.0409 -0.3211
 5908TIP3    H139215   6.553   3.139  11.991  0.1207  0.5944  0.7232
 5908TIP3    H239216   6.507   3.283  11.985 -0.3259  0.4799  1.2517
 5909TIP3   OH239217   5.267   3.481  11.163  0.3350 -0.2165 -0.1961
 5909TIP3    H139218   5.276   3.560  11.109  0.4677 -0.0174  0.1121
 5909TIP3    H239219   5.184   3.493  11.208  0.1763 -0.4300 -0.4307
 5910TIP3   OH239220   2.271   0.573  14.673 -0.4451 -0.2012 -0.1767
 5910TIP3    H139221   2.336   0.579  14.603 -0.4480 -0.5645 -0.2142
 5910TIP3    H239222   2.208   0.509  14.641  0.2005 -1.2983  0.6719
 5911TIP3   OH239223   2.010   4.472   3.603 -0.3251  0.6579  0.4444
 5911TIP3    H139224   1.918   4.468   3.576  0.2795 -2.3789 -1.7571
 5911TIP3    H239225   2.016   4.414   3.679 -0.3019  1.3686  0.9970
 5912TIP3   OH239226   2.582   4.099  13.015 -0.4099  0.2700 -0.6287
 5912TIP3    H139227   2.526   4.168  12.980 -1.6965 -1.3538 -2.0393
 5912TIP3    H239228   2.531   4.060  13.085  0.6653  1.2397  0.7335
 5913TIP3   OH239229   1.210   4.068   4.273 -0.1501  0.5192 -0.0617
 5913TIP3    H139230   1.230   4.147   4.223 -0.6379  1.3960  1.0756
 5913TIP3    H239231   1.151   4.098   4.342  0.0602 -0.7451  0.6951
 5914TIP3   OH239232   1.035   2.873  15.173 -0.6359  0.4616  0.5606
 5914TIP3    H139233   1.052   2.791  15.127 -1.6902 -0.4183  1.6501
 5914TIP3    H239234   1.096   2.936  15.135 -1.2679 -0.2690 -1.8179
 5915TIP3   OH239235   5.420   1.716   3.826 -0.2753  0.4010  0.1710
 5915TIP3    H139236   5.381   1.670   3.751  2.3113 -0.4970 -0.7466
 5915TIP3    H239237   5.439   1.804   3.794  0.9211 -0.0125 -0.3277
 5916TIP3   OH239238   1.337   6.642  16.716  0.9767  0.6198  0.0309
 5916TIP3    H139239   1.375   6.557  16.695  0.7082  0.3035  0.7641
 5916TIP3    H239240   1.270   6.622  16.781 -2.0366  0.8680 -2.7795
 5917TIP3   OH239241   0.786   6.431   4.776  0.2852  0.3906  0.2791
 5917TIP3    H139242   0.825   6.433   4.689  0.8890 -0.1982  0.5275
 5917TIP3    H239243   0.853   6.469   4.833 -0.7525  2.3641  0.2645
 5918TIP3   OH239244   0.402   1.830   3.866  0.1887  0.4112  0.3356
 5918TIP3    H139245   0.344   1.812   3.939  0.9164 -0.7226  0.6517
 5918TIP3    H239246   0.462   1.897   3.899 -0.7235  1.3831  0.0953
 5919TIP3   OH239247   5.340   1.690  16.493  0.7500 -0.0671 -0.4213
 5919TIP3    H139248   5.262   1.682  16.547  1.3101 -0.0616  0.4049
 5919TIP3    H239249   5.315   1.750  16.423 -0.7522 -1.9525 -1.6061
 5920TIP3   OH239250   1.001   3.464   4.089 -0.3176 -0.0187  0.3315
 5920TIP3    H139251   0.939   3.490   4.157 -1.8818  0.7119 -1.3220
 5920TIP3    H239252   1.039   3.547   4.059  1.2010 -0.4253  1.0330
 5921TIP3   OH239253   5.820   0.994   3.250  0.0810  0.2435 -0.2046
 5921TIP3    H139254   5.750   0.929   3.253 -0.1899  0.5109 -0.6200
 5921TIP3    H239255   5.898   0.946   3.277 -0.4700  0.2509  1.5433
 5922TIP3   OH239256   1.866   2.419   2.344 -0.0103  0.3536 -0.7147
 5922TIP3    H139257   1.827   2.485   2.401  1.3648 -1.4852  2.6529
 5922TIP3    H239258   1.954   2.452   2.325  0.4043 -0.0768  0.3455
 5923TIP3   OH239259   2.465   2.954  15.849  0.1866 -0.2932 -0.5738
 5923TIP3    H139260   2.549   2.994  15.825 -0.2650  1.3464  0.4669
 5923TIP3    H239261   2.464   2.871  15.801  1.8639  0.2044 -1.5512
 5924TIP3   OH239262   2.018   1.744   2.079 -0.5742 -0.0290 -0.0386
 5924TIP3    H139263   2.012   1.691   2.159 -2.2205  1.5485  0.9561
 5924TIP3    H239264   1.927   1.754   2.051 -0.1093  0.5156 -1.4147
 5925TIP3   OH239265   3.042   6.100   4.125 -0.0818  0.2539  0.4349
 5925TIP3    H139266   3.020   6.012   4.155  1.8890 -0.3556  0.2629
 5925TIP3    H239267   3.124   6.089   4.076 -0.2641  2.0544 -0.3884
 5926TIP3   OH239268   2.412   2.042  16.864 -0.6755  0.0905  0.1425
 5926TIP3    H139269   2.427   2.027  16.957  0.5072 -3.0606 -0.4407
 5926TIP3    H239270   2.408   2.138  16.856  0.9859  0.5530  3.1385
 5927TIP3   OH239271   0.361   2.406  16.204 -0.3993  0.8879 -0.1735
 5927TIP3    H139272   0.397   2.459  16.275  0.9603  1.9448 -1.5801
 5927TIP3    H239273   0.299   2.463  16.159 -0.4602  0.5939 -0.4735
 5928TIP3   OH239274   2.900   5.248   2.970  0.3324 -0.3913  0.0586
 5928TIP3    H139275   2.944   5.300   3.037  0.0978 -0.7462  0.4960
 5928TIP3    H239276   2.834   5.198   3.018  0.0471 -0.5231 -0.4636
 5929TIP3   OH239277   0.438   5.852   2.620  0.4761 -0.4508  0.5548
 5929TIP3    H139278   0.411   5.854   2.528  0.5298 -1.5312  0.5037
 5929TIP3    H239279   0.476   5.939   2.636  1.8442 -0.7525 -0.8579
 5930TIP3   OH239280   3.546   2.292   1.312 -0.0576 -0.3093  0.4315
 5930TIP3    H139281   3.511   2.375   1.280  0.8252 -1.6141 -4.8694
 5930TIP3    H239282   3.473   2.230   1.306  0.2133 -0.6521  0.6285
 5931TIP3   OH239283   4.695   5.648  12.828 -0.0846  0.0344  0.1457
 5931TIP3    H139284   4.753   5.588  12.875 -1.5946 -0.9607  0.8058
 5931TIP3    H239285   4.661   5.705  12.896 -1.9303 -1.1193  0.2412
 5932TIP3   OH239286   2.237   3.020  11.990 -0.3700 -0.5102 -0.1958
 5932TIP3    H139287   2.144   3.027  11.967 -0.8736  0.6401  1.8957
 5932TIP3    H239288   2.253   3.096  12.047  2.7330  1.2063 -3.0543
 5933TIP3   OH239289   3.985   4.037   4.901 -0.6142  0.0535  0.0076
 5933TIP3    H139290   3.910   4.038   4.842  0.8532  0.7512 -1.9745
 5933TIP3    H239291   4.022   4.126   4.895  1.2569 -0.6999 -0.3309
 5934TIP3   OH239292   5.396   2.494   0.303 -0.2210 -0.7049  0.2357
 5934TIP3    H139293   5.468   2.523   0.246 -1.2919 -0.7832 -1.2284
 5934TIP3    H239294   5.403   2.550   0.380 -0.7808  1.9103 -1.4823
 5935TIP3   OH239295   3.098   3.438  16.766 -0.0190 -0.1400 -0.3626
 5935TIP3    H139296   3.113   3.511  16.826 -0.4048  1.2113 -1.8205
 5935TIP3    H239297   3.077   3.364  16.822  0.0726  0.9480  1.1661
 5936TIP3   OH239298   5.256   0.644  15.865 -0.5435 -0.3245 -0.1117
 5936TIP3    H139299   5.229   0.563  15.908  0.0919 -0.0074  0.9308
 5936TIP3    H239300   5.220   0.638  15.777 -1.7290 -1.0819  0.4070
 5937TIP3   OH239301   5.546   1.039  16.161  0.5556  0.3322  0.0032
 5937TIP3    H139302   5.586   0.987  16.092  0.6693 -0.6717  0.8015
 5937TIP3    H239303   5.509   0.975  16.221 -0.8584  1.2068  0.1161
 5938TIP3   OH239304   1.811   0.638   3.997 -0.2609  0.0681  0.3878
 5938TIP3    H139305   1.882   0.702   3.998  0.0453 -0.2701  0.3803
 5938TIP3    H239306   1.732   0.690   3.984  0.0094  0.4248  0.1627
 5939TIP3   OH239307   1.721   4.614   4.878  0.1249  0.4196 -0.0158
 5939TIP3    H139308   1.675   4.698   4.873 -0.3468  0.0690 -2.9183
 5939TIP3    H239309   1.651   4.549   4.881  0.4775  0.0319 -0.2364
 5940TIP3   OH239310   0.893   4.907   2.173 -0.0114 -0.0673  0.0215
 5940TIP3    H139311   0.842   4.904   2.092  0.2306 -0.4850 -0.1233
 5940TIP3    H239312   0.833   4.876   2.241 -0.5711  1.3639  0.2128
 5941TIP3   OH239313   3.780   6.512  14.729 -0.5420 -0.2605 -0.5068
 5941TIP3    H139314   3.801   6.571  14.802  1.7203 -0.5841 -0.8323
 5941TIP3    H239315   3.725   6.444  14.769  0.6547 -0.4416  0.9510
 5942TIP3   OH239316   1.476   2.879  11.475 -0.3135  0.3006 -0.2324
 5942TIP3    H139317   1.413   2.950  11.492  1.4041  1.8993 -0.3058
 5942TIP3    H239318   1.500   2.848  11.562  1.0481  1.7874 -0.0295
 5943TIP3   OH239319   2.168   4.654   1.402  0.7344 -0.0040  0.2867
 5943TIP3    H139320   2.208   4.738   1.378  2.0309 -0.4793  0.6792
 5943TIP3    H239321   2.229   4.588   1.368  0.7822 -0.7477  1.7268
 5944TIP3   OH239322   2.134   3.676  13.655 -0.0336  0.5716 -0.1499
 5944TIP3    H139323   2.055   3.731  13.656  0.4043  1.2515 -1.3838
 5944TIP3    H239324   2.188   3.710  13.727 -1.4099 -0.7754  1.6059
 5945TIP3   OH239325   2.763   3.114   1.052  0.3600 -0.4423  0.3127
 5945TIP3    H139326   2.695   3.176   1.080  1.2714  1.4744 -1.4696
 5945TIP3    H239327   2.786   3.067   1.131 -0.7713  1.1131  1.6406
 5946TIP3   OH239328   1.426   0.758   6.066 -0.4757 -0.1436  0.2335
 5946TIP3    H139329   1.341   0.756   6.109  1.1364 -2.3348  3.8005
 5946TIP3    H239330   1.488   0.783   6.135  2.0076 -0.5624 -1.6780
 5947TIP3   OH239331   4.587   3.141  13.702 -0.3826 -0.7850 -0.2307
 5947TIP3    H139332   4.562   3.179  13.618  0.2053  0.5553  0.1765
 5947TIP3    H239333   4.519   3.077  13.721 -0.1261 -1.6837 -2.0877
 5948TIP3   OH239334   0.717   6.485   3.352  0.5975  0.6222  0.4020
 5948TIP3    H139335   0.799   6.504   3.398  2.4187 -1.6315 -1.6712
 5948TIP3    H239336   0.698   6.394   3.374 -0.2378  0.5022 -0.7252
 5949TIP3   OH239337   5.388   6.629  13.034  0.2684 -0.2108  0.1657
 5949TIP3    H139338   5.333   6.668  13.102  0.5056 -1.8500  1.3367
 5949TIP3    H239339   5.449   6.573  13.081  0.9673 -0.7856 -1.3499
 5950TIP3   OH239340   3.832   0.493  13.947  0.1044 -0.3715 -0.3981
 5950TIP3    H139341   3.887   0.476  14.023  0.8935  0.1377 -0.8402
 5950TIP3    H239342   3.758   0.543  13.982  0.1933 -0.5881  0.1131
 5951TIP3   OH239343   5.127   0.928  13.658 -0.1452 -0.1391 -0.2349
 5951TIP3    H139344   5.074   0.994  13.701  0.3349 -0.5445  1.0085
 5951TIP3    H239345   5.201   0.915  13.716 -0.9475 -2.8170  0.3421
 5952TIP3   OH239346   0.231   1.993   6.129 -0.5633  0.0892  0.3320
 5952TIP3    H139347   0.269   2.076   6.099  1.0848  0.3306  2.7683
 5952TIP3    H239348   0.136   2.008   6.128 -0.3863  1.3323 -0.9808
 5953TIP3   OH239349   2.025   3.726  12.838 -0.0770 -0.1452  0.3370
 5953TIP3    H139350   2.095   3.791  12.847 -2.9001  2.8876  3.3237
 5953TIP3    H239351   1.988   3.742  12.751  1.2148 -0.0094 -0.2159
 5954TIP3   OH239352   2.449   0.413   2.502 -0.2839 -0.1914 -0.7357
 5954TIP3    H139353   2.412   0.326   2.485 -0.1905 -0.7975  1.7038
 5954TIP3    H239354   2.373   0.471   2.505 -0.4547 -0.3771 -1.3091
 5955TIP3   OH239355   0.344   5.409  11.762  0.4712  0.2850  0.6353
 5955TIP3    H139356   0.271   5.429  11.821 -0.2688  0.4931 -0.3431
 5955TIP3    H239357   0.394   5.491  11.757  0.5884  0.2422  1.0277
 5956TIP3   OH239358   0.965   1.959  12.386 -0.2876  0.0531 -0.3897
 5956TIP3    H139359   1.034   1.946  12.322 -1.5212 -0.3191 -1.7060
 5956TIP3    H239360   0.911   1.880  12.379 -0.1618 -0.2428  1.5192
 5957TIP3   OH239361   5.743   3.350   5.272 -0.2967  0.3787  0.9170
 5957TIP3    H139362   5.805   3.287   5.307 -1.2657  0.1192  2.2685
 5957TIP3    H239363   5.662   3.300   5.261 -0.2181  0.6390 -1.0865
 5958TIP3   OH239364   2.765   0.178  16.215  0.3574 -0.9317 -0.4729
 5958TIP3    H139365   2.834   0.213  16.271 -1.5786  3.2191 -0.2471
 5958TIP3    H239366   2.802   0.178  16.127  1.6654 -2.1719  0.0444
 5959TIP3   OH239367   5.049   4.062   6.014 -0.0527  0.0826  0.0240
 5959TIP3    H139368   5.083   4.083   6.101 -0.9421  1.1393  0.1403
 5959TIP3    H239369   4.973   4.006   6.030 -0.0023 -0.0196 -0.0912
 5960TIP3   OH239370   5.014   5.978   3.097  0.1942 -0.1395 -0.0532
 5960TIP3    H139371   4.982   5.899   3.054 -1.0495  1.0189 -1.3423
 5960TIP3    H239372   5.069   6.021   3.032  2.9809 -1.1395  1.4913
 5961TIP3   OH239373   0.703   2.809  15.799  0.3058  0.1270  0.1711
 5961TIP3    H139374   0.644   2.815  15.874 -0.9178  0.0116 -0.7445
 5961TIP3    H239375   0.778   2.758  15.831 -0.0383  0.3437  1.3806
 5962TIP3   OH239376   2.507   0.230   5.895 -0.4301  0.1137  0.3552
 5962TIP3    H139377   2.425   0.189   5.871  0.1547 -0.6082 -0.4385
 5962TIP3    H239378   2.568   0.158   5.908  0.1387  0.6465  0.7291
 5963TIP3   OH239379   2.487   4.310   3.240  0.0503 -0.0125  0.3371
 5963TIP3    H139380   2.462   4.366   3.313 -0.0413 -0.6824  0.8263
 5963TIP3    H239381   2.508   4.226   3.280  0.6291 -0.2032 -0.3399
 5964TIP3   OH239382   0.526   2.453  14.393  0.1454 -0.1978  0.4389
 5964TIP3    H139383   0.470   2.398  14.338  0.5113  0.9027 -1.0699
 5964TIP3    H239384   0.611   2.408  14.393  0.8233  0.9481 -1.8637
 5965TIP3   OH239385   3.292   5.937  12.593  0.4061  0.9926  0.0153
 5965TIP3    H139386   3.330   5.921  12.680 -0.9374  0.3471  0.5061
 5965TIP3    H239387   3.271   6.031  12.593  2.4492  1.5140 -0.4859
 5966TIP3   OH239388   1.181   3.626   1.980  0.0571 -0.2792 -0.1465
 5966TIP3    H139389   1.241   3.687   1.938 -1.4272  2.0311  0.8811
 5966TIP3    H239390   1.215   3.617   2.070  0.1153 -0.7606 -0.2142
 5967TIP3   OH239391   6.568   5.555  11.288 -0.4618 -0.2459  0.0933
 5967TIP3    H139392   6.617   5.523  11.212 -0.2537 -0.0711  0.1541
 5967TIP3    H239393   6.601   5.504  11.361 -0.5447 -0.2988  0.0943
 5968TIP3   OH239394   5.387   4.324   5.268  0.1852 -1.0139  0.3641
 5968TIP3    H139395   5.477   4.348   5.249 -0.1809  1.3175  1.3024
 5968TIP3    H239396   5.335   4.398   5.236 -1.1495 -1.0878  2.2132
 5969TIP3   OH239397   1.568   2.480   5.517 -0.0225  0.1056  0.1172
 5969TIP3    H139398   1.519   2.478   5.435  0.2151  1.0187 -0.0626
 5969TIP3    H239399   1.652   2.520   5.493 -0.1138  0.7776  0.8883
 5970TIP3   OH239400   5.589   2.310   3.166  0.5645  0.2068 -0.4098
 5970TIP3    H139401   5.519   2.247   3.185 -0.1796  1.0912 -0.1264
 5970TIP3    H239402   5.574   2.382   3.228  2.9759 -0.4898  1.1242
 5971TIP3   OH239403   1.777   3.496  12.354 -0.2631  0.5290  0.5510
 5971TIP3    H139404   1.864   3.463  12.334 -0.6050 -0.3168  0.4395
 5971TIP3    H239405   1.729   3.491  12.271 -0.9066 -0.5660  0.9654
 5972TIP3   OH239406   6.494   1.282   3.493 -0.0881 -0.0850  0.3900
 5972TIP3    H139407   6.411   1.329   3.484 -1.3162 -1.7515  2.0605
 5972TIP3    H239408   6.512   1.247   3.405 -1.5832 -0.3200  0.1511
 5973TIP3   OH239409   0.722   4.066   0.853  0.2808 -0.2827  0.2457
 5973TIP3    H139410   0.681   4.112   0.927  2.4266  0.5252  0.9984
 5973TIP3    H239411   0.739   3.978   0.886  0.9165 -0.0278  0.6115
 5974TIP3   OH239412   6.362   6.473  10.318 -0.0987 -0.0237  0.3444
 5974TIP3    H139413   6.362   6.568  10.321  3.1197  0.0943  1.0755
 5974TIP3    H239414   6.289   6.447  10.375 -0.3973  2.0142  0.9838
 5975TIP3   OH239415   6.047   4.008  15.174  0.4544  0.3824 -0.0110
 5975TIP3    H139416   5.995   4.059  15.112  1.4953 -0.5314 -1.7229
 5975TIP3    H239417   6.104   4.072  15.216 -1.7289  1.3576  1.6953
 5976TIP3   OH239418   2.073   6.557   4.921  0.3189 -1.0395  0.7895
 5976TIP3    H139419   2.158   6.562   4.966  0.6338 -0.7820  0.1723
 5976TIP3    H239420   2.092   6.511   4.840  0.2124  0.5319 -0.1630
 5977TIP3   OH239421   0.134   4.595   6.359 -0.0529 -0.4241  0.1531
 5977TIP3    H139422   0.064   4.654   6.387  0.1243  0.0438 -0.3511
 5977TIP3    H239423   0.150   4.620   6.268  1.4766  0.1973  0.5632
 5978TIP3   OH239424   0.897   2.515   4.227 -0.4207  0.0776 -0.4492
 5978TIP3    H139425   0.856   2.590   4.184 -1.5141  0.9765  1.9667
 5978TIP3    H239426   0.982   2.548   4.258 -2.5705  2.0350  4.4893
 5979TIP3   OH239427   1.058   4.434  14.958 -0.0077 -0.0569  0.3718
 5979TIP3    H139428   1.131   4.377  14.935  0.6312  0.4763  1.0646
 5979TIP3    H239429   1.073   4.514  14.909 -0.5603 -0.2339 -0.0987
 5980TIP3   OH239430   2.503   1.228  13.210 -0.4284  0.1046  0.4426
 5980TIP3    H139431   2.460   1.308  13.181 -2.5143 -1.3395 -0.6824
 5980TIP3    H239432   2.534   1.248  13.298 -0.3848  2.3025 -0.0168
 5981TIP3   OH239433   6.196   5.877   3.684 -0.0120  0.0769  0.4943
 5981TIP3    H139434   6.169   5.785   3.685  1.0658 -0.2645  1.8324
 5981TIP3    H239435   6.264   5.883   3.751 -0.0652  1.8662  0.4490
 5982TIP3   OH239436   0.790   3.787   6.561  0.2456 -0.1332  0.0619
 5982TIP3    H139437   0.699   3.760   6.553  0.2410 -0.4929  1.1799
 5982TIP3    H239438   0.786   3.873   6.602  0.3099  1.2111 -2.5479
 5983TIP3   OH239439   0.476   1.345  13.560  0.4469  0.1449 -1.1094
 5983TIP3    H139440   0.424   1.370  13.636  0.9645  1.8662 -1.2728
 5983TIP3    H239441   0.558   1.311  13.597  0.6883  0.9579 -0.8634
 5984TIP3   OH239442   2.452   4.420   0.398 -0.1274  0.1798 -0.7755
 5984TIP3    H139443   2.539   4.452   0.376  1.2480 -2.4874  0.2975
 5984TIP3    H239444   2.467   4.332   0.434 -3.3312 -0.7032 -1.2699
 5985TIP3   OH239445   4.457   0.683  15.893 -0.3683 -0.1298 -0.2268
 5985TIP3    H139446   4.448   0.778  15.895 -2.5235 -0.2136 -2.0017
 5985TIP3    H239447   4.499   0.665  15.808  0.3521 -0.7577  0.2537
 5986TIP3   OH239448   1.674   1.900  13.446 -0.2981 -0.7069  0.4403
 5986TIP3    H139449   1.617   1.921  13.520 -0.8309 -1.0187  0.1236
 5986TIP3    H239450   1.614   1.884  13.373  0.1159 -2.3684  0.4201
 5987TIP3   OH239451   2.261   2.576   1.038  0.2107  0.0786 -0.3052
 5987TIP3    H139452   2.188   2.515   1.040  1.0697 -1.0001 -0.9081
 5987TIP3    H239453   2.293   2.573   0.948  1.2699  0.1902  0.0522
 5988TIP3   OH239454   1.719   1.287  16.109  0.1475 -0.2582 -0.1530
 5988TIP3    H139455   1.697   1.378  16.090  0.6953  0.4672  2.3167
 5988TIP3    H239456   1.813   1.281  16.093  0.4551  0.1400  1.3240
 5989TIP3   OH239457   0.121   6.072   4.343  0.0552  0.3004  0.5236
 5989TIP3    H139458   0.094   6.026   4.422  1.3102  0.8966  1.3253
 5989TIP3    H239459   0.039   6.097   4.301 -0.6458 -1.4577  0.7555
 5990TIP3   OH239460   1.904   6.427   3.143 -0.2103 -0.5139  0.1658
 5990TIP3    H139461   1.941   6.503   3.098 -2.9384  1.9640  1.7497
 5990TIP3    H239462   1.868   6.373   3.073  1.7484 -0.4022 -1.0035
 5991TIP3   OH239463   6.575   4.500  13.311 -0.8742  0.5820  0.5730
 5991TIP3    H139464   6.522   4.546  13.377  0.6623  0.2471  2.1133
 5991TIP3    H239465   6.584   4.411  13.346 -0.6418  0.1761 -0.4858
 5992TIP3   OH239466   2.283   6.332  11.554 -0.3556  0.2713  0.4068
 5992TIP3    H139467   2.341   6.402  11.526  0.0790 -0.0211  0.5567
 5992TIP3    H239468   2.197   6.373  11.562 -0.0595  0.8447  0.7458
 5993TIP3   OH239469   6.725   5.279  14.209  0.2403 -0.5792 -0.4337
 5993TIP3    H139470   6.779   5.203  14.230  0.2783 -0.2941  0.5459
 5993TIP3    H239471   6.725   5.282  14.113  0.7023 -1.4743 -0.4803
 5994TIP3   OH239472   2.001   6.005  12.550  0.1935  0.3249  0.1586
 5994TIP3    H139473   1.929   6.040  12.498  0.0487 -0.8378 -0.4460
 5994TIP3    H239474   2.079   6.019  12.497  0.3276  0.9531  0.5121
 5995TIP3   OH239475   4.184   1.370  16.633  0.0263 -0.4483  0.1997
 5995TIP3    H139476   4.278   1.368  16.612 -0.3557 -3.8483 -1.9796
 5995TIP3    H239477   4.179   1.333  16.721  0.7848  1.7424  1.2340
 5996TIP3   OH239478   5.003   2.094  14.950  0.1663  0.2471 -0.5605
 5996TIP3    H139479   4.922   2.050  14.976  1.0912 -0.7763  0.6945
 5996TIP3    H239480   5.004   2.175  15.000  0.7192 -0.5399  0.7435
 5997TIP3   OH239481   2.697   1.591  14.695  0.7300  0.7523  0.3319
 5997TIP3    H139482   2.673   1.669  14.645  0.3436  0.8275  0.6267
 5997TIP3    H239483   2.663   1.608  14.783 -1.7173 -0.8040 -0.1991
 5998TIP3   OH239484   4.546   2.031  13.782 -0.3409 -0.0894 -0.6009
 5998TIP3    H139485   4.638   2.039  13.809 -0.3272 -0.8881 -0.3822
 5998TIP3    H239486   4.544   1.949  13.731 -1.3364 -1.2397  1.1835
 5999TIP3   OH239487   1.656   4.278   1.235  0.6936 -0.0260  0.1846
 5999TIP3    H139488   1.726   4.319   1.184 -0.3059  0.2456 -1.0073
 5999TIP3    H239489   1.640   4.194   1.191 -0.1588  0.1948  0.0684
 6000TIP3   OH239490   5.273   1.785  15.418 -0.6493  0.0421  0.0766
 6000TIP3    H139491   5.242   1.736  15.494  0.2390  2.0121  1.8002
 6000TIP3    H239492   5.303   1.718  15.357 -0.8860 -1.5902  1.6740
 6001TIP3   OH239493   2.158   1.434  12.102 -0.1334  0.2056 -0.1097
 6001TIP3    H139494   2.221   1.383  12.153  0.3173  1.6957  0.9158
 6001TIP3    H239495   2.202   1.519  12.089 -1.3091  0.7412 -0.7121
 6002TIP3   OH239496   4.470   2.483  16.567 -0.5862 -0.1005  0.0988
 6002TIP3    H139497   4.445   2.567  16.528  0.5546  0.0136 -0.4212
 6002TIP3    H239498   4.405   2.421  16.536 -0.7070  0.3494 -0.5483
 6003TIP3   OH239499   1.040   4.450  14.328 -0.1223 -0.1850  0.6318
 6003TIP3    H139500   1.035   4.415  14.417  1.4201 -0.9736  0.4493
 6003TIP3    H239501   0.953   4.485  14.311 -0.4180  0.1064  2.4962
 6004TIP3   OH239502   6.133   1.786   3.556 -0.3433 -0.0126  0.2866
 6004TIP3    H139503   6.098   1.748   3.636  0.0261  1.3105  1.1188
 6004TIP3    H239504   6.065   1.847   3.526  0.5109  1.3615  1.0173
 6005TIP3   OH239505   6.137   0.124  13.066 -0.3196  0.2139  0.3137
 6005TIP3    H139506   6.201   0.112  12.996  0.3562  1.4318  0.6961
 6005TIP3    H239507   6.055   0.092  13.028  0.0547  0.7282 -1.0045
 6006TIP3   OH239508   0.979   1.133   0.227 -0.0403  0.6291 -0.1142
 6006TIP3    H139509   0.920   1.061   0.205  0.6583  0.2002 -0.5958
 6006TIP3    H239510   0.934   1.211   0.194 -0.9778  0.4741  0.7474
 6007TIP3   OH239511   2.405   2.304  14.211 -1.0036 -0.0183 -0.0775
 6007TIP3    H139512   2.383   2.213  14.231 -0.0276  0.1444  1.9121
 6007TIP3    H239513   2.480   2.324  14.267 -0.3905  1.6398 -1.4044
 6008TIP3   OH239514   2.100   5.161   0.084  0.3806  0.2313 -0.3572
 6008TIP3    H139515   2.182   5.133   0.042  1.6424  1.1162  1.3795
 6008TIP3    H239516   2.126   5.235   0.139 -1.1405 -0.8418  1.9746
 6009TIP3   OH239517   5.666   0.683   5.326 -0.0612 -0.4263  0.5160
 6009TIP3    H139518   5.617   0.749   5.374 -1.9481 -0.8226 -0.7499
 6009TIP3    H239519   5.621   0.601   5.345 -1.0968 -0.5638 -2.0494
 6010TIP3   OH239520   5.746   3.508   0.401 -0.0527 -0.0025  0.3173
 6010TIP3    H139521   5.698   3.572   0.349  2.2114  3.2446  1.8419
 6010TIP3    H239522   5.713   3.520   0.490  0.1223 -1.2987  0.5765
 6011TIP3   OH239523   0.030   4.919  16.584 -0.1466 -0.1016  0.6404
 6011TIP3    H139524  -0.007   4.967  16.510  1.3044 -0.6843 -0.5280
 6011TIP3    H239525   0.050   4.986  16.649 -0.5379  0.5500  0.1052
 6012TIP3   OH239526   3.713   3.197   4.276 -0.5863  0.4276 -1.1559
 6012TIP3    H139527   3.790   3.236   4.235 -0.3030 -0.4074 -1.4241
 6012TIP3    H239528   3.733   3.104   4.282  0.3350  0.6982  2.8223
 6013TIP3   OH239529   4.160   3.775  15.886  1.0007 -0.1039 -0.2371
 6013TIP3    H139530   4.249   3.740  15.883  0.6983 -0.8462 -0.7083
 6013TIP3    H239531   4.168   3.858  15.933  1.7127 -0.8408  0.9668
 6014TIP3   OH239532   2.918   4.246  15.353 -0.5486 -0.2554  0.2891
 6014TIP3    H139533   2.929   4.321  15.411 -0.5891 -0.0028 -0.0315
 6014TIP3    H239534   2.935   4.280  15.266  0.9007 -0.9456  0.2806
 6015TIP3   OH239535   5.435   6.766  16.530 -0.1396 -0.2276  0.4053
 6015TIP3    H139536   5.371   6.825  16.570  0.2173 -0.4004  1.2390
 6015TIP3    H239537   5.381   6.706  16.478 -0.5701  0.3040  0.2203
 6016TIP3   OH239538   4.813   6.279  15.766 -0.1730  0.1685 -0.6069
 6016TIP3    H139539   4.765   6.318  15.693  2.7879  1.2635 -2.1279
 6016TIP3    H239540   4.879   6.345  15.789  2.8081 -2.4677 -0.9340
 6017TIP3   OH239541   6.158   5.798   5.123  0.3979 -0.0472  0.4283
 6017TIP3    H139542   6.117   5.832   5.043 -1.3116 -1.7944  0.4709
 6017TIP3    H239543   6.094   5.734   5.156  1.8201 -0.5711  2.2852
 6018TIP3   OH239544   2.457   4.960   3.655 -0.0289 -0.6619  0.5457
 6018TIP3    H139545   2.540   4.982   3.698  0.1426 -0.9668  0.3739
 6018TIP3    H239546   2.477   4.963   3.562 -0.7950  1.5793  0.4020
 6019TIP3   OH239547   3.208   1.542   0.546 -0.4707 -0.6071 -0.0178
 6019TIP3    H139548   3.291   1.588   0.534  0.0726 -1.9907 -2.1235
 6019TIP3    H239549   3.185   1.558   0.637  0.6746  2.1125 -0.1207
 6020TIP3   OH239550   5.895   0.286   5.203  0.0015 -0.0660  0.4031
 6020TIP3    H139551   5.833   0.323   5.266  0.7586  0.6189  0.7559
 6020TIP3    H239552   5.927   0.362   5.154 -0.8645 -0.6208 -1.0892
 6021TIP3   OH239553   3.847   0.026   2.599 -0.6736  0.2621 -0.1229
 6021TIP3    H139554   3.836  -0.026   2.519 -1.6000 -0.2170  0.3103
 6021TIP3    H239555   3.818  -0.031   2.670  0.0437  0.7223  0.5590
 6022TIP3   OH239556   5.968   4.541   4.989  0.6032 -0.5466 -0.2559
 6022TIP3    H139557   5.910   4.468   5.010  0.8900 -0.8225 -0.4191
 6022TIP3    H239558   5.992   4.577   5.074 -0.2377 -0.0884 -0.2059
 6023TIP3   OH239559   6.261   3.051  10.600 -0.2925  0.2142 -0.2120
 6023TIP3    H139560   6.205   3.045  10.522 -0.5828 -1.0784  0.0776
 6023TIP3    H239561   6.289   2.961  10.617 -0.9629  0.3252  1.6933
 6024TIP3   OH239562   4.893   1.883  10.937  0.6960 -0.0970  0.0738
 6024TIP3    H139563   4.896   1.977  10.953  2.0525 -0.5697  3.3781
 6024TIP3    H239564   4.800   1.860  10.944  0.3887  0.9197 -0.4719
 6025TIP3   OH239565   4.535   1.138   4.241  0.7350  0.3731  0.1443
 6025TIP3    H139566   4.580   1.059   4.212  1.0532  0.9485 -1.0076
 6025TIP3    H239567   4.571   1.207   4.186 -0.8842  1.0025 -0.1731
 6026TIP3   OH239568   5.736   5.628  15.784 -0.0798 -0.4842  0.1458
 6026TIP3    H139569   5.671   5.696  15.798 -0.2272 -0.4984 -0.4301
 6026TIP3    H239570   5.788   5.660  15.710  0.8216 -0.2863  0.8490
 6027TIP3   OH239571   4.388   3.648  16.859 -0.1440 -0.0991 -0.3323
 6027TIP3    H139572   4.418   3.689  16.939  0.3371 -2.9488  1.0812
 6027TIP3    H239573   4.359   3.561  16.886 -0.8641 -0.8353 -3.1224
 6028TIP3   OH239574   1.171   5.290   4.904 -0.2990  0.0051 -0.2296
 6028TIP3    H139575   1.102   5.345   4.941  0.6598  0.1779  1.4008
 6028TIP3    H239576   1.132   5.203   4.898 -0.8941  0.2549 -0.0566
 6029TIP3   OH239577   3.615   6.430  14.223 -0.7648  0.2236 -0.2370
 6029TIP3    H139578   3.699   6.405  14.182 -1.4755 -2.4319 -0.2089
 6029TIP3    H239579   3.640   6.493  14.291  1.2190 -0.4616 -0.2560
 6030TIP3   OH239580   0.323   2.557  13.362 -0.1843  0.1058 -0.1489
 6030TIP3    H139581   0.414   2.576  13.339  0.6601  0.5081  3.0413
 6030TIP3    H239582   0.329   2.499  13.437 -2.5700  0.3101  0.2798
 6031TIP3   OH239583   3.407   0.037   1.947  0.1945  0.1520  0.2878
 6031TIP3    H139584   3.372   0.059   2.034  0.3997  1.4188  0.0617
 6031TIP3    H239585   3.495   0.074   1.947  0.1757  0.2001 -0.4775
 6032TIP3   OH239586   1.162   5.486  15.697  0.6286 -0.8268  0.4692
 6032TIP3    H139587   1.206   5.415  15.650  0.5025  0.1124 -1.1548
 6032TIP3    H239588   1.086   5.507  15.643  1.3105  1.3122  0.2688
 6033TIP3   OH239589   0.945   5.641   2.944 -0.1517 -0.0842  0.2500
 6033TIP3    H139590   0.916   5.552   2.965  0.5884 -0.0318  1.6256
 6033TIP3    H239591   0.871   5.697   2.969 -1.7339 -0.4196 -3.1228
 6034TIP3   OH239592   5.066   1.618  16.183  0.3073 -0.4937 -0.4096
 6034TIP3    H139593   4.988   1.639  16.235 -0.1109  0.5736 -1.4123
 6034TIP3    H239594   5.037   1.548  16.125  0.5827 -1.2229  0.3122
 6035TIP3   OH239595   3.072   3.892   1.657  0.0230  0.0853 -0.1881
 6035TIP3    H139596   3.105   3.954   1.723 -0.1658 -1.1244  1.0860
 6035TIP3    H239597   3.120   3.914   1.577  1.6923  0.3582  0.8488
 6036TIP3   OH239598   1.593   1.011  13.983  0.3086  0.4059  0.1359
 6036TIP3    H139599   1.568   1.091  14.028 -2.3117 -0.5349  0.5208
 6036TIP3    H239600   1.572   1.028  13.891 -1.5757 -0.2172  0.3947
 6037TIP3   OH239601   2.022   6.764  16.486  0.1184 -0.4990  0.1085
 6037TIP3    H139602   1.999   6.839  16.540  2.4829  1.3747 -1.3194
 6037TIP3    H239603   2.066   6.703  16.546 -2.0953 -1.0016  1.3439
 6038TIP3   OH239604   5.643   6.110  17.237  0.4026 -0.1777  0.2186
 6038TIP3    H139605   5.719   6.091  17.181  0.1050 -0.0382 -0.2394
 6038TIP3    H239606   5.599   6.026  17.246  0.7869 -0.3256  0.7542
 6039TIP3   OH239607   4.898   1.804  16.413  0.1357 -0.0803 -0.2641
 6039TIP3    H139608   4.848   1.845  16.484 -0.5612 -1.6352  0.2019
 6039TIP3    H239609   4.877   1.856  16.336 -2.4351 -0.7482 -0.1259
 6040TIP3   OH239610   0.365   6.018   3.884 -0.2800 -0.4209  0.2409
 6040TIP3    H139611   0.408   6.097   3.917 -3.1068  0.8154  1.2454
 6040TIP3    H239612   0.406   5.947   3.933  1.4715  0.4954  0.2103
 6041TIP3   OH239613   1.844   6.094   1.097  0.0586 -0.5140  0.2731
 6041TIP3    H139614   1.837   6.066   1.188  1.3353 -0.5453  0.3781
 6041TIP3    H239615   1.767   6.056   1.054  0.1242 -1.5901  1.0650
 6042TIP3   OH239616   5.069   2.583  12.120  0.8146 -0.2991 -0.3662
 6042TIP3    H139617   5.111   2.498  12.134 -0.2473 -0.5346  1.8850
 6042TIP3    H239618   5.021   2.572  12.038  0.8567 -1.8191 -0.2208
 6043TIP3   OH239619   3.664   4.102   5.278 -0.0052  0.1897 -0.2089
 6043TIP3    H139620   3.689   4.104   5.370 -0.3389  1.4597 -0.1328
 6043TIP3    H239621   3.666   4.009   5.255 -0.3337 -0.1898  1.1849
 6044TIP3   OH239622   4.861   6.369   0.290 -0.3154  0.1792 -0.1075
 6044TIP3    H139623   4.786   6.400   0.342 -0.9267 -0.5121 -0.5505
 6044TIP3    H239624   4.918   6.325   0.353 -0.4734  0.3789  0.1749
 6045TIP3   OH239625   3.585   6.014   3.875  0.2243 -0.4062 -0.2034
 6045TIP3    H139626   3.567   6.072   3.800  0.0934 -1.5204 -1.0499
 6045TIP3    H239627   3.568   5.926   3.842  3.5093 -1.2609  0.0572
 6046TIP3   OH239628   0.291   3.686  13.367  0.1415 -0.1569  0.1573
 6046TIP3    H139629   0.282   3.634  13.287 -0.6250  0.2801 -0.0580
 6046TIP3    H239630   0.379   3.667  13.399  0.0844 -1.1290 -0.2302
 6047TIP3   OH239631   1.027   4.976  12.390 -0.1023  0.1422 -0.3754
 6047TIP3    H139632   1.060   5.006  12.475 -1.0500 -0.0715  0.0860
 6047TIP3    H239633   1.095   4.919  12.356  0.6254  0.8353 -0.1166
 6048TIP3   OH239634   1.331   6.302  12.734 -0.2352 -0.3754  0.0398
 6048TIP3    H139635   1.350   6.396  12.724  0.0620 -0.4339  0.0544
 6048TIP3    H239636   1.390   6.274  12.804 -0.9526 -0.3796  0.6491
 6049TIP3   OH239637   6.418   6.296   1.489 -0.4367 -0.2718 -0.3384
 6049TIP3    H139638   6.481   6.334   1.550  0.8312  0.4519 -2.0149
 6049TIP3    H239639   6.333   6.331   1.516  0.3750  1.7977 -0.2881
 6050TIP3   OH239640   1.298   6.705  15.509 -0.2273  0.1786  0.1608
 6050TIP3    H139641   1.287   6.612  15.528 -0.2523  0.4614  1.6330
 6050TIP3    H239642   1.239   6.749  15.569 -0.0835  1.1706 -0.3993
 6051TIP3   OH239643   1.949   6.657  14.238 -0.2352  0.6657 -0.1839
 6051TIP3    H139644   1.925   6.729  14.296  0.2867  1.0643 -0.4694
 6051TIP3    H239645   1.895   6.670  14.160 -1.6675 -0.4181  0.5714
 6052TIP3   OH239646   1.277   5.068   1.465  0.1166  0.4279 -0.3316
 6052TIP3    H139647   1.321   5.109   1.540  0.4971  1.7851 -1.2494
 6052TIP3    H239648   1.288   5.131   1.394  0.2703 -1.0691 -1.6987
 6053TIP3   OH239649   1.078   5.231   4.558  0.1999 -0.1777  0.0168
 6053TIP3    H139650   1.064   5.313   4.512  0.9366  0.4091  0.8189
 6053TIP3    H239651   1.161   5.198   4.524 -0.1731 -0.6768 -0.4211
 6054TIP3   OH239652   3.843   1.395  11.747 -0.3304 -0.5402 -0.0497
 6054TIP3    H139653   3.898   1.317  11.754  1.3110  0.6041  0.2752
 6054TIP3    H239654   3.765   1.374  11.799  1.8293 -0.5411  3.5272
 6055TIP3   OH239655   2.521   0.502  16.134 -0.1918 -1.2355  0.4080
 6055TIP3    H139656   2.604   0.500  16.087  0.4940 -0.0901  1.4923
 6055TIP3    H239657   2.542   0.469  16.222 -0.7440 -0.4611  0.8492
 6056TIP3   OH239658   1.648   1.125   1.099 -0.3318 -0.5764 -0.2119
 6056TIP3    H139659   1.718   1.137   1.163 -0.0223 -1.1805 -0.4345
 6056TIP3    H239660   1.660   1.198   1.037 -1.0078  0.3733  0.7269
 6057TIP3   OH239661   2.261   1.340  13.057 -0.4569 -0.5034 -0.2329
 6057TIP3    H139662   2.301   1.344  12.970 -0.0717  1.2350 -0.0118
 6057TIP3    H239663   2.216   1.424  13.066 -1.4068 -1.1076  0.8254
 6058TIP3   OH239664   1.674   4.327  14.484  0.2266  0.0480 -0.5483
 6058TIP3    H139665   1.618   4.299  14.411 -0.7419  0.2821  0.0842
 6058TIP3    H239666   1.672   4.423  14.479  1.1128  0.0559 -0.9116
 6059TIP3   OH239667   0.640   4.586  14.191  0.4107  0.5475 -0.4440
 6059TIP3    H139668   0.598   4.662  14.231  2.2812  1.3546  0.0862
 6059TIP3    H239669   0.652   4.610  14.100 -0.1481  0.3635 -0.5690
 6060TIP3   OH239670   3.356   5.857  15.544  0.3577  0.2859  0.0425
 6060TIP3    H139671   3.444   5.831  15.519  0.8884  1.9246  0.0767
 6060TIP3    H239672   3.333   5.928  15.483 -2.0264 -1.8252 -1.7373
 6061TIP3   OH239673   3.901   0.261   2.983  0.0480  0.1691  0.0185
 6061TIP3    H139674   3.928   0.214   2.904 -0.7430 -1.1657  0.5160
 6061TIP3    H239675   3.948   0.218   3.054 -1.5342 -0.6583  0.6127
 6062TIP3   OH239676   4.915   3.335   1.686 -0.3160 -0.4411  0.0178
 6062TIP3    H139677   4.888   3.412   1.636 -1.2519 -0.0690  1.0648
 6062TIP3    H239678   4.899   3.262   1.626  1.0170  0.1685 -1.1629
 6063TIP3   OH239679   0.850   0.314  15.436  0.3061  0.5939  0.6239
 6063TIP3    H139680   0.900   0.238  15.405  0.7283  0.2907  2.0002
 6063TIP3    H239681   0.882   0.387  15.383  1.2139  0.1508  0.5531
 6064TIP3   OH239682   1.061   3.114   2.366 -0.3688 -0.7222 -0.1110
 6064TIP3    H139683   1.070   3.207   2.388 -1.1688 -0.9211  1.1689
 6064TIP3    H239684   0.972   3.106   2.332 -0.9752 -1.3047  1.5064
 6065TIP3   OH239685   2.714   5.107   1.263 -0.5031  0.9195  0.2562
 6065TIP3    H139686   2.723   5.195   1.301 -1.2523  1.2935 -0.3974
 6065TIP3    H239687   2.762   5.112   1.180 -2.9563  1.6454 -1.2092
 6066TIP3   OH239688   5.572   1.975   5.503  0.2162 -0.3510 -0.2046
 6066TIP3    H139689   5.533   1.893   5.474 -0.2765 -0.9875  2.0777
 6066TIP3    H239690   5.596   2.020   5.422 -1.0788 -1.9663 -1.5566
 6067TIP3   OH239691   0.549   0.981   4.013 -0.1619  0.0981  0.3669
 6067TIP3    H139692   0.492   1.022   3.949  0.5061  0.9397  0.2919
 6067TIP3    H239693   0.537   0.887   3.999 -1.2395  0.2681  0.1161
 6068TIP3   OH239694   5.447   5.710   0.323 -0.2984  0.5413  0.2461
 6068TIP3    H139695   5.466   5.755   0.405 -1.3018  1.4320  0.0075
 6068TIP3    H239696   5.403   5.775   0.269  0.6708  0.0841 -1.1598
 6069TIP3   OH239697   0.301   2.377  15.606  0.3266  0.0196  0.4080
 6069TIP3    H139698   0.385   2.343  15.635  0.0732 -1.1336 -0.1710
 6069TIP3    H239699   0.257   2.404  15.687  0.9221 -0.1159  0.7821
 6070TIP3   OH239700   0.908   2.894   1.570  0.0318  0.0702 -0.3821
 6070TIP3    H139701   0.922   2.969   1.627 -2.1840  1.6663 -1.7535
 6070TIP3    H239702   0.976   2.902   1.503  0.2918  0.4038 -0.0779
 6071TIP3   OH239703   0.909   4.597   0.493 -0.7642 -0.0683  0.0638
 6071TIP3    H139704   0.916   4.648   0.412  1.2599  0.1740  0.3359
 6071TIP3    H239705   0.927   4.507   0.466  1.6756  0.2406  0.4275
 6072TIP3   OH239706   6.405   4.539   2.944  0.5897  0.1297  0.4065
 6072TIP3    H139707   6.361   4.623   2.957  0.1401 -0.0186 -0.1121
 6072TIP3    H239708   6.359   4.478   3.002 -0.6967 -0.2882 -0.9817
 6073TIP3   OH239709   2.972   4.560  12.815 -0.4151 -0.3386 -0.2831
 6073TIP3    H139710   3.016   4.638  12.850 -1.5271 -0.1912  0.8850
 6073TIP3    H239711   3.042   4.505  12.781  0.6352  0.0398  1.1803
 6074TIP3   OH239712   1.866   3.411   3.260 -0.1490 -0.1556  0.0100
 6074TIP3    H139713   1.779   3.421   3.299 -1.1669 -2.4886 -1.4566
 6074TIP3    H239714   1.914   3.357   3.323 -0.2537 -0.0779  0.1568
 6075TIP3   OH239715   0.959   2.707   2.507 -0.1849  0.1093 -0.2366
 6075TIP3    H139716   0.975   2.794   2.470  0.6268 -0.1450 -0.4879
 6075TIP3    H239717   0.987   2.715   2.599  2.2024 -0.5403 -0.8543
 6076TIP3   OH239718   2.845   0.034  13.276 -0.1668 -0.3962 -0.0640
 6076TIP3    H139719   2.917  -0.008  13.322  0.8463  0.2289 -1.0124
 6076TIP3    H239720   2.867   0.026  13.183 -1.2724 -0.1007 -0.3780
 6077TIP3   OH239721   4.798   0.652   2.813 -0.3431  0.6778 -0.2928
 6077TIP3    H139722   4.846   0.652   2.730  0.2530 -0.7097  0.0289
 6077TIP3    H239723   4.752   0.568   2.814  0.4380  0.2341  1.2027
 6078TIP3   OH239724   1.240   1.308   0.564 -0.1733  0.3219 -0.5913
 6078TIP3    H139725   1.310   1.286   0.625 -0.2845  2.3518  0.3262
 6078TIP3    H239726   1.165   1.329   0.619 -1.1705 -0.6246 -1.5307
 6079TIP3   OH239727   5.187   4.425   3.164  0.2360 -0.5321  0.5251
 6079TIP3    H139728   5.151   4.430   3.076  0.2784  0.4518  0.5500
 6079TIP3    H239729   5.132   4.360   3.208 -0.6981 -0.0103  0.1759
 6080TIP3   OH239730   0.364   4.884   2.009 -0.1442 -0.0036  0.0452
 6080TIP3    H139731   0.289   4.905   1.954 -0.5405 -0.5805  0.3547
 6080TIP3    H239732   0.435   4.864   1.948 -0.3021  0.3277 -0.2458
 6081TIP3   OH239733   3.459   2.257   2.842 -0.7336  0.5331 -0.7127
 6081TIP3    H139734   3.529   2.244   2.907 -0.1684 -0.8760 -1.5613
 6081TIP3    H239735   3.444   2.352   2.842  1.3988  0.9215 -0.7066
 6082TIP3   OH239736   0.183   6.636   5.413 -0.5738 -0.6396 -0.1193
 6082TIP3    H139737   0.155   6.614   5.324 -2.4878  0.4481  0.1754
 6082TIP3    H239738   0.103   6.629   5.466  0.7894 -2.7635  1.8545
 6083TIP3   OH239739   4.609   2.688  17.169  0.6351  0.9042  0.4205
 6083TIP3    H139740   4.572   2.610  17.209 -0.3552  1.0302 -0.2054
 6083TIP3    H239741   4.693   2.660  17.133 -0.4759 -0.3843 -1.3794
 6084TIP3   OH239742   5.812   0.768  12.891 -0.3470  0.1026 -0.1645
 6084TIP3    H139743   5.842   0.835  12.952  0.5763  0.8675 -1.4106
 6084TIP3    H239744   5.718   0.784  12.881 -0.3476  0.4822  0.4131
 6085TIP3   OH239745   3.314   5.634  11.683  0.1816 -0.6950  0.5032
 6085TIP3    H139746   3.243   5.572  11.668  1.1720 -1.5068 -1.1837
 6085TIP3    H239747   3.387   5.581  11.714  1.1312 -0.4923 -1.2293
 6086TIP3   OH239748   1.022   1.886   0.068  0.1704  0.7252 -0.0230
 6086TIP3    H139749   1.090   1.820   0.079 -0.9864 -0.6335 -0.6720
 6086TIP3    H239750   0.982   1.894   0.155 -0.6225 -0.5309 -0.2479
 6087TIP3   OH239751   6.547   4.866  16.544  0.4369 -0.5533  0.5950
 6087TIP3    H139752   6.621   4.873  16.605  0.7495  3.8537  0.0714
 6087TIP3    H239753   6.587   4.835  16.462  1.5283  0.5487  0.6719
 6088TIP3   OH239754   2.775   1.468  15.142 -0.1224  0.1523 -0.0435
 6088TIP3    H139755   2.736   1.380  15.142 -0.1744  0.1751 -0.0401
 6088TIP3    H239756   2.857   1.458  15.190 -0.2529  0.1588  0.1825
 6089TIP3   OH239757   5.711   5.026  15.651  0.7634  0.9436  0.7160
 6089TIP3    H139758   5.694   5.113  15.687  2.4177  1.4734  0.3225
 6089TIP3    H239759   5.630   4.977  15.666  0.0233  2.3516  1.5154
 6090TIP3   OH239760   4.517   2.769  10.896  0.2396  0.3162 -0.4731
 6090TIP3    H139761   4.431   2.811  10.900 -0.3161 -0.8888  0.6060
 6090TIP3    H239762   4.522   2.733  10.807 -0.5058  0.1076 -0.4322
 6091TIP3   OH239763   6.091   5.194  14.789  0.0784 -0.1974 -0.0229
 6091TIP3    H139764   6.181   5.190  14.757  0.8505 -0.6552  2.0164
 6091TIP3    H239765   6.100   5.192  14.884 -2.0683  0.6298  0.2507
 6092TIP3   OH239766   3.578   1.482  11.427  0.4170 -0.1065  0.3148
 6092TIP3    H139767   3.621   1.506  11.509  0.7264 -0.2855  0.2060
 6092TIP3    H239768   3.509   1.547  11.416 -0.3682 -0.7460  1.3007
 6093TIP3   OH239769   4.280   1.194   0.451 -0.0600 -0.0251 -0.3244
 6093TIP3    H139770   4.199   1.157   0.485  0.1108 -2.8337 -2.5548
 6093TIP3    H239771   4.272   1.184   0.356  2.5805  0.2628 -0.6406
 6094TIP3   OH239772   5.806   2.753  14.933  0.0848 -0.2687  0.2350
 6094TIP3    H139773   5.857   2.676  14.960  0.5408  0.1279  0.5100
 6094TIP3    H239774   5.837   2.823  14.990 -0.9502 -0.0777  0.5783
 6095TIP3   OH239775   1.993   0.099  11.914  0.3991  0.6628 -0.6201
 6095TIP3    H139776   2.066   0.041  11.940  0.8680  1.0266 -1.1227
 6095TIP3    H239777   1.962   0.136  11.997  1.3753  1.2026 -0.4868
 6096TIP3   OH239778   1.725   2.845  14.702  0.1181 -0.4939  0.7122
 6096TIP3    H139779   1.817   2.821  14.712 -0.1918 -1.2818  1.7842
 6096TIP3    H239780   1.703   2.821  14.612  0.5302 -1.8255  0.9571
 6097TIP3   OH239781   0.140   2.785  14.461  0.1445 -0.2032 -0.0178
 6097TIP3    H139782   0.103   2.697  14.469 -2.4633  0.7896 -0.2725
 6097TIP3    H239783   0.173   2.805  14.548 -0.2999 -1.0026  0.3487
 6098TIP3   OH239784   3.595   5.102  12.682 -0.2020  0.6177 -0.3917
 6098TIP3    H139785   3.640   5.151  12.751 -2.3086  0.6859  0.9946
 6098TIP3    H239786   3.615   5.010  12.701 -2.4345  0.4698  1.6502
 6099TIP3   OH239787   6.793   6.485  13.003 -0.3711 -0.2870 -0.0468
 6099TIP3    H139788   6.797   6.578  13.029 -1.0839 -0.7482  1.9080
 6099TIP3    H239789   6.711   6.477  12.955  0.3198  0.3319 -1.3803
 6100TIP3   OH239790   2.561   1.178  17.046  0.0682  0.1169 -0.3399
 6100TIP3    H139791   2.486   1.130  17.010 -0.4047 -0.2759  1.0935
 6100TIP3    H239792   2.632   1.114  17.046  0.0550  0.1005 -0.5112
 6101TIP3   OH239793   3.519   4.120  14.457  0.1469 -0.0696 -0.1694
 6101TIP3    H139794   3.511   4.054  14.526 -0.3041 -0.7389 -0.8561
 6101TIP3    H239795   3.574   4.079  14.391 -0.8060 -0.0863 -0.9773
 6102TIP3   OH239796   1.137   1.363   5.002  0.5138 -0.1710 -0.0912
 6102TIP3    H139797   1.180   1.378   5.087 -1.0217 -0.3529  0.7521
 6102TIP3    H239798   1.086   1.443   4.987 -1.5662 -1.2865  0.6357
 6103TIP3   OH239799   4.135   5.897  13.226  0.1424 -0.3149 -0.3433
 6103TIP3    H139800   4.083   5.942  13.159  1.9058  0.2933 -1.3938
 6103TIP3    H239801   4.093   5.812  13.236 -1.6160  0.5029 -0.3828
 6104TIP3   OH239802   6.314   1.662   6.685 -0.4493  0.8255  0.5420
 6104TIP3    H139803   6.331   1.568   6.697 -0.7143  0.4856 -1.3849
 6104TIP3    H239804   6.237   1.679   6.739 -1.3172 -0.4456 -0.2174
 6105TIP3   OH239805   6.118   4.612  11.734  0.4851  0.1266  0.0762
 6105TIP3    H139806   6.050   4.678  11.724  0.8980  0.6563  0.6098
 6105TIP3    H239807   6.200   4.659  11.715  0.6349 -0.7816 -1.6917
 6106TIP3   OH239808   5.467   1.392   4.081 -0.5126 -0.6769  0.5349
 6106TIP3    H139809   5.377   1.360   4.081 -0.8851  0.1656 -1.6563
 6106TIP3    H239810   5.470   1.457   4.151 -2.2343  0.7632 -0.6402
 6107TIP3   OH239811   5.920   6.620  11.964  0.3827 -0.3508 -0.6243
 6107TIP3    H139812   5.916   6.598  12.057  1.1017 -1.6899 -0.8817
 6107TIP3    H239813   5.879   6.706  11.958  0.0723 -0.3626  0.8866
 6108TIP3   OH239814   6.797   1.989   0.907 -0.2528  0.3935  0.0040
 6108TIP3    H139815   6.863   1.920   0.915  1.6026  2.1918  1.2723
 6108TIP3    H239816   6.732   1.967   0.973  0.1781 -0.2576  0.2266
 6109TIP3   OH239817   3.397   6.376  12.038  0.1458  0.2004  0.4087
 6109TIP3    H139818   3.437   6.294  12.009 -2.1182 -0.7335 -0.2342
 6109TIP3    H239819   3.348   6.408  11.962 -1.7446  0.3641  1.6373
 6110TIP3   OH239820   5.015   4.576  12.302 -0.0158  0.1422 -0.0358
 6110TIP3    H139821   5.069   4.560  12.379  0.6740 -0.7434 -0.6893
 6110TIP3    H239822   5.027   4.669  12.283 -0.5603  0.4868  1.1793
 6111TIP3   OH239823   2.685   4.898   4.095 -0.4391 -0.1012  0.2980
 6111TIP3    H139824   2.590   4.910   4.106 -0.5708 -1.2847  0.6739
 6111TIP3    H239825   2.708   4.835   4.164  0.3045 -1.1831 -0.9110
 6112TIP3   OH239826   1.153   4.353  17.073 -0.0130 -0.0555  0.1203
 6112TIP3    H139827   1.240   4.322  17.048  0.0835  0.6409 -0.4360
 6112TIP3    H239828   1.115   4.279  17.121  1.2347 -0.0442  1.2209
 6113TIP3   OH239829   3.943   0.881   5.825  0.3151 -0.2685  0.4173
 6113TIP3    H139830   3.856   0.903   5.792  1.0981 -2.0642 -3.4226
 6113TIP3    H239831   3.941   0.787   5.838  1.6213 -0.3170  0.4333
 6114TIP3   OH239832   5.771   2.880  14.012  0.7381 -0.1023  0.0225
 6114TIP3    H139833   5.750   2.973  14.003 -0.9374 -0.1472  2.5015
 6114TIP3    H239834   5.695   2.835  13.975  1.7669 -0.5600 -1.6431
 6115TIP3   OH239835   4.449   5.540   1.849  0.3345 -0.3212  0.2492
 6115TIP3    H139836   4.442   5.635   1.841  2.8281 -0.1424 -0.6175
 6115TIP3    H239837   4.453   5.508   1.759  1.5697 -1.0005  0.5193
 6116TIP3   OH239838   6.816   5.885   4.980  0.2161 -0.3662  0.1553
 6116TIP3    H139839   6.825   5.954   4.915 -0.9649 -0.8691 -0.5807
 6116TIP3    H239840   6.792   5.931   5.061  0.3102  0.1495 -0.1077
 6117TIP3   OH239841   5.976   3.235  16.093  0.2855  0.0587  1.0291
 6117TIP3    H139842   6.065   3.218  16.061  0.3755  1.7724  0.2099
 6117TIP3    H239843   5.938   3.149  16.105  0.8331 -0.7971 -2.2190
 6118TIP3   OH239844   0.211   1.426  11.170  0.1860  0.0035 -0.3430
 6118TIP3    H139845   0.130   1.476  11.176 -1.9073 -3.0256 -1.0398
 6118TIP3    H239846   0.254   1.459  11.091 -0.4206  1.5345 -0.0602
 6119TIP3   OH239847   2.863   0.917   4.378  0.0156 -0.2642  0.4232
 6119TIP3    H139848   2.858   0.824   4.354  1.4088 -0.2623  0.0380
 6119TIP3    H239849   2.775   0.950   4.362 -0.6600 -1.6374  1.1032
 6120TIP3   OH239850   0.777   5.178   3.212  0.4792 -0.8092  0.5193
 6120TIP3    H139851   0.871   5.163   3.228  0.0760 -0.9518  3.2196
 6120TIP3    H239852   0.735   5.096   3.237 -0.3615 -0.9150 -1.1325
 6121TIP3   OH239853   1.944   1.557  16.059  0.3484 -0.5626 -0.3534
 6121TIP3    H139854   1.959   1.547  16.153  1.7795  0.7202 -0.4113
 6121TIP3    H239855   1.872   1.620  16.053  1.3197  0.6064 -0.0967
 6122TIP3   OH239856   5.119   4.683   4.291 -0.6712 -0.1434 -0.1842
 6122TIP3    H139857   5.108   4.716   4.202  0.7655  0.2619 -0.2429
 6122TIP3    H239858   5.073   4.599   4.291 -1.7827  0.4327 -0.9161
 6123TIP3   OH239859   6.041   6.102  13.507 -0.4427 -0.3356  0.1813
 6123TIP3    H139860   5.969   6.042  13.525 -1.4781 -0.1398 -2.8123
 6123TIP3    H239861   6.095   6.055  13.443  0.7351  0.5147  0.5355
 6124TIP3   OH239862   0.719   3.191  11.996  0.4342  0.0889  0.1131
 6124TIP3    H139863   0.770   3.266  11.967  3.2764 -1.1847  1.4008
 6124TIP3    H239864   0.705   3.139  11.916  3.2917 -0.6693  0.0296
 6125TIP3   OH239865   2.513   2.761  13.381  0.5500  0.3798  0.7301
 6125TIP3    H139866   2.487   2.825  13.447 -1.7062  0.6536 -0.3095
 6125TIP3    H239867   2.441   2.698  13.380  0.6183  0.2692 -1.2780
 6126TIP3   OH239868   1.457   6.818  13.986  0.4267 -0.3517  0.3902
 6126TIP3    H139869   1.445   6.754  13.915  0.0124 -0.5609  0.6469
 6126TIP3    H239870   1.442   6.768  14.066  0.0375  0.0806  0.5898
 6127TIP3   OH239871   6.256   5.006   0.069 -0.5747 -0.9070 -0.4534
 6127TIP3    H139872   6.297   4.924   0.097  1.6406  0.2695 -0.0521
 6127TIP3    H239873   6.326   5.055   0.027 -0.8402  2.2171  2.3090
 6128TIP3   OH239874   0.921   1.609   4.887  0.0978 -0.4190  0.0133
 6128TIP3    H139875   0.946   1.559   4.809 -0.0450 -0.2540 -0.1398
 6128TIP3    H239876   0.846   1.563   4.922 -2.0408  1.3709 -1.8794
 6129TIP3   OH239877   4.895   1.964  16.162 -0.3974 -0.4202 -0.9232
 6129TIP3    H139878   4.978   2.011  16.150  0.4099 -2.2270 -3.1810
 6129TIP3    H239879   4.830   2.016  16.115 -0.4342  0.6244  0.2438
 6130TIP3   OH239880   6.279   6.670  12.240 -0.2552 -0.2073 -0.2031
 6130TIP3    H139881   6.246   6.759  12.231 -0.7416 -0.1514  1.5896
 6130TIP3    H239882   6.250   6.625  12.161  0.0569  1.2262 -1.1588
 6131TIP3   OH239883   4.745   4.138  14.764  0.1721 -0.7158  0.6409
 6131TIP3    H139884   4.651   4.124  14.749 -0.0814 -1.4934  2.6056
 6131TIP3    H239885   4.764   4.222  14.722 -1.5192 -0.2869  0.6567
 6132TIP3   OH239886   4.769   3.931   0.373  0.1894  0.2763 -0.7932
 6132TIP3    H139887   4.706   4.000   0.351 -2.4455 -1.6515  0.1591
 6132TIP3    H239888   4.781   3.939   0.468  0.1113 -0.3439 -0.7253
 6133TIP3   OH239889   3.922   5.661  16.179 -0.3644 -0.0547 -0.1130
 6133TIP3    H139890   3.844   5.646  16.126  0.1203 -1.5425 -0.4411
 6133TIP3    H239891   3.901   5.740  16.230 -1.6070  0.2507 -1.0484
 6134TIP3   OH239892   4.963   1.556   0.427  0.4819  0.0226 -0.1377
 6134TIP3    H139893   5.013   1.479   0.456 -0.2215 -0.3495  0.1205
 6134TIP3    H239894   5.027   1.628   0.429  0.2512  0.3425  3.6889
 6135TIP3   OH239895   0.977   4.779  11.441  0.1783  0.2881 -0.2682
 6135TIP3    H139896   0.928   4.861  11.452  1.8765  1.3731 -0.3860
 6135TIP3    H239897   0.962   4.754  11.350  1.2924  1.6353 -0.8608
 6136TIP3   OH239898   2.792   1.104  15.883  0.1465  0.1635  0.0660
 6136TIP3    H139899   2.719   1.078  15.828  1.6551  1.9960 -3.0442
 6136TIP3    H239900   2.751   1.139  15.962 -2.2945  0.2554 -1.1530
 6137TIP3   OH239901   0.431   1.148  11.100 -0.4282  0.3887  0.0647
 6137TIP3    H139902   0.347   1.192  11.086 -0.3242  0.5626 -0.0262
 6137TIP3    H239903   0.408   1.060  11.127 -0.6551 -0.0392 -1.4259
 6138TIP3   OH239904   0.302   5.052   0.930 -0.0982  0.2283 -0.5538
 6138TIP3    H139905   0.383   5.009   0.901  1.0471  0.4608  2.0209
 6138TIP3    H239906   0.331   5.114   0.998 -2.5796 -0.7938  1.5916
 6139TIP3   OH239907   0.398   1.178   2.442 -0.1166 -0.1104  0.4240
 6139TIP3    H139908   0.462   1.193   2.512 -1.2179 -0.8800  1.6450
 6139TIP3    H239909   0.352   1.098   2.468  0.6292 -1.4681 -2.1185
 6140TIP3   OH239910   2.833   1.439  11.405  0.2500 -0.2946  0.1376
 6140TIP3    H139911   2.894   1.511  11.419 -1.2642  1.0422  0.1812
 6140TIP3    H239912   2.834   1.391  11.488  1.6075 -0.6104 -0.0440
 6141TIP3   OH239913   1.035   5.482   5.566 -0.3933  0.4843  0.4522
 6141TIP3    H139914   1.057   5.564   5.523  0.7044 -0.0340  0.0095
 6141TIP3    H239915   0.966   5.444   5.511 -0.7562  0.9937  0.5440
 6142TIP3   OH239916   1.872   4.905  15.834 -0.3494 -0.1087  0.0900
 6142TIP3    H139917   1.875   4.853  15.915 -1.1800 -1.1675 -0.5399
 6142TIP3    H239918   1.845   4.843  15.766  0.2597  0.7848 -1.0009
 6143TIP3   OH239919   1.483   2.549   5.263  0.4732  0.0011  0.1574
 6143TIP3    H139920   1.444   2.637   5.260  0.7601  0.1556  0.7939
 6143TIP3    H239921   1.455   2.508   5.181  1.0026  0.9627 -0.5281
 6144TIP3   OH239922   6.445   0.729   4.504 -0.1902  0.7650  0.0647
 6144TIP3    H139923   6.451   0.654   4.445  1.5444  1.2447 -0.3987
 6144TIP3    H239924   6.368   0.710   4.558  0.8044 -1.8998  0.7107
 6145TIP3   OH239925   0.018   6.348   0.666  0.4848  0.0643 -0.6057
 6145TIP3    H139926  -0.028   6.273   0.629  1.3262 -0.8504  0.1562
 6145TIP3    H239927   0.068   6.313   0.739  0.5247  1.4597  0.0834
 6146TIP3   OH239928   5.212   5.174  13.014  0.0614  0.1521 -0.2279
 6146TIP3    H139929   5.181   5.126  13.091 -0.4522  1.5712  0.5010
 6146TIP3    H239930   5.144   5.239  12.997  1.1048  1.1993 -0.6135
 6147TIP3   OH239931   1.759   2.093   0.955  0.3237  0.5709 -0.6085
 6147TIP3    H139932   1.674   2.077   0.996  0.3755  0.3067 -0.6055
 6147TIP3    H239933   1.776   2.016   0.902  0.6588  0.5309 -0.4452
 6148TIP3   OH239934   5.631   6.221   2.912  0.4520  0.3866 -0.2386
 6148TIP3    H139935   5.612   6.150   2.973 -0.8204  0.3058 -0.7021
 6148TIP3    H239936   5.578   6.201   2.835  0.1591  1.7757 -0.4160
 6149TIP3   OH239937   5.362   0.860   1.288 -0.3218 -0.5490 -0.2075
 6149TIP3    H139938   5.376   0.845   1.195 -1.9487 -1.4429 -0.3396
 6149TIP3    H239939   5.269   0.881   1.295 -0.1315 -0.0617  1.1729
 6150TIP3   OH239940   4.997   1.712  11.356  0.1887  0.0253  0.1274
 6150TIP3    H139941   5.041   1.684  11.275 -1.4083 -0.1340 -0.7412
 6150TIP3    H239942   4.971   1.802  11.339  1.2844  0.5431  1.1295
 6151TIP3   OH239943   5.731   0.813   5.671  0.2118 -0.3806 -0.1558
 6151TIP3    H139944   5.790   0.836   5.743 -1.0643  0.0510  0.7882
 6151TIP3    H239945   5.662   0.878   5.676 -0.3302 -0.8551 -1.2696
 6152TIP3   OH239946   6.005   2.419   1.909  0.1955  0.0626  0.1093
 6152TIP3    H139947   5.967   2.382   1.830 -0.5795 -0.5267  0.7452
 6152TIP3    H239948   5.935   2.470   1.949  0.5214  0.1908  0.5296
 6153TIP3   OH239949   6.514   3.146   5.677  0.6914 -0.1990  0.1833
 6153TIP3    H139950   6.609   3.135   5.683  0.7495 -0.1697 -0.5405
 6153TIP3    H239951   6.491   3.199   5.753  1.7460  2.7726 -1.3813
 6154TIP3   OH239952   6.682   4.534   6.033 -0.3754 -0.3139 -0.4029
 6154TIP3    H139953   6.646   4.470   6.095  0.1545 -0.5663 -0.3532
 6154TIP3    H239954   6.706   4.482   5.956  1.4903 -0.4326  0.2190
 6155TIP3   OH239955   4.772   3.494  10.910 -0.5181 -0.2760 -0.8288
 6155TIP3    H139956   4.843   3.438  10.939  0.3734  0.0817 -2.2185
 6155TIP3    H239957   4.805   3.583  10.920 -1.4250 -0.0274  0.1189
 6156TIP3   OH239958   3.299   3.080   3.561  0.2161  0.0799 -0.0526
 6156TIP3    H139959   3.344   3.068   3.477 -0.1745 -0.3483 -0.2039
 6156TIP3    H239960   3.340   3.016   3.620  0.1863  0.0729 -0.0394
 6157TIP3   OH239961   2.216   0.473   0.533 -0.1763 -0.2064  0.5659
 6157TIP3    H139962   2.196   0.518   0.615 -0.7373  0.1218  0.2623
 6157TIP3    H239963   2.149   0.405   0.526 -1.2432  0.8930 -0.4579
 6158TIP3   OH239964   2.061   0.205   4.061 -0.2280 -0.1388  0.3306
 6158TIP3    H139965   2.120   0.281   4.054 -0.9292  0.4498  0.6727
 6158TIP3    H239966   2.119   0.132   4.083  0.5078  0.2126 -0.3768
 6159TIP3   OH239967   2.434   4.096  12.458 -0.2432 -0.1198 -0.2732
 6159TIP3    H139968   2.452   4.153  12.383 -1.7506 -0.5761 -1.0194
 6159TIP3    H239969   2.398   4.156  12.524  3.7755  0.8460  1.3269
 6160TIP3   OH239970   0.641   3.846  15.339 -0.1824  0.0098 -0.0256
 6160TIP3    H139971   0.684   3.815  15.418 -1.9103 -0.9955  0.5852
 6160TIP3    H239972   0.549   3.857  15.364 -0.5523  0.8255 -1.5871
 6161TIP3   OH239973   4.947   0.538  15.197  0.0067  0.4346 -0.0151
 6161TIP3    H139974   4.959   0.503  15.286  1.9905 -1.0176 -0.7842
 6161TIP3    H239975   4.978   0.628  15.202  1.3071 -0.0164  0.5265
 6162TIP3   OH239976   5.454   5.350  11.714 -0.4849 -0.3189  0.0583
 6162TIP3    H139977   5.462   5.341  11.809  1.4497 -1.8646 -0.1781
 6162TIP3    H239978   5.466   5.443  11.697  1.6348 -0.3225  1.1848
 6163TIP3   OH239979   4.897   0.399   1.795  0.1242 -0.1012  0.3136
 6163TIP3    H139980   4.949   0.468   1.754  0.4798 -0.4287  0.2073
 6163TIP3    H239981   4.955   0.323   1.798 -0.5485 -0.6831 -0.4369
 6164TIP3   OH239982   4.464   0.270   5.062 -0.1236  0.5672  0.0612
 6164TIP3    H139983   4.418   0.353   5.074  0.7236  0.9879  0.4868
 6164TIP3    H239984   4.501   0.250   5.148  2.6084  1.5372 -0.7983
 6165TIP3   OH239985   1.041   6.270  13.885  0.4077 -0.0346 -0.2192
 6165TIP3    H139986   0.994   6.300  13.963  0.0721 -1.0200 -0.0315
 6165TIP3    H239987   1.106   6.338  13.869 -1.5530  1.7918 -0.9357
 6166TIP3   OH239988   4.096   2.977   4.956  0.4660  0.0611 -1.1544
 6166TIP3    H139989   4.158   2.907   4.976  0.8854  0.1981 -1.9650
 6166TIP3    H239990   4.139   3.057   4.987  0.2482  0.0395 -0.7867
 6167TIP3   OH239991   1.022   1.304   6.319  0.0784  0.3350 -0.1233
 6167TIP3    H139992   1.111   1.276   6.340  0.6865  2.1875 -0.0451
 6167TIP3    H239993   0.966   1.247   6.372  1.0277 -2.4366 -1.8581
 6168TIP3   OH239994   4.347   5.038   3.531  0.4315 -0.0924  0.0195
 6168TIP3    H139995   4.350   5.055   3.625 -0.4663  0.0018  0.0330
 6168TIP3    H239996   4.254   5.030   3.510  0.4938  1.8352 -1.2161
 6169TIP3   OH239997   3.155   2.276  15.210 -0.0241  0.1539  0.1242
 6169TIP3    H139998   3.225   2.211  15.222 -0.8150 -0.6378  0.5987
 6169TIP3    H239999   3.126   2.262  15.119  1.3825  1.4810 -0.5682
 6170TIP3   OH240000   5.360   2.072   0.108 -0.3377  0.2401 -0.2275
 6170TIP3    H140001   5.298   2.034   0.046  0.5084 -0.0863 -0.9032
 6170TIP3    H240002   5.331   2.162   0.120 -0.8784  0.1189 -0.6100
 6171TIP3   OH240003   6.644   5.858   1.541  0.1153  0.1658  0.2928
 6171TIP3    H140004   6.596   5.940   1.550  0.0983 -0.0122  2.0990
 6171TIP3    H240005   6.648   5.822   1.629 -1.2552 -2.5577 -0.6145
 6172TIP3   OH240006   6.341   2.028   1.458 -0.1350  0.0085  0.3314
 6172TIP3    H140007   6.317   2.056   1.370 -0.0163 -0.3129  0.1943
 6172TIP3    H240008   6.362   2.109   1.504 -0.1080  0.1712  0.0360
 6173TIP3   OH240009   4.236   5.652  16.714 -0.0591  0.3097 -0.4485
 6173TIP3    H140010   4.150   5.627  16.682  0.0096 -1.9044  0.8895
 6173TIP3    H240011   4.228   5.745  16.735 -1.3728  0.7330 -2.5923
 6174TIP3   OH240012   4.311   1.148  11.822  0.0889  0.3549  0.4987
 6174TIP3    H140013   4.298   1.076  11.883 -2.1487  0.6991  0.5249
 6174TIP3    H240014   4.334   1.106  11.739 -0.9683 -0.4130  0.5739
 6175TIP3   OH240015   2.812   0.409   5.484  0.1765  0.1479 -0.7378
 6175TIP3    H140016   2.815   0.500   5.514  0.9267 -0.6506  1.8398
 6175TIP3    H240017   2.722   0.381   5.500  0.4218 -0.0910  0.3423
 6176TIP3   OH240018   2.446   1.259   0.867 -0.3477 -0.0567  0.1270
 6176TIP3    H140019   2.511   1.231   0.803 -1.7503  0.1247 -1.4830
 6176TIP3    H240020   2.415   1.178   0.907  2.2296 -0.0299  2.4495
 6177TIP3   OH240021   5.283   0.032   1.421  0.2826  0.1667  0.5224
 6177TIP3    H140022   5.374   0.045   1.397  0.3631 -1.1818 -0.0221
 6177TIP3    H240023   5.249  -0.029   1.354  0.0161 -2.3676  2.7735
 6178TIP3   OH240024   3.218   5.742  11.956 -0.2079 -0.4853  0.2509
 6178TIP3    H140025   3.256   5.712  11.873 -0.2046  1.7648 -0.6577
 6178TIP3    H240026   3.268   5.698  12.024  2.9792  1.0253 -0.9247
 6179TIP3   OH240027   2.052   4.382  14.039 -0.6715  0.4502 -0.2875
 6179TIP3    H140028   2.010   4.332  13.969  0.4928 -2.0915  0.6897
 6179TIP3    H240029   2.133   4.335  14.056 -0.7219  1.2131  2.4927
 6180TIP3   OH240030   1.887   6.570   5.211  0.6512  0.4121 -0.2516
 6180TIP3    H140031   1.874   6.607   5.298  2.1604  1.3123 -0.3794
 6180TIP3    H240032   1.948   6.498   5.225 -1.0453 -1.1159 -0.2429
 6181TIP3   OH240033   2.870   2.411  16.567  0.0041 -0.6209 -0.0316
 6181TIP3    H140034   2.816   2.339  16.535 -0.8786  0.8440 -2.0672
 6181TIP3    H240035   2.943   2.415  16.505  1.2806 -1.1414  1.3821
 6182TIP3   OH240036   2.195   4.343   0.427 -0.0540  0.0747 -0.5585
 6182TIP3    H140037   2.209   4.268   0.486 -1.0679  1.4354  1.5467
 6182TIP3    H240038   2.280   4.385   0.421  0.1624 -0.3310 -0.4222
 6183TIP3   OH240039   2.927   6.816  11.323 -0.9283  0.5826 -0.3159
 6183TIP3    H140040   2.935   6.721  11.310 -0.5599  0.5281  0.2869
 6183TIP3    H240041   2.998   6.838  11.384 -2.1197  0.9534  0.9758
 6184TIP3   OH240042   5.146   3.692   5.237  0.3888 -0.0144  0.2670
 6184TIP3    H140043   5.199   3.653   5.306 -0.2434 -0.6032  0.4284
 6184TIP3    H240044   5.056   3.670   5.260 -0.1669  2.7428  1.1454
 6185TIP3   OH240045   1.495   2.189  11.807  0.1215  1.1229 -1.1568
 6185TIP3    H140046   1.584   2.160  11.826 -0.4554  0.2538  0.4291
 6185TIP3    H240047   1.449   2.109  11.780 -0.7508  1.0767  0.3755
 6186TIP3   OH240048   3.138   5.005  12.491 -0.6966  0.2053  0.1561
 6186TIP3    H140049   3.075   5.042  12.430  0.7285  0.8992 -0.9551
 6186TIP3    H240050   3.114   5.042  12.576 -1.1785  1.2370 -0.4118
 6187TIP3   OH240051   3.490   6.533   2.695  0.1018 -0.0513 -0.1681
 6187TIP3    H140052   3.575   6.548   2.736 -0.3100 -0.1976  0.7580
 6187TIP3    H240053   3.434   6.603   2.727 -0.5013 -0.7477  0.3462
 6188TIP3   OH240054   2.592   5.336  14.067  0.1321 -0.0391  1.1687
 6188TIP3    H140055   2.528   5.353  14.136  0.1001  0.9222  0.9107
 6188TIP3    H240056   2.632   5.252  14.092 -1.7161 -1.0351  0.9628
 6189TIP3   OH240057   2.899   2.807  15.419  0.4806 -0.6343 -0.1923
 6189TIP3    H140058   2.874   2.889  15.460  0.3400 -0.4570 -0.6232
 6189TIP3    H240059   2.819   2.775  15.378 -0.5055 -2.9732  3.1921
 6190TIP3   OH240060   3.344   3.421   2.901  0.3982  0.3030 -0.0723
 6190TIP3    H140061   3.363   3.351   2.963 -2.1786 -0.4942 -0.0636
 6190TIP3    H240062   3.356   3.501   2.951  2.0150 -0.1548  0.3277
 6191TIP3   OH240063   2.007   2.648  16.198  0.5325 -0.0804  0.0294
 6191TIP3    H140064   2.056   2.617  16.274 -0.6977  0.0267  0.8998
 6191TIP3    H240065   1.955   2.721  16.231 -2.0524 -1.6730 -0.1932
 6192TIP3   OH240066   2.224   2.864  16.527  0.3966  0.2863  0.4028
 6192TIP3    H140067   2.233   2.937  16.589 -0.3103  0.2369  0.5752
 6192TIP3    H240068   2.175   2.798  16.576  1.6326 -0.5976  0.4758
 6193TIP3   OH240069   5.202   4.774   1.569 -0.0741 -0.3644 -0.0413
 6193TIP3    H140070   5.210   4.827   1.648  0.3958 -0.3284 -0.1117
 6193TIP3    H240071   5.149   4.828   1.510  2.3834  1.1268 -1.0199
 6194TIP3   OH240072   5.561   4.611  12.608  0.1049  0.1044 -0.0964
 6194TIP3    H140073   5.584   4.700  12.581 -1.9446  0.1734 -1.8503
 6194TIP3    H240074   5.544   4.565  12.526 -2.2081 -0.9214  0.8859
 6195TIP3   OH240075   1.289   6.146   3.580 -0.5174 -0.1712 -0.1674
 6195TIP3    H140076   1.258   6.231   3.550 -0.6596 -0.3149 -0.4335
 6195TIP3    H240077   1.220   6.084   3.554 -0.3362 -0.3907 -0.1353
 6196TIP3   OH240078   6.574   5.680  13.890  0.0329 -0.1319  0.4134
 6196TIP3    H140079   6.548   5.696  13.980 -0.9765 -0.8482  0.2642
 6196TIP3    H240080   6.501   5.633  13.851  1.7756 -2.8447  0.1387
 6197TIP3   OH240081   3.916   4.464   0.660  0.1276  0.0844  0.0815
 6197TIP3    H140082   3.870   4.488   0.741 -2.0822 -1.2826 -0.6877
 6197TIP3    H240083   3.892   4.533   0.598  2.2851  1.4520  0.6480
 6198TIP3   OH240084   4.787   1.994  13.918 -0.4093  0.3305  0.2236
 6198TIP3    H140085   4.875   2.023  13.894  0.1126 -0.7927  0.7080
 6198TIP3    H240086   4.788   1.991  14.013 -1.6087  2.1394  0.3452
 6199TIP3   OH240087   3.621   1.007  14.099  0.3041  0.8632 -0.2794
 6199TIP3    H140088   3.705   1.045  14.124  0.7991  0.5260 -1.3510
 6199TIP3    H240089   3.606   1.038  14.010  0.2430 -0.6024 -0.8186
 6200TIP3   OH240090   5.472   3.685   3.347  0.2505  0.7695  0.3890
 6200TIP3    H140091   5.417   3.679   3.425 -0.1908 -0.4294  0.0118
 6200TIP3    H240092   5.410   3.679   3.274  0.8967 -1.2875 -0.0465
 6201TIP3   OH240093   4.590   5.396   0.332 -0.3102 -0.1371 -0.2721
 6201TIP3    H140094   4.626   5.323   0.383 -1.5196 -1.1183 -0.7648
 6201TIP3    H240095   4.546   5.354   0.258 -1.4300  1.0663 -0.3231
 6202TIP3   OH240096   3.361   5.033   4.279  0.4996 -0.4332 -0.1614
 6202TIP3    H140097   3.420   4.965   4.246 -0.7826 -0.2677 -3.1267
 6202TIP3    H240098   3.276   4.990   4.283  0.2289  0.1908  0.9343
 6203TIP3   OH240099   2.940   6.489   6.238 -0.2888 -0.4478 -0.4782
 6203TIP3    H140100   2.950   6.394   6.231  1.7082 -0.6572  2.9795
 6203TIP3    H240101   2.868   6.501   6.300  1.1710  0.0871  1.2175
 6204TIP3   OH240102   5.057   0.207  16.137 -0.1855  0.1786 -0.1171
 6204TIP3    H140103   5.061   0.296  16.172  1.1845  0.3111 -0.5396
 6204TIP3    H240104   4.982   0.167  16.182  0.7274  0.7248  2.0309
 6205TIP3   OH240105   5.129   0.411   0.559 -0.4282 -0.9885 -0.8778
 6205TIP3    H140106   5.068   0.341   0.582 -1.6215 -0.1624 -1.4026
 6205TIP3    H240107   5.149   0.454   0.642 -2.4646  0.1952 -0.9182
 6206TIP3   OH240108   6.223   3.540  11.945  0.7854 -0.2332 -0.1621
 6206TIP3    H140109   6.269   3.528  12.029  1.0542 -0.2596 -0.3121
 6206TIP3    H240110   6.232   3.633  11.926  0.3303 -0.1409  0.0629
 6207TIP3   OH240111   5.969   4.809  14.867 -0.0074  0.2001 -0.1415
 6207TIP3    H140112   5.898   4.749  14.841 -0.4609 -0.2172  1.9058
 6207TIP3    H240113   6.049   4.762  14.846 -0.3540 -0.3863 -0.1819
 6208TIP3   OH240114   2.611   3.346  14.631  0.0551  0.6805 -0.6104
 6208TIP3    H140115   2.533   3.328  14.683 -0.9648 -0.0979 -2.2938
 6208TIP3    H240116   2.674   3.382  14.693 -0.9651 -0.4858  1.1950
 6209TIP3   OH240117   5.920   0.551   5.912 -0.1595 -0.3467 -0.7775
 6209TIP3    H140118   5.896   0.580   6.000 -1.4346 -0.1768 -1.1602
 6209TIP3    H240119   5.836   0.529   5.870  0.5779 -2.3258 -1.3071
 6210TIP3   OH240120   3.356   2.385  16.326 -0.5071 -0.1862 -0.3378
 6210TIP3    H140121   3.437   2.345  16.357  0.4069  2.0380  0.3584
 6210TIP3    H240122   3.308   2.313  16.285  1.3355 -1.7908  0.1505
 6211TIP3   OH240123   4.113   4.733  14.222  0.8790  0.4601 -0.0077
 6211TIP3    H140124   4.153   4.661  14.271 -0.7709 -0.4371  0.0968
 6211TIP3    H240125   4.173   4.806  14.233  1.3516 -0.1792  2.0148
 6212TIP3   OH240126   3.544   2.717   0.789  0.6782 -0.7424 -0.2230
 6212TIP3    H140127   3.481   2.742   0.856  0.3367 -0.4814 -0.6386
 6212TIP3    H240128   3.528   2.778   0.717  1.7234 -0.3654 -0.1461
 6213TIP3   OH240129   3.766   4.883   2.757 -0.7443 -0.0694  0.0698
 6213TIP3    H140130   3.719   4.922   2.683  0.5924  1.8930  0.1628
 6213TIP3    H240131   3.844   4.844   2.718 -0.7974 -0.3857  0.2753
 6214TIP3   OH240132   0.257   4.348   3.557 -0.4752 -0.3488 -0.6764
 6214TIP3    H140133   0.343   4.386   3.540 -0.4892  0.2766  0.5359
 6214TIP3    H240134   0.275   4.256   3.580 -0.1675 -0.3123 -0.7717
 6215TIP3   OH240135   4.594   2.101   0.477 -0.0808 -0.4948  0.6063
 6215TIP3    H140136   4.684   2.075   0.496  0.0334 -3.2265 -2.7470
 6215TIP3    H240137   4.542   2.024   0.498 -1.2838  0.1136 -0.0308
 6216TIP3   OH240138   6.036   5.882  17.237  0.1023 -0.4301 -0.0389
 6216TIP3    H140139   6.062   5.974  17.226  1.9249 -1.0408 -1.2615
 6216TIP3    H240140   6.086   5.852  17.313 -0.5621 -0.4033  0.4170
 6217TIP3   OH240141   3.049   1.353  13.452 -0.0685 -0.0957  0.2471
 6217TIP3    H140142   3.020   1.293  13.384  0.3639 -0.1686  0.1253
 6217TIP3    H240143   3.126   1.396  13.416 -0.0091  0.0811  0.5744
 6218TIP3   OH240144   6.076   6.151  11.011  0.3212 -0.0414 -0.4022
 6218TIP3    H140145   6.084   6.227  10.953  0.4439 -0.0856 -0.4429
 6218TIP3    H240146   6.083   6.075  10.953  0.3402 -0.0849 -0.3438
 6219TIP3   OH240147   1.552   3.864   0.295 -0.5860  0.0238 -0.1018
 6219TIP3    H140148   1.458   3.877   0.306 -0.2248  1.8961  1.0326
 6219TIP3    H240149   1.591   3.894   0.377  0.9246 -2.2097  0.0891
 6220TIP3   OH240150   2.799   0.932  10.710 -0.4312 -0.3026  0.2370
 6220TIP3    H140151   2.842   0.936  10.625 -1.6837 -1.0833 -0.4548
 6220TIP3    H240152   2.867   0.959  10.772  0.3124  0.9051 -1.0571
 6221TIP3   OH240153   2.009   5.730   1.111 -0.2781 -0.1843  0.0615
 6221TIP3    H140154   1.975   5.814   1.142  0.6380  0.9099 -1.6959
 6221TIP3    H240155   1.933   5.683   1.078 -0.5895  0.7343 -0.5719
 6222TIP3   OH240156   1.649   3.123   2.423  0.4691  0.4101  0.3722
 6222TIP3    H140157   1.570   3.172   2.400  0.5770 -0.2001 -1.4819
 6222TIP3    H240158   1.678   3.160   2.506 -0.9605  1.6185  0.3571
 6223TIP3   OH240159   1.887   3.867   1.894  0.1258  0.2440 -0.2791
 6223TIP3    H140160   1.870   3.775   1.873  0.0110  0.1069  0.3882
 6223TIP3    H240161   1.884   3.871   1.990  1.1122  0.7529 -0.2565
 6224TIP3   OH240162   4.148   2.414  11.642  0.4429 -0.5550  0.4044
 6224TIP3    H140163   4.127   2.391  11.733 -0.0063 -3.7101 -0.3661
 6224TIP3    H240164   4.240   2.438  11.643  1.1404 -2.9736  1.4181
 6225TIP3   OH240165   4.152   5.303   6.523  0.5700 -0.6809 -0.0142
 6225TIP3    H140166   4.086   5.291   6.591  0.9955 -0.7445  0.3940
 6225TIP3    H240167   4.157   5.398   6.511 -1.6025 -0.7221 -2.0600
 6226TIP3   OH240168   6.447   3.853  14.385  0.1118 -0.1321 -0.1608
 6226TIP3    H140169   6.423   3.761  14.396 -2.2332  0.4206 -0.1313
 6226TIP3    H240170   6.450   3.888  14.474  2.6136 -0.4676 -0.0320
 6227TIP3   OH240171   4.534   2.618   1.939 -0.7585 -0.3649  0.0959
 6227TIP3    H140172   4.568   2.680   1.875 -1.8033 -1.3436 -1.4615
 6227TIP3    H240173   4.486   2.672   2.001  1.0233  0.6957  0.6262
 6228TIP3   OH240174   3.835   4.112  16.612 -0.5932  0.4133 -0.3484
 6228TIP3    H140175   3.870   4.085  16.527 -2.0238  1.0748 -1.1868
 6228TIP3    H240176   3.769   4.047  16.632 -1.7477  1.4094 -0.7943
 6229TIP3   OH240177   3.133   3.929  15.373  0.4003 -0.8235 -0.5447
 6229TIP3    H140178   3.160   3.948  15.284  0.4539 -0.5371 -0.4657
 6229TIP3    H240179   3.037   3.937  15.372  0.4747  0.2314 -0.3293
 6230TIP3   OH240180   2.668   5.860  11.193 -0.0164  0.3093  0.2536
 6230TIP3    H140181   2.649   5.952  11.211 -1.2589 -0.0086  0.6560
 6230TIP3    H240182   2.600   5.834  11.132  0.9190 -0.0978 -0.6410
 6231TIP3   OH240183   4.752   4.405  11.081 -0.0342 -0.0195 -0.3177
 6231TIP3    H140184   4.750   4.345  11.156  0.9088  0.7850  0.3874
 6231TIP3    H240185   4.664   4.442  11.077 -0.1256 -0.1581  0.3269
 6232TIP3   OH240186   6.470   1.890  16.409 -0.0820  0.3103 -0.1348
 6232TIP3    H140187   6.517   1.811  16.381 -0.4593 -0.6968  1.9019
 6232TIP3    H240188   6.540   1.952  16.433  0.2122 -0.0054 -0.1692
 6233TIP3   OH240189   1.796   5.280   1.158 -0.2546 -0.0664  0.4226
 6233TIP3    H140190   1.884   5.267   1.124 -1.0187 -0.8568 -1.3565
 6233TIP3    H240191   1.739   5.275   1.081 -1.7390  1.9435  1.3090
 6234TIP3   OH240192   2.402   2.939  11.768 -0.3020  0.7204  0.1137
 6234TIP3    H140193   2.352   2.953  11.849 -0.0685 -0.7730  0.5337
 6234TIP3    H240194   2.425   3.028  11.739 -0.8675  1.3065  1.3766
 6235TIP3   OH240195   6.310   4.367  14.940  0.0866 -0.1615 -0.3105
 6235TIP3    H140196   6.307   4.440  15.001 -0.3180 -1.1303  0.8787
 6235TIP3    H240197   6.226   4.323  14.952  0.0886 -0.4843 -1.4261
 6236TIP3   OH240198   1.564   2.359  11.217 -0.1412 -0.0533 -0.1957
 6236TIP3    H140199   1.618   2.435  11.236 -0.6521  0.6307 -1.3733
 6236TIP3    H240200   1.567   2.351  11.122 -0.3442 -1.3360 -0.1185
 6237TIP3   OH240201   1.337   4.640  15.807 -0.0042 -0.7321  0.2628
 6237TIP3    H140202   1.293   4.725  15.804  1.2967  0.1078  2.2680
 6237TIP3    H240203   1.303   4.592  15.731 -1.9211  0.9943 -0.0671
 6238TIP3   OH240204   6.412   4.649  12.058 -0.1215 -0.0362  1.1802
 6238TIP3    H140205   6.343   4.714  12.045 -0.6319 -0.2072  2.8912
 6238TIP3    H240206   6.490   4.701  12.076  0.1180  0.1389 -0.2026
 6239TIP3   OH240207   1.520   5.640  12.276  0.3228 -0.1709 -0.0572
 6239TIP3    H140208   1.449   5.603  12.224  0.9871  0.2575 -1.3202
 6239TIP3    H240209   1.589   5.658  12.212  1.9652 -1.4648  1.2467
 6240TIP3   OH240210   6.515   0.890   3.800  0.5498  0.2480 -0.1671
 6240TIP3    H140211   6.473   0.974   3.782  0.5223  0.5798  1.3054
 6240TIP3    H240212   6.444   0.832   3.826  0.7995  0.3940  0.8958
 6241TIP3   OH240213   4.965   3.355  14.862  0.5681  0.1804  0.8838
 6241TIP3    H140214   4.979   3.304  14.782  0.6799 -0.3347  1.2224
 6241TIP3    H240215   5.030   3.321  14.924  0.3314  0.4094  1.2640
 6242TIP3   OH240216   5.703   0.861  16.015  0.1590 -0.3587 -0.4790
 6242TIP3    H140217   5.737   0.912  15.942  0.5322  2.3940  1.4486
 6242TIP3    H240218   5.781   0.839  16.067 -0.3791  0.6782  0.8137
 6243TIP3   OH240219   6.575   6.763   0.416 -0.4138  0.1638  0.1747
 6243TIP3    H140220   6.501   6.725   0.370 -0.8065  0.8767  0.2008
 6243TIP3    H240221   6.591   6.847   0.372  0.0477  0.2481  0.4902
 6244TIP3   OH240222   4.719   6.261   2.259 -0.4602 -0.2125 -0.0554
 6244TIP3    H140223   4.762   6.325   2.314 -0.0413  0.2409 -0.8918
 6244TIP3    H240224   4.743   6.286   2.170 -1.1578 -0.8991 -0.4478
 6245TIP3   OH240225   4.667   4.757  13.706 -0.1844 -0.7703 -0.2249
 6245TIP3    H140226   4.633   4.844  13.727 -0.6373 -0.7585 -0.9677
 6245TIP3    H240227   4.682   4.716  13.791  1.2739  0.4873  0.1636
 6246TIP3   OH240228   1.651   2.983   5.486 -0.1196  0.0583  0.0210
 6246TIP3    H140229   1.700   2.973   5.404  0.4709 -0.3756  0.4267
 6246TIP3    H240230   1.691   2.920   5.546 -0.4687  0.4616  0.6818
 6247TIP3   OH240231   0.312   3.433  12.227  0.2771 -0.0930  0.4065
 6247TIP3    H140232   0.242   3.383  12.184 -0.3188  0.4747  0.6866
 6247TIP3    H240233   0.391   3.382  12.212 -0.3184 -1.1207  0.7019
 6248TIP3   OH240234   3.259   5.025   1.209  0.3319 -0.0012 -0.3608
 6248TIP3    H140235   3.323   5.086   1.173  0.2790 -0.2825 -0.9552
 6248TIP3    H240236   3.252   5.048   1.301  0.8590  0.4070 -0.4202
 6249TIP3   OH240237   2.834   4.362   5.251  0.1894  0.1372  0.6991
 6249TIP3    H140238   2.807   4.317   5.332 -0.7528 -2.3562 -0.8942
 6249TIP3    H240239   2.926   4.382   5.265  0.0299 -0.1573  2.4175
 6250TIP3   OH240240   3.410   4.915  14.657  0.2365 -0.0178  0.0898
 6250TIP3    H140241   3.377   4.833  14.619  1.9285 -0.2646 -0.9628
 6250TIP3    H240242   3.436   4.891  14.746 -1.6498  0.0228  0.6982
 6251TIP3   OH240243   4.568   3.894  12.803  0.0632  0.5184  0.3178
 6251TIP3    H140244   4.546   3.842  12.726  1.0563  0.7329 -0.1369
 6251TIP3    H240245   4.635   3.955  12.771 -0.6823  1.7168  0.9600
 6252TIP3   OH240246   2.746   0.879  15.059  0.8318 -0.0900 -0.1767
 6252TIP3    H140247   2.663   0.912  15.093 -0.6375 -2.0540 -1.5898
 6252TIP3    H240248   2.776   0.817  15.126  0.5318 -0.2434 -0.1809
 6253TIP3   OH240249   5.091   3.399  12.302 -0.3878 -0.4170 -0.1870
 6253TIP3    H140250   5.159   3.420  12.237  0.5214 -0.3353  0.7619
 6253TIP3    H240251   5.011   3.388  12.250  0.3434 -0.5240 -1.3352
 6254TIP3   OH240252   6.045   6.624  12.927  0.1687  0.4031 -0.2529
 6254TIP3    H140253   6.031   6.710  12.886 -0.6662 -0.2052 -1.2973
 6254TIP3    H240254   5.962   6.578  12.915  0.5256 -0.4741  0.5213
 6255TIP3   OH240255   1.078   3.374   5.054  0.1119  0.3092 -0.3291
 6255TIP3    H140256   1.162   3.407   5.086  0.9123 -1.2671 -0.6667
 6255TIP3    H240257   1.035   3.450   5.014  0.2601  1.7132  1.9962
 6256TIP3   OH240258   5.459   3.182  15.263 -0.4899  0.0716 -0.4979
 6256TIP3    H140259   5.423   3.258  15.307 -0.5397  0.3339 -0.9804
 6256TIP3    H240260   5.552   3.182  15.286 -0.2967  0.8281 -1.2671
 6257TIP3   OH240261   0.943   0.236  14.697 -0.4025  1.0524 -0.4448
 6257TIP3    H140262   0.957   0.143  14.712  2.5972  1.2059 -1.5672
 6257TIP3    H240263   0.865   0.240  14.641 -0.5830 -0.7855 -0.3745
 6258TIP3   OH240264   3.231   2.917  13.885  0.2024  0.4085  0.2534
 6258TIP3    H140265   3.314   2.948  13.921  0.5821  1.8255 -1.7263
 6258TIP3    H240266   3.182   2.996  13.863 -1.7258 -0.3927  1.3432
 6259TIP3   OH240267   6.119   4.114  13.546  0.6830  0.1284 -0.4241
 6259TIP3    H140268   6.125   4.124  13.641 -0.0773  0.5584 -0.4140
 6259TIP3    H240269   6.116   4.019  13.532  0.1019  0.0753  0.0323
 6260TIP3   OH240270   5.871   5.709  16.413 -0.4492  0.0536 -0.1297
 6260TIP3    H140271   5.956   5.752  16.422 -0.4359 -0.2939  2.0908
 6260TIP3    H240272   5.885   5.620  16.445 -1.6669  0.0353  0.4208
 6261TIP3   OH240273   0.010   4.282   4.918  0.1919  0.0248  0.6590
 6261TIP3    H140274  -0.044   4.352   4.954 -1.1555  0.0031 -1.1478
 6261TIP3    H240275  -0.040   4.202   4.935 -1.0430  0.1201 -2.0628
 6262TIP3   OH240276   6.269   6.246  13.712  0.3400 -0.0828 -0.2428
 6262TIP3    H140277   6.208   6.198  13.655  1.2100 -2.2638  0.5642
 6262TIP3    H240278   6.224   6.252  13.796 -0.6610  2.5421 -0.8767
 6263TIP3   OH240279   5.612   3.280  13.371 -0.4247  0.1308 -0.0336
 6263TIP3    H140280   5.569   3.199  13.399 -0.7687  0.8836  1.7279
 6263TIP3    H240281   5.543   3.345  13.371  0.0786  0.6720 -0.3449
 6264TIP3   OH240282   0.480   3.192   5.396 -0.8476 -0.2369  0.0433
 6264TIP3    H140283   0.486   3.251   5.471  2.4874 -1.5732  1.0325
 6264TIP3    H240284   0.461   3.106   5.435  1.0406 -0.9732 -0.5200
 6265TIP3   OH240285   0.204   1.175   4.157 -0.1517  0.5190  0.3351
 6265TIP3    H140286   0.220   1.256   4.108 -2.0568  0.0014 -1.3283
 6265TIP3    H240287   0.133   1.133   4.108  1.0704 -2.3730  0.8905
 6266TIP3   OH240288   5.213   3.003  11.002  0.5298  0.6642  0.0125
 6266TIP3    H140289   5.118   3.013  11.003  0.1694 -1.8621  1.8664
 6266TIP3    H240290   5.247   3.091  11.018 -1.5997  1.2909  1.5633
 6267TIP3   OH240291   6.491   1.125  15.725  0.0947 -0.2721  0.2994
 6267TIP3    H140292   6.408   1.085  15.751 -0.3613  0.6506  0.3163
 6267TIP3    H240293   6.481   1.143  15.632  0.6473 -1.0258  0.0923
 6268TIP3   OH240294   6.692   3.261   6.406 -0.2653  0.1823  0.0174
 6268TIP3    H140295   6.748   3.194   6.446  1.1498  0.8417 -0.8127
 6268TIP3    H240296   6.696   3.334   6.467  0.6888  0.6374 -0.5790
 6269TIP3   OH240297   1.519   2.052  12.139  0.5672  0.3027  0.5224
 6269TIP3    H140298   1.550   2.138  12.166 -0.6047  0.6675  0.8028
 6269TIP3    H240299   1.427   2.067  12.115  0.6731 -0.6509 -0.5368
 6270TIP3   OH240300   0.145   0.406   1.053  0.1773  0.5903  0.1278
 6270TIP3    H140301   0.177   0.349   1.122  1.0625  0.5733 -0.2797
 6270TIP3    H240302   0.137   0.350   0.976 -3.3943 -0.0353  0.7896
 6271TIP3   OH240303   4.110   6.121  17.023 -0.5095 -0.2132  0.9530
 6271TIP3    H140304   4.200   6.094  17.042  0.3766  1.7162 -0.1754
 6271TIP3    H240305   4.068   6.129  17.108  0.2078 -1.6617  1.4695
 6272TIP3   OH240306   0.117   2.942   2.112 -0.0259  0.0777  0.0241
 6272TIP3    H140307   0.148   2.901   2.031  0.7665 -1.6905  1.1461
 6272TIP3    H240308   0.025   2.960   2.096  0.2740  0.4018 -1.5027
 6273TIP3   OH240309   0.319   1.926   1.209 -0.0856 -0.5957  0.5836
 6273TIP3    H140310   0.227   1.918   1.231 -0.7055 -1.6984 -2.0702
 6273TIP3    H240311   0.332   2.020   1.194 -0.9326 -0.5174  0.3229
 6274TIP3   OH240312   5.780   0.214  13.690 -0.0192 -0.3219  0.8848
 6274TIP3    H140313   5.864   0.171  13.676 -0.5306 -1.0088 -0.2465
 6274TIP3    H240314   5.788   0.257  13.775  1.7492  0.3164  0.4295
 6275TIP3   OH240315   4.335   1.638  16.781  0.0462  0.0343  0.1035
 6275TIP3    H140316   4.329   1.733  16.794 -1.5012 -0.1791  1.1892
 6275TIP3    H240317   4.257   1.603  16.823  1.2000 -1.8394  0.8077
 6276TIP3   OH240318   1.069   2.082  14.287  0.2217 -0.0442 -0.8735
 6276TIP3    H140319   1.038   2.103  14.375 -0.1423 -1.6764 -0.5808
 6276TIP3    H240320   1.150   2.034  14.301 -0.6808 -1.7955 -1.3004
 6277TIP3   OH240321   6.250   1.924   4.587  0.4135  0.3681  0.2995
 6277TIP3    H140322   6.237   1.835   4.556  0.1148  0.6898 -0.5137
 6277TIP3    H240323   6.323   1.957   4.535  0.8178  0.4588  0.9083
 6278TIP3   OH240324   3.875   5.243  13.053  0.2216  0.3923 -0.5726
 6278TIP3    H140325   3.874   5.154  13.089  0.3474  0.2064 -1.0318
 6278TIP3    H240326   3.823   5.294  13.116 -0.7381 -0.2118 -0.8577
 6279TIP3   OH240327   3.690   0.107  16.636 -0.7362 -0.5217  0.1076
 6279TIP3    H140328   3.649   0.087  16.720  0.2910 -2.1817  0.2646
 6279TIP3    H240329   3.665   0.034  16.579 -1.1246  0.4042 -0.9364
 6280TIP3   OH240330   0.271   0.945  14.273  0.3199 -0.2060  0.0990
 6280TIP3    H140331   0.180   0.930  14.247 -0.1683  2.0532  0.3216
 6280TIP3    H240332   0.307   0.857  14.284 -1.6830 -1.1638 -0.4710
 6281TIP3   OH240333   2.076   5.913   5.280  0.2260  0.4815  0.5138
 6281TIP3    H140334   2.074   5.837   5.338 -2.0460 -0.9966 -1.3117
 6281TIP3    H240335   2.151   5.895   5.222 -1.3636 -1.4727 -1.1066
 6282TIP3   OH240336   1.714   6.176   3.361  0.1657 -0.1377  0.1328
 6282TIP3    H140337   1.705   6.268   3.337  1.6745 -0.0880 -0.3805
 6282TIP3    H240338   1.647   6.161   3.427  0.9167  1.7555  1.4127
 6283TIP3   OH240339   1.727   6.014  14.494  0.3952 -0.2952  0.7293
 6283TIP3    H140340   1.808   6.019  14.443 -0.1614  0.0618 -0.1432
 6283TIP3    H240341   1.727   5.925  14.530  1.2259 -0.2608  0.8464
 6284TIP3   OH240342   0.386   4.745   6.007  0.0373  0.0538 -0.0126
 6284TIP3    H140343   0.451   4.703   5.952 -0.9328 -1.3023 -0.1732
 6284TIP3    H240344   0.388   4.837   5.982  1.6680 -0.0139 -0.2040
 6285TIP3   OH240345   6.283   4.274   4.394  0.1512 -0.0781  0.0029
 6285TIP3    H140346   6.285   4.267   4.490 -0.2433 -0.0714  0.0104
 6285TIP3    H240347   6.301   4.366   4.376 -2.2114  0.4749  0.1593
 6286TIP3   OH240348   5.103   4.197   3.296  0.3453  0.3107  0.1778
 6286TIP3    H140349   5.078   4.128   3.235 -0.6991  0.3091  0.5856
 6286TIP3    H240350   5.087   4.160   3.383 -1.1302  1.3490  0.4010
 6287TIP3   OH240351   4.339   0.045  17.001 -0.4447  0.5671 -0.0841
 6287TIP3    H140352   4.280   0.057  16.926 -1.5455  1.3569  0.8855
 6287TIP3    H240353   4.286   0.066  17.077  1.5538  3.0360  0.7514
 6288TIP3   OH240354   0.001   3.823  14.673 -0.1352 -0.7023  0.2664
 6288TIP3    H140355   0.081   3.871  14.695 -0.1185 -1.4311  1.9053
 6288TIP3    H240356  -0.042   3.877  14.606  0.2323  1.2252  1.5217
 6289TIP3   OH240357   4.571   3.805   4.506  0.0188  0.3535  0.5221
 6289TIP3    H140358   4.484   3.779   4.477  1.6133 -1.5388 -3.1566
 6289TIP3    H240359   4.608   3.725   4.544  0.6404  0.7917  0.8594
 6290TIP3   OH240360   3.024   1.002   5.443 -0.1487 -0.2673 -0.7682
 6290TIP3    H140361   3.043   1.025   5.352  0.1672 -0.0818 -0.6576
 6290TIP3    H240362   2.999   0.909   5.440  1.2842 -0.6768 -0.8648
 6291TIP3   OH240363   0.635   3.804  11.340 -0.8126  0.2057 -0.0835
 6291TIP3    H140364   0.721   3.825  11.303 -0.5396  0.5404  0.7066
 6291TIP3    H240365   0.645   3.715  11.374 -0.5493  0.5005  0.6346
 6292TIP3   OH240366   1.566   1.313   3.844  0.5016 -0.4519 -0.2164
 6292TIP3    H140367   1.477   1.347   3.837  0.4272 -0.2248  1.5027
 6292TIP3    H240368   1.592   1.295   3.753 -0.2200  2.1905 -1.0361
 6293TIP3   OH240369   0.865   0.604   5.305  0.0345  0.1392 -0.3904
 6293TIP3    H140370   0.958   0.606   5.282 -0.0251 -0.3088 -0.6703
 6293TIP3    H240371   0.837   0.695   5.294  0.5168  0.3441  0.0219
 6294TIP3   OH240372   5.890   3.069   5.733  0.1604 -0.0887 -0.1263
 6294TIP3    H140373   5.850   3.145   5.691  1.0793  0.2516 -0.3880
 6294TIP3    H240374   5.970   3.102   5.773  1.0739 -1.1020 -1.0736
 6295TIP3   OH240375   5.089   4.573  10.952  0.9220 -0.4559 -0.5754
 6295TIP3    H140376   5.085   4.666  10.932  0.4122 -0.7016 -1.6923
 6295TIP3    H240377   5.181   4.549  10.934  0.5342 -0.6257 -2.5851
 6296TIP3   OH240378   5.223   1.824  14.571  0.2036 -0.5353 -0.5403
 6296TIP3    H140379   5.209   1.736  14.536  0.4675 -0.1671 -1.6238
 6296TIP3    H240380   5.178   1.824  14.656 -0.5823 -1.4218 -0.9388
 6297TIP3   OH240381   3.924   1.040  16.176  0.0961  0.4544 -0.6624
 6297TIP3    H140382   4.015   1.054  16.204 -0.2841  0.8680  0.4593
 6297TIP3    H240383   3.873   1.061  16.254 -1.0430  1.5119 -1.6487
 6298TIP3   OH240384   6.388   6.568  10.790  0.2222 -0.2459  0.8949
 6298TIP3    H140385   6.471   6.523  10.773  0.5032 -1.6416  4.9886
 6298TIP3    H240386   6.409   6.661  10.779  1.0304 -0.6821 -2.4715
 6299TIP3   OH240387   1.013   6.693  14.514 -0.4309  0.2011 -0.8246
 6299TIP3    H140388   1.081   6.627  14.528 -0.2161  0.1772 -1.8939
 6299TIP3    H240389   0.998   6.731  14.601  2.0021  1.2280 -0.7836
 6300TIP3   OH240390   1.245   1.210  13.971 -0.4732  0.0261  0.5281
 6300TIP3    H140391   1.337   1.216  13.942 -0.6610 -1.0084 -0.3667
 6300TIP3    H240392   1.244   1.252  14.057  0.8138  0.1738  0.4963
 6301TIP3   OH240393   4.924   5.890  12.456  0.6010 -0.2494  0.5565
 6301TIP3    H140394   5.003   5.929  12.493  1.9361  0.4912 -2.6759
 6301TIP3    H240395   4.935   5.796  12.470  1.9248 -0.1280  0.4518
 6302TIP3   OH240396   4.361   1.715   0.701  0.0730 -0.4532 -0.0088
 6302TIP3    H140397   4.341   1.622   0.711 -0.3511 -0.2590  1.1098
 6302TIP3    H240398   4.427   1.733   0.767 -1.2894  0.4557  1.1613
 6303TIP3   OH240399   5.409   4.879   5.122 -0.1210 -0.0399 -0.0129
 6303TIP3    H140400   5.468   4.864   5.047 -0.2374 -1.1872  0.1105
 6303TIP3    H240401   5.464   4.864   5.199 -0.4287 -0.5881  0.1073
 6304TIP3   OH240402   2.343   4.165  11.225 -0.1481  0.6154 -0.2792
 6304TIP3    H140403   2.413   4.219  11.187 -0.2543 -0.1589 -1.6512
 6304TIP3    H240404   2.263   4.200  11.188 -0.4011  0.8068  0.4401
 6305TIP3   OH240405   5.312   2.751  17.065  0.0227 -0.0245  0.0236
 6305TIP3    H140406   5.367   2.795  17.000  0.3539 -2.3518 -1.3979
 6305TIP3    H240407   5.234   2.806  17.072  1.1081  1.6461 -0.3354
 6306TIP3   OH240408   5.343   5.855   0.916 -0.5772 -0.2078  0.1453
 6306TIP3    H140409   5.290   5.928   0.884  0.1011  0.1731 -0.1272
 6306TIP3    H240410   5.345   5.793   0.843  0.1305  0.2085 -0.2054
 6307TIP3   OH240411   3.134   5.372  14.640 -0.1417  0.2404  0.0491
 6307TIP3    H140412   3.098   5.292  14.680 -0.3457  0.5585  0.5265
 6307TIP3    H240413   3.158   5.427  14.715  0.5636  0.3798 -0.2745
 6308TIP3   OH240414   0.873   1.534  17.098  0.1243  0.3538 -0.2392
 6308TIP3    H140415   0.896   1.499  17.012 -0.3595  0.3845 -0.3858
 6308TIP3    H240416   0.859   1.628  17.082 -1.5017  0.0937 -0.4444
 6309TIP3   OH240417   6.316   1.457  15.487  0.3695  0.2055 -0.8635
 6309TIP3    H140418   6.279   1.538  15.453  0.9160  0.5202 -0.7284
 6309TIP3    H240419   6.275   1.388  15.435 -1.8830  0.3590  0.5642
 6310TIP3   OH240420   0.606   0.470  13.239 -0.4522  0.1658 -0.2561
 6310TIP3    H140421   0.662   0.493  13.164 -0.2446 -2.8789 -1.1913
 6310TIP3    H240422   0.610   0.546  13.296  2.6291  1.0892 -1.4763
 6311TIP3   OH240423   6.067   2.706  16.106 -0.3312 -0.5326 -0.0868
 6311TIP3    H140424   6.146   2.671  16.065  0.8266  0.3633  1.2845
 6311TIP3    H240425   5.997   2.650  16.074  0.6606 -0.5983 -2.3310
 6312TIP3   OH240426   0.403   2.472  12.456 -0.1976 -0.0602  0.1749
 6312TIP3    H140427   0.459   2.509  12.525 -0.6253 -0.7714  0.9179
 6312TIP3    H240428   0.340   2.417  12.503 -1.3418  0.4900 -0.6742
 6313TIP3   OH240429   6.395   1.435   0.158 -0.3989 -0.4655  1.0062
 6313TIP3    H140430   6.486   1.409   0.169 -0.5405 -0.6160  1.9294
 6313TIP3    H240431   6.390   1.469   0.069  0.7230  0.1958  1.1723
 6314TIP3   OH240432   1.924   1.955  16.734  0.4431  0.6588 -0.0202
 6314TIP3    H140433   1.870   1.980  16.659  1.9013 -0.5889 -1.5739
 6314TIP3    H240434   1.991   2.024  16.739  2.1361 -0.7283 -1.8499
 6315TIP3   OH240435   0.200   2.563  11.608  0.0625 -0.4918 -0.0847
 6315TIP3    H140436   0.260   2.626  11.647  0.0170 -0.8512  0.5912
 6315TIP3    H240437   0.218   2.567  11.514  1.6805 -1.1378  0.1675
 6316TIP3   OH240438   5.621   6.414   5.337 -0.2083  0.0568  0.5538
 6316TIP3    H140439   5.618   6.402   5.242  0.3900  0.0748  0.5290
 6316TIP3    H240440   5.588   6.502   5.351  0.3209  0.3002  0.3017
 6317TIP3   OH240441   2.499   2.151   4.402 -0.0355  0.5771 -0.1515
 6317TIP3    H140442   2.568   2.096   4.438 -1.3139 -1.2974 -0.4094
 6317TIP3    H240443   2.456   2.096   4.336 -1.2859  1.9451 -0.5460
 6318TIP3   OH240444   0.330   4.228   5.009  0.5113  0.7643  0.2772
 6318TIP3    H140445   0.406   4.195   4.961  0.6312  0.4167  0.7046
 6318TIP3    H240446   0.360   4.308   5.051  0.5045  0.8843  0.0538
 6319TIP3   OH240447   5.071   4.270  10.926  0.4155 -0.0105 -0.4267
 6319TIP3    H140448   5.037   4.344  10.875 -0.6432  0.5863  1.0553
 6319TIP3    H240449   5.118   4.312  10.998 -0.2775 -0.7571  0.4827
 6320TIP3   OH240450   4.701   6.588   1.454 -1.1248 -0.1563 -0.0382
 6320TIP3    H140451   4.699   6.506   1.406 -1.6416 -0.6536  0.8190
 6320TIP3    H240452   4.763   6.573   1.525  0.0661  0.7595 -0.8424
 6321TIP3   OH240453   3.944   6.509   5.543 -0.5378 -0.0934  0.1685
 6321TIP3    H140454   4.036   6.501   5.570 -0.2746  0.3322 -0.5771
 6321TIP3    H240455   3.905   6.564   5.611  0.7352  3.2212 -1.5504
 6322TIP3   OH240456   5.206   5.428   2.173 -0.4011  0.0681 -0.0628
 6322TIP3    H140457   5.182   5.499   2.113 -2.0396  0.7242  1.2779
 6322TIP3    H240458   5.145   5.357   2.150  1.2349 -0.9678 -1.4034
 6323TIP3   OH240459   0.824   5.238  11.358 -0.0961  0.0954 -0.2253
 6323TIP3    H140460   0.889   5.302  11.388  2.4387 -2.7079  0.7984
 6323TIP3    H240461   0.855   5.210  11.273 -1.7886  0.9026 -1.1575
 6324TIP3   OH240462   1.499   0.221   0.207  0.1114 -0.2347 -0.4652
 6324TIP3    H140463   1.435   0.279   0.248  0.5909  0.3153 -0.4842
 6324TIP3    H240464   1.484   0.136   0.247 -0.6058 -0.1048 -0.4402
 6325TIP3   OH240465   3.243   4.072  14.777  0.4138  0.5341 -0.0190
 6325TIP3    H140466   3.314   4.019  14.740 -0.0404  0.9434 -1.5187
 6325TIP3    H240467   3.288   4.143  14.824  1.0063 -0.4755  1.0121
 6326TIP3   OH240468   0.933   5.928   6.084  0.3134 -0.3943 -0.2517
 6326TIP3    H140469   0.994   5.927   6.158 -0.4651  0.3446  0.4058
 6326TIP3    H240470   0.989   5.908   6.008  1.2509 -0.4201  0.4179
 6327TIP3   OH240471   0.914   0.383   4.892  0.0713  0.0004  0.2267
 6327TIP3    H140472   0.853   0.321   4.852  1.5467  0.0403 -2.2792
 6327TIP3    H240473   0.869   0.468   4.888 -0.3233 -0.2251 -0.1554
 6328TIP3   OH240474   5.355   0.103  15.971  0.0396 -0.1471 -0.7578
 6328TIP3    H140475   5.392   0.180  16.013 -2.3908  0.2054  0.9289
 6328TIP3    H240476   5.391   0.029  16.020  0.5795  0.0222 -0.8905
 6329TIP3   OH240477   5.664   2.245   2.778 -0.0176 -0.3618 -0.2263
 6329TIP3    H140478   5.612   2.300   2.719  0.3512 -1.5641 -1.7318
 6329TIP3    H240479   5.603   2.180   2.812 -0.1458  0.0994  0.4443
 6330TIP3   OH240480   1.923   5.116   6.036  0.3429 -0.0543 -0.1917
 6330TIP3    H140481   1.888   5.119   6.125 -0.6106 -1.6453 -0.4745
 6330TIP3    H240482   1.969   5.200   6.026 -1.4461  1.1502  1.0046
 6331TIP3   OH240483   4.397   6.472   5.060  0.3389  0.3896 -0.2742
 6331TIP3    H140484   4.391   6.546   5.000  0.7728  0.9237  0.3225
 6331TIP3    H240485   4.375   6.395   5.006 -1.2046  1.0514 -0.6341
 6332TIP3   OH240486   0.339   1.049  13.717 -0.2233 -0.1549 -0.5874
 6332TIP3    H140487   0.340   1.138  13.753  1.3709 -0.7091  0.8634
 6332TIP3    H240488   0.314   0.993  13.791 -0.1800 -1.0258 -1.2124
 6333TIP3   OH240489   2.135   5.750  16.389 -1.0118 -0.0905  0.6049
 6333TIP3    H140490   2.227   5.754  16.362 -0.7733 -1.6031  1.1117
 6333TIP3    H240491   2.087   5.742  16.306 -0.6287 -0.1267  0.3798
 6334TIP3   OH240492   5.623   6.197  12.625 -0.3927  0.1553 -0.4917
 6334TIP3    H140493   5.703   6.197  12.678  1.7234  1.6877 -3.3343
 6334TIP3    H240494   5.589   6.108  12.633  1.2617 -0.3800  1.3404
 6335TIP3   OH240495   2.048   3.873  11.890  0.3500 -0.1215  0.0119
 6335TIP3    H140496   2.083   3.799  11.940  1.6160  0.7857  0.5067
 6335TIP3    H240497   2.056   3.948  11.949  3.4866  1.3465 -2.0053
 6336TIP3   OH240498   2.895   2.243  11.505  0.1938  0.1988 -0.0064
 6336TIP3    H140499   2.965   2.308  11.507  2.0833 -1.7388  0.1735
 6336TIP3    H240500   2.905   2.194  11.586 -0.7933 -0.7040 -0.4124
 6337TIP3   OH240501   1.931   3.547  14.745  0.5728 -0.1213 -0.0319
 6337TIP3    H140502   1.874   3.613  14.705  1.2687  0.5920  0.1159
 6337TIP3    H240503   1.891   3.528  14.830 -0.6423 -1.2774 -0.8278
 6338TIP3   OH240504   4.643   0.058   2.141 -0.7230 -0.6352  0.1533
 6338TIP3    H140505   4.719   0.107   2.110 -1.7726  1.9428  1.3895
 6338TIP3    H240506   4.568   0.103   2.101 -1.6958 -2.6638 -0.4552
 6339TIP3   OH240507   5.366   6.191   6.284  0.5969 -0.3894  0.3025
 6339TIP3    H140508   5.399   6.276   6.253 -0.4085 -0.2855 -0.5176
 6339TIP3    H240509   5.413   6.176   6.366 -0.1035  1.5637  1.1133
 6340TIP3   OH240510   6.293   1.880   1.142  0.1890  0.3037  0.0730
 6340TIP3    H140511   6.325   1.873   1.052 -0.4852 -0.1337 -0.1415
 6340TIP3    H240512   6.363   1.925   1.189  1.7653 -1.8868 -0.0575
 6341TIP3   OH240513   3.841   4.499  16.095 -0.2580 -0.3534  0.0790
 6341TIP3    H140514   3.920   4.546  16.072  0.9947 -1.8167  1.1643
 6341TIP3    H240515   3.770   4.551  16.057  1.2173  0.7948 -1.2590
 6342TIP3   OH240516   2.988   5.865   0.073  0.8817  0.3400 -0.9013
 6342TIP3    H140517   3.020   5.775   0.081 -1.4150 -0.4746  0.0468
 6342TIP3    H240518   2.894   5.855   0.055  0.8650  2.5637 -2.3398
 6343TIP3   OH240519   1.220   5.097   6.117 -0.6745  0.0904  0.2986
 6343TIP3    H140520   1.262   5.038   6.181 -1.6746 -2.1413 -1.0111
 6343TIP3    H240521   1.280   5.098   6.042 -0.7013  0.7347  0.2750
 6344TIP3   OH240522   4.636   3.013  12.673  0.2229 -0.2392 -0.4936
 6344TIP3    H140523   4.702   3.033  12.739  1.8437  0.2497 -2.1929
 6344TIP3    H240524   4.685   2.995  12.593 -1.6976  0.9349 -2.0475
 6345TIP3   OH240525   5.511   2.218  15.884 -0.3659 -0.3563 -0.2110
 6345TIP3    H140526   5.442   2.231  15.820  0.3878  0.6281 -0.8533
 6345TIP3    H240527   5.589   2.199  15.832  0.0310 -0.6134  0.4641
 6346TIP3   OH240528   6.267   3.665   2.601 -0.7735  0.3020 -0.0604
 6346TIP3    H140529   6.347   3.687   2.649 -0.5102 -0.5189 -0.1060
 6346TIP3    H240530   6.210   3.741   2.614  0.0321  0.9315 -0.0897
 6347TIP3   OH240531   2.525   0.641   1.059  0.2015  0.8200  0.5361
 6347TIP3    H140532   2.503   0.734   1.052 -1.2523  0.5281  0.8441
 6347TIP3    H240533   2.446   0.600   1.095  0.8908 -0.5045  0.6190
 6348TIP3   OH240534   3.823   2.243  14.749  0.3078 -0.1048 -0.1096
 6348TIP3    H140535   3.807   2.153  14.721 -1.1350 -0.2947  1.1813
 6348TIP3    H240536   3.824   2.238  14.845  1.5445  1.0510 -0.0376
 6349TIP3   OH240537   3.055   3.683  15.205  0.2213 -0.0889 -0.3352
 6349TIP3    H140538   3.132   3.725  15.243  0.3708 -1.0813  0.4916
 6349TIP3    H240539   3.083   3.593  15.186  0.0309  0.2429 -2.4555
 6350TIP3   OH240540   1.486   5.634   4.261  0.3396  0.9792 -0.0832
 6350TIP3    H140541   1.547   5.632   4.187  0.9634  0.1640  0.4374
 6350TIP3    H240542   1.530   5.685   4.328  0.2011  0.8579  0.1002
 6351TIP3   OH240543   1.144   2.126   2.804 -0.1060  0.7140 -0.1133
 6351TIP3    H140544   1.125   2.043   2.848  0.4286  0.0309 -1.1380
 6351TIP3    H240545   1.141   2.106   2.711  0.7652  1.6705 -0.3721
 6352TIP3   OH240546   6.732   1.825   6.002  0.3185  0.5867  0.0240
 6352TIP3    H140547   6.759   1.871   5.923 -0.1977 -0.5686 -0.8510
 6352TIP3    H240548   6.759   1.883   6.074 -1.3816  2.8444 -1.0264
 6353TIP3   OH240549   5.347   5.642   4.784  0.3559  0.6739 -0.2873
 6353TIP3    H140550   5.416   5.691   4.739  0.4798  0.4819 -0.3048
 6353TIP3    H240551   5.274   5.642   4.722  0.8384 -0.4030 -0.8909
 6354TIP3   OH240552   6.126   2.074  15.856  0.3091  0.6599 -0.1218
 6354TIP3    H140553   6.094   2.157  15.890 -0.9639  1.4866 -2.9863
 6354TIP3    H240554   6.048   2.026  15.829  1.0570 -1.2455  0.9117
 6355TIP3   OH240555   0.015   0.900   0.693  0.1763 -0.2381  0.2139
 6355TIP3    H140556  -0.013   0.956   0.765 -1.0418 -1.1655  0.4911
 6355TIP3    H240557  -0.006   0.811   0.721 -0.2954 -0.6325 -1.2609
 6356TIP3   OH240558   4.855   4.124   1.387 -0.2483 -0.0552 -0.5024
 6356TIP3    H140559   4.935   4.156   1.345 -0.1105 -0.7851 -0.7996
 6356TIP3    H240560   4.867   4.146   1.480 -0.1253  0.6853 -0.6836
 6357TIP3   OH240561   4.161   1.679   5.658  0.0984 -0.3633 -0.3987
 6357TIP3    H140562   4.138   1.717   5.743 -1.5646 -0.9518 -0.5530
 6357TIP3    H240563   4.249   1.642   5.672  1.0517  1.9659  0.2185
 6358TIP3   OH240564   5.189   1.254  14.767 -0.5747  0.1363 -0.1438
 6358TIP3    H140565   5.178   1.228  14.675  0.9706  1.9194 -0.8903
 6358TIP3    H240566   5.132   1.331  14.777 -1.7258 -0.7982  0.7934
 6359TIP3   OH240567   3.680   1.200   2.957 -0.1578  0.6226  0.4601
 6359TIP3    H140568   3.772   1.175   2.943 -0.5213 -1.0868  0.8228
 6359TIP3    H240569   3.668   1.278   2.903  1.5382  0.9659  0.5181
 6360TIP3   OH240570   6.733   1.096   2.529 -0.3027 -0.0104 -0.3964
 6360TIP3    H140571   6.686   1.056   2.602 -0.8176 -2.0606 -1.7627
 6360TIP3    H240572   6.776   1.173   2.567  0.6071 -1.7434  2.3788
 6361TIP3   OH240573   0.851   3.010   3.596 -0.7944  0.0001  0.0660
 6361TIP3    H140574   0.799   3.087   3.575  1.2515  1.5843  0.4261
 6361TIP3    H240575   0.868   3.017   3.690  0.5336 -0.0928 -0.1355
 6362TIP3   OH240576   4.802   4.919  13.453  0.3792 -0.6352 -0.1342
 6362TIP3    H140577   4.798   5.001  13.502  0.4222  0.0641 -1.2608
 6362TIP3    H240578   4.809   4.851  13.520 -2.0184  0.0737  0.9151
 6363TIP3   OH240579   6.023   2.617   4.814  0.3776  0.1188 -0.0144
 6363TIP3    H140580   6.045   2.690   4.873 -1.0357 -0.6501  1.5468
 6363TIP3    H240581   6.036   2.539   4.868  2.3263 -0.8721 -1.7993
 6364TIP3   OH240582   0.774   4.100   2.741 -0.3328  0.2482  0.4589
 6364TIP3    H140583   0.707   4.038   2.767 -0.0535 -0.1458  0.2617
 6364TIP3    H240584   0.839   4.097   2.811 -0.2204  0.1640  0.3528
 6365TIP3   OH240585   0.968   4.672   5.848  0.0452 -0.3573  0.6672
 6365TIP3    H140586   0.950   4.690   5.940 -1.7448  0.6382  0.1627
 6365TIP3    H240587   0.904   4.724   5.800 -0.3594 -2.3541 -1.1024
 6366TIP3   OH240588   0.881   0.598  12.282  0.0651 -0.0554  0.0174
 6366TIP3    H140589   0.929   0.516  12.277  0.2609  0.1238 -1.6686
 6366TIP3    H240590   0.934   0.653  12.341 -0.5040 -1.3605  1.8346
 6367TIP3   OH240591   5.514   2.801   0.710  0.4792  0.4777  0.3827
 6367TIP3    H140592   5.571   2.759   0.774 -0.1070  0.2002  0.7255
 6367TIP3    H240593   5.477   2.877   0.757  0.6183  0.6989  0.1388
 6368TIP3   OH240594   5.648   2.242   2.147  0.3402  0.2877  0.3948
 6368TIP3    H140595   5.689   2.328   2.145 -0.1382  0.5585  1.6371
 6368TIP3    H240596   5.697   2.194   2.214 -0.6869  0.2747  1.1532
 6369TIP3   OH240597   1.407   3.136  15.983  0.7548  0.5561 -0.6574
 6369TIP3    H140598   1.489   3.164  16.023 -0.3062  0.8173  1.4747
 6369TIP3    H240599   1.357   3.216  15.972 -0.8760  0.0447  2.1430
 6370TIP3   OH240600   5.628   3.268  16.257 -0.4238 -0.6207  0.6630
 6370TIP3    H140601   5.708   3.309  16.291 -0.9487 -0.4529  1.7321
 6370TIP3    H240602   5.641   3.175  16.271 -0.4989 -0.5769  1.0329
 6371TIP3   OH240603   0.150   2.697  15.093 -0.1419 -0.4708  0.1250
 6371TIP3    H140604   0.099   2.660  15.021 -1.5297 -1.2486  1.4326
 6371TIP3    H240605   0.151   2.791  15.076 -1.6958 -0.4829 -0.1696
 6372TIP3   OH240606   1.351   2.957   0.518 -1.0257 -0.1906  0.2374
 6372TIP3    H140607   1.295   2.924   0.589 -2.4517 -0.0500 -0.7782
 6372TIP3    H240608   1.323   3.047   0.505 -2.2121 -0.7746 -1.7836
 6373TIP3   OH240609   1.673   0.778  16.734 -0.0654  0.0050 -0.2978
 6373TIP3    H140610   1.645   0.714  16.799  0.9419 -0.2499 -0.1002
 6373TIP3    H240611   1.592   0.814  16.699 -0.6304  0.0422  0.9915
 6374TIP3   OH240612   4.679   2.232   2.448 -0.0851 -0.0174 -0.0527
 6374TIP3    H140613   4.716   2.319   2.460  1.5219 -0.6397 -0.2548
 6374TIP3    H240614   4.711   2.182   2.523 -0.3838 -0.6259 -0.3235
 6375TIP3   OH240615   5.075   4.581   5.611 -0.1886 -0.0029  0.0836
 6375TIP3    H140616   5.066   4.491   5.642 -0.2290  0.4318  1.3967
 6375TIP3    H240617   5.017   4.632   5.668  1.7526  1.2079  1.0925
 6376TIP3   OH240618   5.257   6.058   4.887  0.2857  0.1707  0.2644
 6376TIP3    H140619   5.262   6.094   4.798  1.2040  1.9799  1.0081
 6376TIP3    H240620   5.333   6.094   4.932 -0.9830  0.5397  2.2353
 6377TIP3   OH240621   1.986   5.839  13.610 -0.0288  0.5115 -0.2409
 6377TIP3    H140622   1.942   5.761  13.644  0.5521 -0.5773 -1.8788
 6377TIP3    H240623   2.059   5.854  13.669 -1.1376  0.8998  1.0988
 6378TIP3   OH240624   5.060   3.797   5.658  0.6623  0.6135  0.4970
 6378TIP3    H140625   5.126   3.822   5.595 -0.4362  0.1073 -0.9037
 6378TIP3    H240626   5.109   3.781   5.739  1.9233  2.7520  0.2410
 6379TIP3   OH240627   4.905   1.957  11.251 -0.2636  0.3051 -0.3840
 6379TIP3    H140628   4.918   1.986  11.161  0.0349  0.0199 -0.4379
 6379TIP3    H240629   4.862   2.030  11.294  0.5339  0.8515 -0.4937
 6380TIP3   OH240630   4.786   4.620  16.087  0.6718 -0.2391  0.2295
 6380TIP3    H140631   4.807   4.576  16.170  0.2521  2.0886  1.6569
 6380TIP3    H240632   4.707   4.576  16.056  0.9292 -1.2653  0.9508
 6381TIP3   OH240633   2.736   6.485  15.839  0.0713 -0.1100  0.6780
 6381TIP3    H140634   2.796   6.454  15.771  0.9730  0.1843  1.3157
 6381TIP3    H240635   2.763   6.439  15.919 -0.8960 -0.3606  0.8789
 6382TIP3   OH240636   0.952   4.688  11.727 -0.6884  0.0172 -0.1185
 6382TIP3    H140637   0.953   4.684  11.631 -0.8382 -0.1734 -0.1131
 6382TIP3    H240638   1.022   4.750  11.749 -1.3340  0.8662 -0.3881
 6383TIP3   OH240639   5.846   4.945   2.437 -0.2929  0.2102  0.5916
 6383TIP3    H140640   5.922   4.887   2.438 -0.0206  0.4914 -1.0740
 6383TIP3    H240641   5.882   5.032   2.419 -0.9857  0.3843  0.0023
 6384TIP3   OH240642   4.173   5.990   4.321  0.1510  0.3254 -0.1100
 6384TIP3    H140643   4.247   5.929   4.317  0.8117  1.1426 -1.0259
 6384TIP3    H240644   4.119   5.966   4.245  0.4067  0.8424 -0.4659
 6385TIP3   OH240645   3.071   0.103  15.200 -0.4896  0.3314 -0.5904
 6385TIP3    H140646   3.005   0.109  15.131 -1.0045  1.7051 -0.0038
 6385TIP3    H240647   3.120   0.184  15.194 -1.0176  0.8204  1.1081
 6386TIP3   OH240648   4.047   0.230   2.479  0.1343 -0.5798  0.3377
 6386TIP3    H140649   4.073   0.155   2.426 -1.4874 -1.1688  0.3227
 6386TIP3    H240650   3.980   0.196   2.538 -3.4535  1.5137 -2.1224
 6387TIP3   OH240651   3.205   4.544   5.483 -0.1577  0.3855  0.0886
 6387TIP3    H140652   3.266   4.495   5.539  0.3943  1.1294  0.1679
 6387TIP3    H240653   3.174   4.615   5.539 -1.5304 -0.2858  0.2162
 6388TIP3   OH240654   4.633   0.422   1.836 -0.6113 -0.0343  0.0689
 6388TIP3    H140655   4.728   0.424   1.829 -0.5020 -2.4321 -0.1251
 6388TIP3    H240656   4.615   0.433   1.929 -0.0450 -0.8493  0.2829
 6389TIP3   OH240657   4.837   4.151  12.227  0.0675 -0.0864  0.0547
 6389TIP3    H140658   4.824   4.232  12.276 -1.0989  0.5460 -1.2321
 6389TIP3    H240659   4.756   4.140  12.177  1.0249 -0.9290 -1.3731
 6390TIP3   OH240660   0.527   6.343   0.442 -0.2409 -0.2457  0.2679
 6390TIP3    H140661   0.475   6.263   0.451 -0.0443 -0.1320  3.0019
 6390TIP3    H240662   0.585   6.325   0.368  1.9457 -3.9701  2.5566
 6391TIP3   OH240663   6.820   0.693  12.772 -0.1013 -0.2285  0.1560
 6391TIP3    H140664   6.899   0.640  12.779  0.6064  0.7975  0.1525
 6391TIP3    H240665   6.802   0.721  12.862  0.9378  1.4938 -0.1352
 6392TIP3   OH240666   4.369   3.130   6.472  0.0355  0.6289  0.0546
 6392TIP3    H140667   4.433   3.060   6.488 -0.3884  0.3508  0.5545
 6392TIP3    H240668   4.384   3.155   6.381 -0.1133 -0.4312 -0.2721
 6393TIP3   OH240669   4.090   1.679   2.683  0.3312 -0.0295  0.0961
 6393TIP3    H140670   4.044   1.626   2.748 -0.3240  0.7833  0.3120
 6393TIP3    H240671   4.092   1.624   2.605 -0.0332 -0.5070  0.4130
 6394TIP3   OH240672   5.337   5.285   0.504  0.3531 -0.9415  0.2999
 6394TIP3    H140673   5.347   5.345   0.429 -1.8961 -2.1200 -1.0585
 6394TIP3    H240674   5.253   5.310   0.542  0.2031 -2.1212  0.7606
 6395TIP3   OH240675   4.172   5.256   3.286 -0.0627 -0.1607 -0.5713
 6395TIP3    H140676   4.098   5.262   3.226 -1.0673 -0.5860  0.5806
 6395TIP3    H240677   4.234   5.197   3.242 -0.0625  0.7684 -1.8660
 6396TIP3   OH240678   1.242   5.788   5.086  0.2343 -0.2413 -0.1790
 6396TIP3    H140679   1.265   5.695   5.085 -1.0658 -0.6288 -2.9870
 6396TIP3    H240680   1.311   5.830   5.036 -0.4029 -0.0692 -0.9286
 6397TIP3   OH240681   4.136   5.708   1.962  0.3243 -0.1924  0.0218
 6397TIP3    H140682   4.118   5.739   1.873 -0.1117 -0.1851  0.1139
 6397TIP3    H240683   4.108   5.779   2.019  1.6685  0.2819  0.1210
 6398TIP3   OH240684   3.472   0.017   3.697 -0.3157 -0.4069  0.5171
 6398TIP3    H140685   3.514  -0.041   3.760  1.2963 -1.0778 -1.0835
 6398TIP3    H240686   3.499   0.105   3.723  1.0663 -0.7392  0.2790
 6399TIP3   OH240687   5.346   3.885  15.827 -0.6951  0.0188  0.1108
 6399TIP3    H140688   5.385   3.919  15.746 -0.0078 -0.8107  0.0750
 6399TIP3    H240689   5.410   3.907  15.895  1.1751 -3.5258 -0.3003
 6400TIP3   OH240690   6.325   2.567  15.991 -0.3879  0.1684  0.0350
 6400TIP3    H140691   6.380   2.496  15.957  1.5631  1.1636  0.9901
 6400TIP3    H240692   6.346   2.571  16.084 -0.6038  1.8845  0.0320
 6401TIP3   OH240693   1.365   5.033   2.173  0.2435  0.2584  0.1088
 6401TIP3    H140694   1.316   5.032   2.256 -3.0925 -2.4366 -1.6351
 6401TIP3    H240695   1.361   5.124   2.144 -1.3337  0.6545  1.4289
 6402TIP3   OH240696   2.976   5.308  11.167  0.1055 -0.3370  0.1312
 6402TIP3    H140697   2.889   5.348  11.158 -0.1821 -1.0268 -0.2296
 6402TIP3    H240698   2.967   5.248  11.241  0.2820 -0.3972  0.1037
 6403TIP3   OH240699   6.016   5.968   1.158  0.3172 -0.0133 -0.2727
 6403TIP3    H140700   5.940   5.911   1.143  1.0699 -1.0033 -0.3868
 6403TIP3    H240701   6.027   6.015   1.075 -0.2562  0.2385 -0.2095
 6404TIP3   OH240702   4.153   3.507  14.689  0.6362 -0.2252  0.0009
 6404TIP3    H140703   4.080   3.522  14.628  2.1929  4.5107 -1.1611
 6404TIP3    H240704   4.148   3.581  14.750  3.7669 -0.3648  0.5633
 6405TIP3   OH240705   6.725   4.749  10.989  0.5319 -0.1960  0.1128
 6405TIP3    H140706   6.645   4.736  10.938 -1.0008  1.4321  1.9230
 6405TIP3    H240707   6.732   4.844  10.999  2.6135 -0.3028  0.2045
 6406TIP3   OH240708   4.980   0.197  13.611  0.0643 -0.1499 -0.0582
 6406TIP3    H140709   4.905   0.242  13.571  1.3357 -0.2401 -2.7554
 6406TIP3    H240710   4.940   0.140  13.677 -2.3547 -0.6045 -1.7406
 6407TIP3   OH240711   1.317   4.827   1.996  0.3006  0.1126 -0.0098
 6407TIP3    H140712   1.358   4.883   2.062  0.4367  0.0113 -0.0080
 6407TIP3    H240713   1.274   4.888   1.936  1.2318  0.2681 -0.5394
 6408TIP3   OH240714   6.822   3.390   2.526 -0.0611  0.4601 -0.4948
 6408TIP3    H140715   6.915   3.390   2.551 -0.1608  0.2629 -0.1163
 6408TIP3    H240716   6.808   3.303   2.488  0.1536  0.8447 -1.5003
 6409TIP3   OH240717   6.009   1.933  11.546 -0.3311 -0.4086  0.2252
 6409TIP3    H140718   6.098   1.947  11.513 -0.8983 -0.1057 -1.2701
 6409TIP3    H240719   5.987   1.845  11.518 -0.7946 -0.1796 -0.1457
 6410TIP3   OH240720   0.951   3.045   1.789  0.5021 -0.7295 -0.3029
 6410TIP3    H140721   0.993   2.965   1.821 -0.0519 -0.7016  0.5001
 6410TIP3    H240722   1.023   3.096   1.751  0.9162 -1.4353 -0.4867
 6411TIP3   OH240723   3.787   5.783   3.830  0.4300  0.4734  0.5408
 6411TIP3    H140724   3.878   5.755   3.843  0.0552 -0.3947  1.3727
 6411TIP3    H240725   3.785   5.815   3.740  1.3448 -0.3944  0.1930
 6412TIP3   OH240726   2.022   5.498   3.193 -0.5477  0.4319 -0.4717
 6412TIP3    H140727   2.083   5.429   3.220 -1.2365 -0.1580 -0.3951
 6412TIP3    H240728   2.011   5.551   3.272 -0.4544  0.2980 -0.3671
 6413TIP3   OH240729   0.652   3.578   2.792 -0.3123 -0.6115  0.1189
 6413TIP3    H140730   0.694   3.507   2.841 -0.1200 -0.4713  0.1591
 6413TIP3    H240731   0.616   3.536   2.714 -1.0861 -0.9280  0.6399
 6414TIP3   OH240732   5.579   4.048  12.218  0.2120 -0.4379  0.1198
 6414TIP3    H140733   5.533   4.120  12.260  0.4633 -0.7243  0.8973
 6414TIP3    H240734   5.575   3.976  12.281 -0.3237 -1.2278 -0.7728
 6415TIP3   OH240735   4.428   1.719   1.153 -0.0250  0.1040  0.2623
 6415TIP3    H140736   4.349   1.717   1.208 -0.0598 -1.5634  0.2173
 6415TIP3    H240737   4.477   1.641   1.180  1.9769  1.4735  0.7864
 6416TIP3   OH240738   5.843   6.443   4.472 -0.5733 -0.0369  0.1099
 6416TIP3    H140739   5.801   6.528   4.455  3.5860  1.9158 -2.1710
 6416TIP3    H240740   5.780   6.378   4.442 -2.3067  2.5305 -2.3570
 6417TIP3   OH240741   5.108   5.840  14.624  0.1203  0.0217 -0.0922
 6417TIP3    H140742   5.115   5.772  14.691  2.3156 -1.2869 -1.5245
 6417TIP3    H240743   5.023   5.825  14.584  0.9390 -2.6781 -1.0665
 6418TIP3   OH240744   1.237   0.241   3.591  0.2365 -0.0390 -0.3070
 6418TIP3    H140745   1.297   0.207   3.658  1.0704  0.6597 -0.6876
 6418TIP3    H240746   1.198   0.319   3.630 -0.6020 -0.5960  0.0143
 6419TIP3   OH240747   5.372   2.999  15.089 -0.5394  0.2724  0.0708
 6419TIP3    H140748   5.402   3.027  15.176 -0.9179 -0.5506  0.4753
 6419TIP3    H240749   5.305   2.933  15.107 -0.3287 -0.2027 -0.8529
 6420TIP3   OH240750   0.685   0.110  14.041 -0.0312 -0.8135 -0.3212
 6420TIP3    H140751   0.630   0.078  14.112  0.6978 -2.4421 -0.4415
 6420TIP3    H240752   0.775   0.091  14.069  0.5434  1.8526 -0.0866
 6421TIP3   OH240753   4.300   0.905   3.632  0.0960  0.0235  0.3792
 6421TIP3    H140754   4.207   0.925   3.622 -0.0953 -0.7907  0.4057
 6421TIP3    H240755   4.311   0.821   3.586  1.4744  1.6357 -2.5012
 6422TIP3   OH240756   5.823   5.064   5.658  0.2425  0.0131  0.0972
 6422TIP3    H140757   5.804   5.093   5.747 -0.9264 -0.0714 -0.1117
 6422TIP3    H240758   5.918   5.052   5.656  0.3485  0.6178  1.1450
 6423TIP3   OH240759   0.943   0.230   0.318 -0.2346 -0.4749  0.0030
 6423TIP3    H140760   0.995   0.206   0.241 -0.9278 -0.1153 -0.5907
 6423TIP3    H240761   0.982   0.180   0.390  1.5123  0.4793 -0.2297
 6424TIP3   OH240762   1.281   4.850  16.609 -0.0045 -0.3015 -0.6340
 6424TIP3    H140763   1.276   4.901  16.690 -1.6855  1.3332 -1.6900
 6424TIP3    H240764   1.373   4.853  16.584  0.2089  0.7820  0.2296
 6425TIP3   OH240765   1.457   5.877   1.806  0.0622 -0.6130  0.6046
 6425TIP3    H140766   1.538   5.849   1.764  0.7751  0.3773  1.2477
 6425TIP3    H240767   1.415   5.934   1.741  1.2853  1.1234  1.2383
 6426TIP3   OH240768   4.376   1.289   5.639 -0.2777  0.1598  0.3181
 6426TIP3    H140769   4.430   1.357   5.682  1.0852 -1.8834  2.0741
 6426TIP3    H240770   4.287   1.308   5.668  0.1403  0.9131  1.1857
 6427TIP3   OH240771   5.465   0.660  14.626  0.1682 -0.1095 -0.4844
 6427TIP3    H140772   5.405   0.649  14.552 -0.2661 -0.3014 -0.1014
 6427TIP3    H240773   5.409   0.665  14.703  0.5584  1.1937 -0.2664
 6428TIP3   OH240774   1.277   2.613  13.138  0.1782 -0.1456 -0.0881
 6428TIP3    H140775   1.366   2.578  13.125 -0.1919 -0.4094 -2.2385
 6428TIP3    H240776   1.232   2.595  13.056 -1.2923  1.7579  0.2362
 6429TIP3   OH240777   6.599   1.260   1.718 -0.2292 -0.0648 -0.5773
 6429TIP3    H140778   6.613   1.355   1.718 -0.9740  0.0558 -0.7347
 6429TIP3    H240779   6.635   1.230   1.801 -0.3068  0.4099 -0.3676
 6430TIP3   OH240780   6.496   5.429   0.504 -0.2041 -0.2342  0.4213
 6430TIP3    H140781   6.450   5.392   0.579 -0.7217  2.1032  1.3422
 6430TIP3    H240782   6.466   5.377   0.429 -3.6025  0.4802  1.1238
 6431TIP3   OH240783   3.693   6.726  16.170  0.5234 -0.1325 -0.5950
 6431TIP3    H140784   3.658   6.681  16.093 -0.8203 -0.2618  0.0786
 6431TIP3    H240785   3.638   6.803  16.180 -0.2794 -0.8755  1.0951
 6432TIP3   OH240786   5.459   2.308   5.572  0.7117  0.0536  0.0346
 6432TIP3    H140787   5.471   2.403   5.569 -0.9468  0.3180  0.5677
 6432TIP3    H240788   5.399   2.294   5.645 -2.2901 -0.9952 -2.3938
 6433TIP3   OH240789   1.699   6.715   4.680 -0.7742 -0.3252 -0.2579
 6433TIP3    H140790   1.768   6.766   4.637 -1.3488 -0.4889 -1.4024
 6433TIP3    H240791   1.651   6.779   4.732 -1.1654  0.2202 -1.2689
 6434TIP3   OH240792   6.443   4.060   4.443  0.0340 -0.0926 -0.0727
 6434TIP3    H140793   6.397   4.139   4.415 -0.1866 -0.3992 -0.5876
 6434TIP3    H240794   6.424   3.996   4.375 -1.2337 -1.1172  1.1822
 6435TIP3   OH240795   1.863   6.323  11.881  0.1389 -0.2400  0.1407
 6435TIP3    H140796   1.870   6.291  11.791 -0.5531 -0.2584  0.0914
 6435TIP3    H240797   1.837   6.247  11.932 -1.0397  0.1220  0.0972
 6436TIP3   OH240798   2.079   0.267   3.147  0.4534  0.0541 -0.4314
 6436TIP3    H140799   2.056   0.204   3.216  1.3714  0.3397  0.1560
 6436TIP3    H240800   2.078   0.352   3.192 -0.0884  0.3903 -1.0541
 6437TIP3   OH240801   5.453   6.778  11.829 -0.0519 -0.0369 -0.6209
 6437TIP3    H140802   5.435   6.832  11.906 -0.0655 -1.8262  0.6842
 6437TIP3    H240803   5.546   6.792  11.810 -0.1894  0.8626 -0.6474
 6438TIP3   OH240804   3.929   2.180  12.553 -0.0873  0.0529 -0.3241
 6438TIP3    H140805   3.900   2.203  12.641 -0.5014  0.7310 -0.6273
 6438TIP3    H240806   3.911   2.086  12.545 -1.7732  0.3472 -0.3206
 6439TIP3   OH240807   1.160   6.669   4.002  0.3794 -0.5563 -0.7493
 6439TIP3    H140808   1.217   6.744   3.992 -0.8328  0.3971 -0.7923
 6439TIP3    H240809   1.199   6.601   3.946  3.0898 -1.0022  1.4621
 6440TIP3   OH240810   5.230   0.543   0.798  0.0775 -0.1847 -0.5463
 6440TIP3    H140811   5.179   0.622   0.811 -0.7980 -0.5140 -1.8212
 6440TIP3    H240812   5.313   0.573   0.761 -0.0924  0.1572 -0.6476
 6441TIP3   OH240813   6.444   3.124  12.856 -0.2715 -0.4144 -0.3015
 6441TIP3    H140814   6.414   3.203  12.901  0.6388  0.4892 -1.2193
 6441TIP3    H240815   6.479   3.068  12.926 -0.1769  0.3437  0.2714
 6442TIP3   OH240816   1.649   5.694  15.336  0.2419 -0.5656 -0.1363
 6442TIP3    H140817   1.570   5.690  15.391 -0.0603 -1.4567 -0.6190
 6442TIP3    H240818   1.666   5.787  15.326  0.0931 -0.3762  1.1694
 6443TIP3   OH240819   2.918   5.903   5.494  0.6712  0.2614 -0.4090
 6443TIP3    H140820   2.838   5.857   5.519  1.6696 -1.2437  0.1738
 6443TIP3    H240821   2.965   5.917   5.576  1.3068  0.5036 -0.8024
 6444TIP3   OH240822   3.863   0.584  10.623 -0.3989 -0.0444  0.2612
 6444TIP3    H140823   3.790   0.643  10.608 -0.1971  0.2446  0.3960
 6444TIP3    H240824   3.844   0.507  10.569  0.1091  0.7850 -1.1553
 6445TIP3   OH240825   3.740   0.192  17.190 -0.7093 -0.0980  0.3434
 6445TIP3    H140826   3.671   0.252  17.217 -1.3517 -1.0412  0.8409
 6445TIP3    H240827   3.731   0.117  17.248  0.8176 -0.1930  0.4898
 6446TIP3   OH240828   1.607   2.576  12.304 -0.3150  0.9620 -0.2856
 6446TIP3    H140829   1.611   2.483  12.282  0.6394  0.4911  1.5949
 6446TIP3    H240830   1.514   2.597  12.303 -0.5674 -0.1064 -0.4628
 6447TIP3   OH240831   4.532   6.631  12.889  0.9559 -0.0008 -0.1114
 6447TIP3    H140832   4.452   6.684  12.885  0.5863 -0.2965  2.1837
 6447TIP3    H240833   4.501   6.540  12.882  1.4173 -0.0605 -2.1213
 6448TIP3   OH240834   0.584   0.013   6.084 -0.2546 -0.0097 -0.1930
 6448TIP3    H140835   0.541   0.086   6.127  0.4364  1.0119 -1.1643
 6448TIP3    H240836   0.555   0.018   5.993 -1.2285 -1.7593 -0.0060
 6449TIP3   OH240837   0.474   0.632   1.717 -0.0884  0.1345  0.5029
 6449TIP3    H140838   0.459   0.547   1.758 -0.6101 -1.0719 -2.0456
 6449TIP3    H240839   0.413   0.691   1.762 -0.7834 -1.1574  1.3071
 6450TIP3   OH240840   4.984   2.775   1.717 -1.4506 -0.0813  0.1278
 6450TIP3    H140841   4.958   2.724   1.640  0.7130 -0.4663 -0.4030
 6450TIP3    H240842   4.977   2.866   1.688 -1.8504 -0.1794 -0.0965
 6451TIP3   OH240843   2.279   0.621  13.125 -0.2583 -0.4947  0.9025
 6451TIP3    H140844   2.271   0.531  13.094 -0.2608 -0.8105  1.7878
 6451TIP3    H240845   2.371   0.644  13.109 -0.3961 -0.4498  0.1511
 6452TIP3   OH240846   2.223   2.121   5.918  0.3770  0.1475 -0.3319
 6452TIP3    H140847   2.316   2.144   5.913  0.2438  0.6381 -0.6902
 6452TIP3    H240848   2.204   2.116   6.012  1.0732 -1.2729 -0.2464
 6453TIP3   OH240849   2.109   0.673  13.876  0.0838 -0.0833  0.0446
 6453TIP3    H140850   2.081   0.679  13.785 -0.2168  0.2724  0.1601
 6453TIP3    H240851   2.055   0.737  13.922  0.0697 -0.4218  0.5104
 6454TIP3   OH240852   2.214   3.936  11.343 -0.2732 -0.2782  0.6087
 6454TIP3    H140853   2.134   3.935  11.291 -1.2553  0.3670  2.0277
 6454TIP3    H240854   2.257   4.018  11.318 -1.5922  0.8868  1.9738
 6455TIP3   OH240855   0.822   4.936  11.736 -0.1968  0.3338  0.0807
 6455TIP3    H140856   0.801   4.921  11.644 -1.2855 -0.2750  0.4135
 6455TIP3    H240857   0.880   4.864  11.760 -2.5761 -1.4674  0.7268
 6456TIP3   OH240858   2.596   0.637  16.856  0.4687  0.3605 -0.3368
 6456TIP3    H140859   2.581   0.575  16.785  0.8870 -0.7750  0.5218
 6456TIP3    H240860   2.508   0.663  16.884  0.3095  1.3732 -1.7070
 6457TIP3   OH240861   0.784   0.725  15.086  0.2481 -0.4050 -0.6737
 6457TIP3    H140862   0.843   0.653  15.062  0.3072 -0.6255  0.1220
 6457TIP3    H240863   0.832   0.775  15.152 -1.8384 -2.7255  2.8980
 6458TIP3   OH240864   5.547   5.261  15.119  0.0566 -0.4539 -0.1483
 6458TIP3    H140865   5.518   5.295  15.204  0.5249  3.0931 -1.2367
 6458TIP3    H240866   5.640   5.242  15.131 -0.0930 -0.8737  0.3733
 6459TIP3   OH240867   3.435   0.742  14.781  0.0231  0.1918  0.4939
 6459TIP3    H140868   3.383   0.676  14.735  2.5880 -2.1434  0.6802
 6459TIP3    H240869   3.387   0.823  14.769 -0.8425 -0.7525 -4.0066
 6460TIP3   OH240870   5.734   3.773  12.077 -0.8997 -0.5202  0.2021
 6460TIP3    H140871   5.707   3.844  12.019  0.4978  1.5142  1.8945
 6460TIP3    H240872   5.774   3.708  12.019  1.6248  1.9847 -1.0888
 6461TIP3   OH240873   1.862   3.557   5.223 -0.0744 -0.3453  0.0621
 6461TIP3    H140874   1.852   3.551   5.318 -0.1847  0.6629  0.1220
 6461TIP3    H240875   1.816   3.480   5.190  1.0605 -1.4227  0.8797
 6462TIP3   OH240876   4.982   5.980  11.872 -0.4556  0.3653  0.8159
 6462TIP3    H140877   4.995   6.007  11.962  1.2295 -0.4927  0.8577
 6462TIP3    H240878   5.030   6.044  11.820  0.4247 -0.3815  0.6862
 6463TIP3   OH240879   0.694   1.214   4.980  0.1274  0.4293  0.1340
 6463TIP3    H140880   0.605   1.179   4.982 -0.3943  1.7510  0.9138
 6463TIP3    H240881   0.727   1.189   4.893 -2.0509  2.4384 -1.4148
 6464TIP3   OH240882   6.628   0.456  12.719  0.4022  0.0648 -0.2946
 6464TIP3    H140883   6.662   0.536  12.757 -0.6651  1.4938 -2.1591
 6464TIP3    H240884   6.580   0.485  12.641  0.6556 -2.4625 -1.4929
 6465TIP3   OH240885   3.891   4.422   5.487  0.5584 -0.6510 -0.1115
 6465TIP3    H140886   3.883   4.351   5.423  1.8219 -0.7538 -0.1902
 6465TIP3    H240887   3.986   4.429   5.502  0.6370  2.0389 -1.2843
 6466TIP3   OH240888   1.740   4.445  11.183 -0.2759  0.0077 -0.2468
 6466TIP3    H140889   1.765   4.357  11.155  1.7271  0.5008 -0.1463
 6466TIP3    H240890   1.768   4.502  11.111  0.8388  0.8046  0.7631
 6467TIP3   OH240891   5.899   3.709  11.183 -0.2703  0.2553  0.0646
 6467TIP3    H140892   5.901   3.628  11.233  1.5278  0.6834  0.7512
 6467TIP3    H240893   5.818   3.752  11.210 -0.4261 -0.5510  0.9265
 6468TIP3   OH240894   4.298   4.973  15.720 -0.2897 -0.3046  0.5351
 6468TIP3    H140895   4.370   5.007  15.667  0.8434 -1.6717  1.1578
 6468TIP3    H240896   4.269   4.895  15.674 -1.6937  0.4348  0.0744
 6469TIP3   OH240897   5.286   2.854   1.082 -0.3245  0.3719 -0.3042
 6469TIP3    H140898   5.256   2.912   1.012 -0.0650 -0.2643 -0.9638
 6469TIP3    H240899   5.347   2.907   1.133 -1.7224  1.3542  0.4332
 6470TIP3   OH240900   1.319   1.471   5.190  0.2317  0.6036  0.7932
 6470TIP3    H140901   1.354   1.396   5.239  0.5794  0.0681 -0.2398
 6470TIP3    H240902   1.393   1.502   5.138 -0.5987 -0.1256 -0.9275
 6471TIP3   OH240903   5.289   3.184   2.284  0.6207  0.0885 -0.0482
 6471TIP3    H140904   5.344   3.180   2.362  1.3893  1.2994 -0.5120
 6471TIP3    H240905   5.316   3.264   2.239 -1.4202  0.6372 -0.3768
 6472TIP3   OH240906   0.269   5.106  12.827  0.1319  0.3616 -0.5033
 6472TIP3    H140907   0.345   5.087  12.882 -0.7877  1.6342  1.2962
 6472TIP3    H240908   0.230   5.020  12.810  1.7798 -0.2887 -1.2648
 6473TIP3   OH240909   0.333   3.341  17.209 -0.0719 -0.5576  0.0556
 6473TIP3    H140910   0.271   3.268  17.207  0.2005 -0.7775 -0.6664
 6473TIP3    H240911   0.390   3.326  17.134  1.8424 -1.2087  1.5618
 6474TIP3   OH240912   3.504   6.718   3.338  0.6383 -0.7881  0.4967
 6474TIP3    H140913   3.443   6.650   3.366 -1.6324 -0.0857 -2.2233
 6474TIP3    H240914   3.543   6.683   3.257  0.9659  0.3033  0.1597
 6475TIP3   OH240915   1.951   1.097   0.952  0.2057  0.0659 -0.3622
 6475TIP3    H140916   1.989   1.179   0.983  1.8552 -1.0285  0.7109
 6475TIP3    H240917   1.985   1.086   0.863  1.1658 -0.1130  0.0077
 6476TIP3   OH240918   1.266   2.299   5.386 -0.0978 -0.8098 -0.5447
 6476TIP3    H140919   1.356   2.270   5.371 -0.4397 -2.0762 -0.2589
 6476TIP3    H240920   1.218   2.219   5.406 -1.0837 -0.0332  0.3169
 6477TIP3   OH240921   2.240   2.233  11.791  0.3859 -0.0018  0.3706
 6477TIP3    H140922   2.147   2.241  11.812  0.1271  1.2881 -1.0878
 6477TIP3    H240923   2.257   2.139  11.792 -0.8803 -0.2471  0.8617
 6478TIP3   OH240924   1.632   6.170  13.125 -0.3560  0.5218 -0.2268
 6478TIP3    H140925   1.631   6.085  13.169 -0.4462 -0.5029 -2.1254
 6478TIP3    H240926   1.712   6.213  13.157  0.2110 -0.6850  0.0218
 6479TIP3   OH240927   6.185   2.139  14.223  0.3543 -0.3011  0.5562
 6479TIP3    H140928   6.127   2.214  14.236  0.7840  0.1876 -0.2540
 6479TIP3    H240929   6.130   2.063  14.241 -0.5905  0.1434 -0.3617
 6480TIP3   OH240930   4.433   5.464   6.227  0.0458  0.5438  0.4626
 6480TIP3    H140931   4.430   5.543   6.173  0.9053 -0.5646 -1.3143
 6480TIP3    H240932   4.524   5.435   6.222 -0.3728 -0.8781  0.5791
 6481TIP3   OH240933   6.067   2.996  12.951  0.0716 -0.2227  0.7207
 6481TIP3    H140934   6.042   2.904  12.944 -1.2923  0.2431 -1.4192
 6481TIP3    H240935   6.122   3.011  12.874 -1.6904  1.2847 -0.3050
 6482TIP3   OH240936   6.347   2.918  11.501 -0.5013  0.4981 -0.0345
 6482TIP3    H140937   6.357   3.011  11.479  1.4249  0.7117  1.4680
 6482TIP3    H240938   6.386   2.872  11.426 -0.6320  0.9276 -0.3743
 6483TIP3   OH240939   3.955   3.819  12.071 -0.0625 -0.2168  0.4269
 6483TIP3    H140940   3.909   3.823  12.155  0.1232  0.8976  0.4919
 6483TIP3    H240941   3.888   3.835  12.006  0.3642  2.6245  0.5840
 6484TIP3   OH240942   3.545   3.903  13.325 -0.2006  0.1879  0.5616
 6484TIP3    H140943   3.528   3.809  13.331  1.5890 -0.1985  0.2353
 6484TIP3    H240944   3.534   3.923  13.232 -1.2268  0.4553  0.7311
 6485TIP3   OH240945   3.702   0.679   3.631  0.3652 -0.6643 -0.2109
 6485TIP3    H140946   3.642   0.722   3.570  1.2695  1.9094  0.5697
 6485TIP3    H240947   3.716   0.592   3.595 -1.0341 -0.0845 -2.3079
 6486TIP3   OH240948   4.496   3.544   1.959 -0.6028 -0.9725 -0.7098
 6486TIP3    H140949   4.555   3.599   1.907  0.3943  0.5248  1.8180
 6486TIP3    H240950   4.408   3.575   1.936 -0.0680  2.4402  1.1912
 6487TIP3   OH240951   5.954   6.045   5.100 -0.0907 -0.1897  0.2318
 6487TIP3    H140952   5.970   6.075   5.190  0.9062  1.7218 -0.5187
 6487TIP3    H240953   5.858   6.041   5.093 -0.1967  0.2980  1.2002
 6488TIP3   OH240954   4.216   2.182  17.044 -0.6730 -0.4164  0.4509
 6488TIP3    H140955   4.124   2.207  17.044 -0.3651  0.7771 -0.0377
 6488TIP3    H240956   4.237   2.167  16.952 -0.1257  0.2975  0.4527
 6489TIP3   OH240957   1.047   4.669  10.818 -0.4673  0.3271 -0.2536
 6489TIP3    H140958   1.091   4.609  10.757  0.5185  0.6529  0.1134
 6489TIP3    H240959   0.962   4.686  10.778  0.6874  1.6742 -2.3306
 6490TIP3   OH240960   2.429   5.468  13.196  0.5097 -0.3928 -0.8051
 6490TIP3    H140961   2.344   5.426  13.179  0.5772 -0.6217 -0.5908
 6490TIP3    H240962   2.411   5.562  13.191  0.0393 -0.4187  0.1495
 6491TIP3   OH240963   4.844   3.522   0.226  0.2151  0.3731 -0.2189
 6491TIP3    H140964   4.821   3.571   0.146 -1.4292 -2.2591 -1.4887
 6491TIP3    H240965   4.794   3.566   0.295  0.1207  1.5099 -0.9706
 6492TIP3   OH240966   4.074   4.770  12.515 -0.4107  0.1002  0.0828
 6492TIP3    H140967   4.154   4.803  12.557 -1.5039 -0.4214  2.7705
 6492TIP3    H240968   4.058   4.830  12.443  1.0017  1.7517  1.0689
 6493TIP3   OH240969   1.297   0.724  13.062  0.0944  0.5413  0.0335
 6493TIP3    H140970   1.231   0.779  13.103  1.0895  1.0746  0.9515
 6493TIP3    H240971   1.357   0.785  13.020  1.3659  0.2102  1.3006
 6494TIP3   OH240972   0.652   3.877   4.627  0.2412  0.0498  0.2324
 6494TIP3    H140973   0.566   3.865   4.587  0.3317  1.3874 -0.4058
 6494TIP3    H240974   0.669   3.971   4.621  1.0484  0.0536  1.8051
 6495TIP3   OH240975   5.093   4.362  12.147  0.0729  0.1139 -0.6364
 6495TIP3    H140976   5.061   4.429  12.206 -0.3392  0.8158 -1.6300
 6495TIP3    H240977   5.042   4.374  12.066  0.3789 -1.0295 -1.0269
 6496TIP3   OH240978   3.048   5.153   1.697  0.0382  0.2164 -0.1007
 6496TIP3    H140979   2.988   5.145   1.771 -1.0960 -2.1606 -1.1718
 6496TIP3    H240980   3.134   5.167   1.738 -0.6913 -0.0632  1.6366
 6497TIP3   OH240981   5.310   3.016  12.867  0.2525 -0.5417 -0.2388
 6497TIP3    H140982   5.385   2.984  12.816  0.5444 -1.6459  0.8368
 6497TIP3    H240983   5.349   3.050  12.947 -0.1277  1.9401 -1.0150
 6498TIP3   OH240984   2.725   4.751  15.237  0.2259  0.5062  0.1237
 6498TIP3    H140985   2.662   4.823  15.233 -0.0831  0.1816 -1.4379
 6498TIP3    H240986   2.678   4.680  15.281 -0.4115  0.3684 -0.7603
 6499TIP3   OH240987   0.488   0.098  15.242 -0.1542  0.0396  0.3351
 6499TIP3    H140988   0.402   0.059  15.224 -0.4753  0.4407  0.9543
 6499TIP3    H240989   0.497   0.093  15.337  0.9608 -0.9136  0.1994
 6500TIP3   OH240990   1.553   6.496  14.737 -0.0515  0.5614 -0.3442
 6500TIP3    H140991   1.567   6.422  14.678 -1.6602  0.2079 -0.3220
 6500TIP3    H240992   1.607   6.475  14.814 -0.1452 -0.3683 -0.5174
 6501TIP3   OH240993   2.615   2.956   6.190 -0.1219  0.1704  0.2776
 6501TIP3    H140994   2.598   2.974   6.097 -0.3402  0.5719  0.3930
 6501TIP3    H240995   2.605   3.041   6.233  0.5511  0.0927  0.5909
 6502TIP3   OH240996   5.948   1.127  11.575 -0.4073 -0.4746 -0.1313
 6502TIP3    H140997   6.034   1.109  11.538 -0.6870 -2.1944 -0.0269
 6502TIP3    H240998   5.903   1.042  11.573 -0.7413 -0.5188  3.3305
 6503TIP3   OH240999   4.419   0.561  13.781  0.4768 -0.4022  0.8408
 6503TIP3    H141000   4.391   0.478  13.742 -1.2073  0.3792  0.2717
 6503TIP3    H241001   4.452   0.612  13.708 -1.3975  0.5508  0.5949
 6504TIP3   OH241002   1.020   2.506   3.970  0.0904  0.0257 -0.0479
 6504TIP3    H141003   0.984   2.533   4.054 -0.8787 -2.1075  0.2897
 6504TIP3    H241004   0.964   2.548   3.905  1.4024  2.4394  0.2696
 6505TIP3   OH241005   6.066   4.379  12.324 -0.0569 -0.7155  0.2178
 6505TIP3    H141006   6.130   4.350  12.388 -1.7601 -3.7258  0.7082
 6505TIP3    H241007   6.090   4.334  12.243  1.1787  1.8861 -0.9967
 6506TIP3   OH241008   0.899   4.852  15.011 -0.4947  0.2580 -0.2373
 6506TIP3    H141009   0.872   4.918  15.074 -0.2285  1.7390 -1.5950
 6506TIP3    H241010   0.958   4.899  14.951  1.7784 -1.8349  0.2184
 6507TIP3   OH241011   0.720   0.165   2.384 -0.2496  0.2899 -0.0698
 6507TIP3    H141012   0.697   0.243   2.334  0.5952  0.1788 -0.6705
 6507TIP3    H241013   0.639   0.115   2.391 -0.2949  0.0479 -1.8336
 6508TIP3   OH241014   4.558   4.302   2.429  0.0108  0.1434 -0.1850
 6508TIP3    H141015   4.541   4.342   2.344  0.4090  0.4372 -0.1259
 6508TIP3    H241016   4.641   4.255   2.418  0.1199  0.2761  0.0730
 6509TIP3   OH241017   2.445   5.780  17.220 -0.1756  0.2138 -0.0177
 6509TIP3    H141018   2.403   5.738  17.295  0.6552 -0.3655  0.1255
 6509TIP3    H241019   2.434   5.717  17.149 -0.2140  0.3980 -0.1764
 6510TIP3   OH241020   3.904   5.554   0.581 -0.1397 -0.0303 -0.8833
 6510TIP3    H141021   3.983   5.588   0.625 -1.2036  1.0678  0.2430
 6510TIP3    H241022   3.856   5.509   0.651 -0.8469 -0.1102 -1.4216
 6511TIP3   OH241023   3.245   4.089  11.550  0.2916 -0.3633 -0.1083
 6511TIP3    H141024   3.274   4.112  11.639  1.2365  0.1801 -0.5395
 6511TIP3    H241025   3.197   4.166  11.519  1.6139  0.2416 -0.7564
 6512TIP3   OH241026   4.818   6.372   4.419 -0.0699  0.5294  0.1832
 6512TIP3    H141027   4.775   6.426   4.485 -3.1512 -2.9977  1.4055
 6512TIP3    H241028   4.848   6.294   4.467  0.6855 -0.6580 -2.0412
 6513TIP3   OH241029   1.228   3.293   1.023  0.2224  0.0992  0.6828
 6513TIP3    H141030   1.163   3.251   0.967  1.2828 -0.8264  0.0968
 6513TIP3    H241031   1.306   3.300   0.968  1.8381 -2.2959  2.4563
 6514TIP3   OH241032   2.739   2.957   2.188 -0.1870  0.0427  0.3352
 6514TIP3    H141033   2.725   3.026   2.124 -0.5878  0.4373  0.8374
 6514TIP3    H241034   2.723   2.999   2.273 -1.3718 -0.8895  0.6016
 6515TIP3   OH241035   5.221   3.720   5.923  0.4962 -0.2008  0.2635
 6515TIP3    H141036   5.269   3.720   6.006 -0.2866  1.0495  0.7572
 6515TIP3    H241037   5.244   3.804   5.883  0.3232 -0.4933 -0.4597
 6516TIP3   OH241038   1.817   5.698  16.791 -0.3445  0.7089 -0.2022
 6516TIP3    H141039   1.836   5.709  16.698  0.7184 -0.7461 -0.1738
 6516TIP3    H241040   1.896   5.728  16.836  0.3526 -1.4182  0.0857
 6517TIP3   OH241041   4.896   1.655  14.128 -0.3606 -0.2177 -0.0243
 6517TIP3    H141042   4.917   1.571  14.170 -0.8870 -1.3630 -1.9172
 6517TIP3    H241043   4.925   1.721  14.191 -0.5300 -1.8046  1.8257
 6518TIP3   OH241044   0.414   1.808   0.135 -0.6712  0.2898 -0.2524
 6518TIP3    H141045   0.393   1.900   0.120  1.9271  0.8673 -0.8621
 6518TIP3    H241046   0.452   1.806   0.223 -3.2670 -0.7724  0.9745
 6519TIP3   OH241047   3.041   1.891   4.851 -0.0988  0.4480  0.1526
 6519TIP3    H141048   3.057   1.853   4.937  0.6387  0.8421  0.1983
 6519TIP3    H241049   2.952   1.864   4.829  0.7144 -2.1852 -0.2715
 6520TIP3   OH241050   5.330   4.048   4.826  0.1973  0.2048  0.6023
 6520TIP3    H141051   5.252   3.993   4.824  0.3007  0.0670 -0.3278
 6520TIP3    H241052   5.357   4.049   4.917 -0.8024  0.1269  0.9080
 6521TIP3   OH241053   2.670   3.707   3.850 -0.1010  0.0447  0.0491
 6521TIP3    H141054   2.615   3.701   3.773  0.8718  3.2424 -1.0525
 6521TIP3    H241055   2.758   3.723   3.816  0.5779  0.3193  1.8032
 6522TIP3   OH241056   0.610   2.290  11.331 -0.1758  0.2705 -0.2676
 6522TIP3    H141057   0.654   2.237  11.398 -0.9487 -0.6315 -0.4520
 6522TIP3    H241058   0.611   2.235  11.253 -0.3049  0.8531 -0.6801
 6523TIP3   OH241059   2.662   1.046  14.179  0.6301 -0.1480  0.8369
 6523TIP3    H141060   2.634   1.038  14.088  1.6221 -0.6874  0.5575
 6523TIP3    H241061   2.582   1.035  14.231  0.1808 -0.6363  0.0548
 6524TIP3   OH241062   0.077   4.807  14.899  0.1474  0.3717  0.1686
 6524TIP3    H141063  -0.013   4.804  14.933 -0.4372  1.0575 -1.2122
 6524TIP3    H241064   0.114   4.721  14.919 -1.0210 -0.1319  0.2437
 6525TIP3   OH241065   6.091   5.936   2.203  0.3724 -0.3966 -0.0561
 6525TIP3    H141066   6.058   5.951   2.114 -0.1159  0.9719  0.3200
 6525TIP3    H241067   6.138   5.853   2.198  2.3600  0.7415 -2.1469
 6526TIP3   OH241068   4.573   6.081  15.777  0.4823 -0.1781 -0.1996
 6526TIP3    H141069   4.573   6.089  15.873  0.8258  0.6831 -0.2660
 6526TIP3    H241070   4.650   6.130  15.749 -0.2045  0.4818 -0.9864
 6527TIP3   OH241071   0.059   0.840   5.926  0.0557 -0.2206 -0.0539
 6527TIP3    H141072   0.043   0.816   5.835 -2.0147 -0.2326  0.2464
 6527TIP3    H241073   0.030   0.931   5.932  2.1102  0.4734  0.1812
 6528TIP3   OH241074   0.510   4.710   5.137  0.1998 -0.8974 -0.3149
 6528TIP3    H141075   0.433   4.725   5.191  0.8480  1.2552  0.0871
 6528TIP3    H241076   0.580   4.690   5.199  0.3390 -1.2007 -0.5653
 6529TIP3   OH241077   6.270   4.244  16.755  0.0982 -0.1910 -0.2337
 6529TIP3    H141078   6.277   4.299  16.833  0.3416 -3.1358  2.0105
 6529TIP3    H241079   6.360   4.219  16.735 -0.1019 -0.7647 -0.4300
 6530TIP3   OH241080   0.811   6.521  13.013  0.4707 -0.4795  0.2403
 6530TIP3    H141081   0.892   6.567  13.036  0.8651 -0.2956 -1.4068
 6530TIP3    H241082   0.835   6.464  12.940 -0.1721 -2.8619  1.7679
 6531TIP3   OH241083   0.285   3.369  15.284  0.6291  0.7639 -0.2526
 6531TIP3    H141084   0.361   3.413  15.247 -0.5200  2.2502 -0.9610
 6531TIP3    H241085   0.210   3.414  15.245 -0.6204 -0.8079  0.2350
 6532TIP3   OH241086   4.218   0.519   0.358 -0.3333  0.1395 -0.0195
 6532TIP3    H141087   4.166   0.568   0.421 -1.9424 -0.4247 -0.8677
 6532TIP3    H241088   4.293   0.575   0.340 -1.2608  1.5276  0.3281
 6533TIP3   OH241089   6.087   2.936  17.194  0.6441  0.7512 -0.5881
 6533TIP3    H141090   6.182   2.938  17.182  0.9511  0.7501  1.5431
 6533TIP3    H241091   6.065   2.843  17.197  0.6280  0.7551 -0.5791
 6534TIP3   OH241092   6.607   5.044   0.258 -0.5909 -0.1272  0.1329
 6534TIP3    H141093   6.671   5.085   0.315 -1.6719  1.2680  0.4022
 6534TIP3    H241094   6.659   5.001   0.190  0.6131  1.5096 -0.0381
 6535TIP3   OH241095   4.500   2.359  13.457  0.0075 -0.4991  0.2575
 6535TIP3    H141096   4.571   2.295  13.469  0.1767 -0.1211  1.3474
 6535TIP3    H241097   4.545   2.441  13.438  0.0665  0.3507  3.4840
 6536TIP3   OH241098   2.731   2.702   3.164  0.4329  0.0467  0.1765
 6536TIP3    H141099   2.762   2.790   3.145  0.2232 -0.2867 -2.0133
 6536TIP3    H241100   2.637   2.712   3.177  0.2211  0.0424 -1.1869
 6537TIP3   OH241101   3.434   1.248  13.551 -0.2369 -0.4388  0.2967
 6537TIP3    H141102   3.472   1.171  13.592 -0.8179 -1.1476 -0.4856
 6537TIP3    H241103   3.411   1.220  13.463  0.0491  0.7824 -0.1858
 6538TIP3   OH241104   4.980   2.685  13.218  0.0768  0.5120 -0.4755
 6538TIP3    H141105   5.065   2.712  13.252 -0.6610  1.0620  1.0300
 6538TIP3    H241106   4.971   2.734  13.136  1.2188  0.3921 -0.6892
 6539TIP3   OH241107   4.491   2.165   1.807 -0.2125 -0.0054  0.1901
 6539TIP3    H141108   4.552   2.216   1.860 -0.4352  0.0195  0.4261
 6539TIP3    H241109   4.420   2.144   1.867 -0.0263 -0.7658  0.1550
 6540TIP3   OH241110   0.257   2.583  11.333  1.1120  0.3918 -0.2033
 6540TIP3    H141111   0.242   2.489  11.338  2.0893  0.2659  3.4214
 6540TIP3    H241112   0.352   2.591  11.322  0.9778  0.9812 -1.0062
 6541TIP3   OH241113   2.429   6.469  15.899  0.2822  0.3286 -0.1621
 6541TIP3    H141114   2.443   6.440  15.989 -0.1105  1.2333  0.1939
 6541TIP3    H241115   2.338   6.447  15.880  0.4785 -0.2336 -0.4879
 6542TIP3   OH241116   0.842   6.694   3.866 -0.0783  0.1061 -0.2412
 6542TIP3    H141117   0.928   6.730   3.842  1.6141 -2.2865  1.6843
 6542TIP3    H241118   0.814   6.747   3.941  0.8729 -0.4828  0.5631
 6543TIP3   OH241119   3.086   1.695   2.040  0.7347 -0.3574 -0.1914
 6543TIP3    H141120   3.000   1.678   2.079 -0.2070  3.0903 -0.3623
 6543TIP3    H241121   3.088   1.642   1.961 -1.2419 -0.5562 -0.1626
 6544TIP3   OH241122   1.552   3.577  15.606 -0.0150 -0.1379 -0.1677
 6544TIP3    H141123   1.577   3.488  15.580 -0.9449 -0.8003  1.0599
 6544TIP3    H241124   1.576   3.582  15.699  2.7422  1.9612 -0.8536
 6545TIP3   OH241125   0.952   2.690  15.911 -0.0869  0.1287 -0.0025
 6545TIP3    H141126   1.001   2.734  15.980 -0.9273 -0.0786  0.7405
 6545TIP3    H241127   0.879   2.647  15.956 -0.6581 -0.0049 -1.0100
 6546TIP3   OH241128   0.540   2.281   1.057  0.0046 -0.1952 -0.4162
 6546TIP3    H141129   0.535   2.368   1.017 -0.9811  0.0205  0.1335
 6546TIP3    H241130   0.525   2.297   1.150  1.3845 -0.7871 -0.0679
 6547TIP3   OH241131   2.281   4.435   3.892 -0.2887 -0.1883  0.4314
 6547TIP3    H141132   2.300   4.406   3.803 -0.4963 -1.7115  0.8406
 6547TIP3    H241133   2.314   4.525   3.896 -0.6767  0.0622 -1.2927
 6548TIP3   OH241134   6.597   6.324   2.087 -0.7219 -0.4875  0.1791
 6548TIP3    H141135   6.548   6.395   2.129 -0.8718 -1.4310  1.6744
 6548TIP3    H241136   6.666   6.303   2.149 -2.3693 -3.5375  1.1977
 6549TIP3   OH241137   3.652   1.590  11.129 -0.2588 -0.4423 -0.1346
 6549TIP3    H141138   3.602   1.513  11.156  0.7599 -0.9183  0.4438
 6549TIP3    H241139   3.719   1.600  11.196  0.1849  0.4084 -0.6893
 6550TIP3   OH241140   1.588   1.126  13.498  0.0651 -0.0672 -0.4290
 6550TIP3    H141141   1.610   1.037  13.470  1.2805  0.6522 -1.8775
 6550TIP3    H241142   1.665   1.156  13.546  0.7273  1.0297 -2.0633
 6551TIP3   OH241143   6.015   1.363   0.216 -0.2054 -0.6666  0.1209
 6551TIP3    H141144   6.090   1.333   0.268 -0.1386  1.2430  1.2014
 6551TIP3    H241145   5.941   1.357   0.276 -0.8249 -1.9092 -0.7375
 6552TIP3   OH241146   3.288   6.681   5.480  0.3265  0.2507 -0.5493
 6552TIP3    H141147   3.213   6.739   5.494  1.0912  0.9415  0.8520
 6552TIP3    H241148   3.364   6.734   5.503  1.0296 -1.4278  1.3081
 6553TIP3   OH241149   1.752   5.860  15.968  0.3547 -0.0925  0.2122
 6553TIP3    H141150   1.843   5.889  15.961  0.5271 -0.6958 -0.1812
 6553TIP3    H241151   1.730   5.871  16.061  1.1433 -0.8179  0.4972
 6554TIP3   OH241152   2.165   5.983  12.877 -0.1899  0.0481  0.1543
 6554TIP3    H141153   2.085   5.987  12.929 -0.0097  2.3915  0.3831
 6554TIP3    H241154   2.178   6.073  12.846  0.7928 -0.8547 -2.3118
 6555TIP3   OH241155   1.358   4.153   0.477  0.1632 -0.0967  0.6702
 6555TIP3    H141156   1.393   4.084   0.534  0.5496 -0.9110 -0.5110
 6555TIP3    H241157   1.267   4.127   0.461  0.6225 -1.0191 -0.7033
 6556TIP3   OH241158   3.989   2.264  13.602 -0.2610  0.1806  0.5149
 6556TIP3    H141159   3.994   2.352  13.564 -0.6231  1.0654  2.3921
 6556TIP3    H241160   3.904   2.262  13.647 -0.9148 -1.6773 -0.6832
 6557TIP3   OH241161   1.662   3.703  11.237 -0.0492  0.0589 -0.5652
 6557TIP3    H141162   1.666   3.664  11.149 -0.5936 -1.1423 -0.0821
 6557TIP3    H241163   1.753   3.712  11.264  0.0845 -1.2467 -0.5465
 6558TIP3   OH241164   0.201   2.465   0.029 -0.5236  0.2291 -0.3537
 6558TIP3    H141165   0.243   2.497  -0.051  2.8451  0.2279  1.2467
 6558TIP3    H241166   0.175   2.544   0.076  0.7911  0.4237  0.1036
 6559TIP3   OH241167   4.604   2.279   4.892  0.0563 -0.0186  0.4180
 6559TIP3    H141168   4.595   2.229   4.811 -1.6167  0.4190  0.2853
 6559TIP3    H241169   4.583   2.369   4.866  1.3636  0.4603  0.9798
 6560TIP3   OH241170   0.364   0.412   0.213 -0.3136 -0.1448  0.3792
 6560TIP3    H141171   0.446   0.372   0.186 -0.2594  0.8917 -1.1231
 6560TIP3    H241172   0.296   0.353   0.180 -0.1954 -0.8185  1.3123
 6561TIP3   OH241173   2.625   0.952  10.983 -0.6491  0.1132 -0.6605
 6561TIP3    H141174   2.672   0.973  11.064  0.7734 -1.6722 -0.9386
 6561TIP3    H241175   2.545   1.004  10.987 -0.6084  0.1108  1.8762
 6562TIP3   OH241176   3.661   1.802   4.498  0.5514  0.0228 -0.7081
 6562TIP3    H141177   3.663   1.712   4.465 -0.3273  0.7406 -2.8750
 6562TIP3    H241178   3.569   1.818   4.518  0.7425  0.3799 -0.1031
 6563TIP3   OH241179   4.650   0.111  13.366 -0.4111  0.2352 -0.4974
 6563TIP3    H141180   4.563   0.076  13.347 -0.8069 -0.1750  1.7760
 6563TIP3    H241181   4.637   0.165  13.444  1.6388 -1.2387  0.9559
 6564TIP3   OH241182   0.978   5.346  15.030  0.2930 -0.2821  0.9693
 6564TIP3    H141183   1.024   5.394  14.962  0.0755 -0.2531  0.8444
 6564TIP3    H241184   1.012   5.382  15.112  0.9116 -0.6491  0.8807
 6565TIP3   OH241185   1.273   6.700   1.010 -0.0880 -0.3149 -0.4479
 6565TIP3    H141186   1.182   6.728   1.025 -0.4355 -1.4099 -0.4075
 6565TIP3    H241187   1.277   6.613   1.049  1.3863  0.2646  0.8023
 6566TIP3   OH241188   0.557   0.052   5.821 -0.4889 -0.1323  0.4665
 6566TIP3    H141189   0.486   0.003   5.779 -0.8798 -0.8493  1.8744
 6566TIP3    H241190   0.637   0.014   5.785 -0.7880 -1.7175  1.3583
 6567TIP3   OH241191   5.593   0.835  10.763  0.3610  0.1345  0.6933
 6567TIP3    H141192   5.612   0.742  10.751  0.8194  0.2550  0.4829
 6567TIP3    H241193   5.590   0.846  10.858  0.0151 -0.1508  0.7196
 6568TIP3   OH241194   0.574   1.660   3.169  0.0034  0.3127  0.5201
 6568TIP3    H141195   0.496   1.609   3.148  0.2022 -0.0944  0.7601
 6568TIP3    H241196   0.572   1.669   3.264  0.0615  0.6090  0.4960
 6569TIP3   OH241197   1.814   1.064  15.321  0.6446 -0.0447 -0.4669
 6569TIP3    H141198   1.820   1.094  15.412  1.4252  0.4678 -0.6767
 6569TIP3    H241199   1.771   1.137  15.275  1.8905  0.4854 -0.8396
 6570TIP3   OH241200   0.336   1.091   4.375  0.3059 -0.5039 -0.6690
 6570TIP3    H141201   0.281   1.118   4.302 -0.7176 -0.9791 -0.0942
 6570TIP3    H241202   0.315   0.998   4.387 -0.1313 -0.2543  0.7107
 6571TIP3   OH241203   5.749   3.884  12.578 -0.2079 -0.3706 -0.3957
 6571TIP3    H141204   5.822   3.857  12.523  0.1452  0.4692 -0.3512
 6571TIP3    H241205   5.671   3.864  12.526  0.1109  0.0894 -1.0601
 6572TIP3   OH241206   4.369   1.156   0.971  0.1302 -1.1115  0.5641
 6572TIP3    H141207   4.298   1.141   1.033 -0.9142 -0.6879 -0.4862
 6572TIP3    H241208   4.351   1.095   0.899 -0.4189  0.4579 -0.6987
 6573TIP3   OH241209   6.687   4.345  16.673  0.2098 -0.3348  0.2192
 6573TIP3    H141210   6.661   4.422  16.624  1.1476  0.6371  1.1847
 6573TIP3    H241211   6.765   4.312  16.627 -0.1784 -0.6994 -0.1802
 6574TIP3   OH241212   4.067   4.431  13.942 -0.0900  0.5648 -0.1782
 6574TIP3    H141213   4.120   4.378  13.881 -0.4093 -1.3921  1.1497
 6574TIP3    H241214   4.125   4.502  13.968  0.7398  0.3199 -1.2365
 6575TIP3   OH241215   2.955   4.786  16.237 -0.3867 -0.2917 -0.5884
 6575TIP3    H141216   3.030   4.736  16.205 -0.8765 -0.0403 -2.2100
 6575TIP3    H241217   2.916   4.823  16.158 -2.6734 -1.0246  0.1422
 6576TIP3   OH241218   0.402   3.935   2.673 -0.4963  0.0682 -0.1564
 6576TIP3    H141219   0.307   3.936   2.681 -0.5373 -1.6570 -0.0726
 6576TIP3    H241220   0.421   3.855   2.624  0.8312  1.2300 -1.6507
 6577TIP3   OH241221   5.294   2.983  14.825 -0.1972  0.1252 -0.1840
 6577TIP3    H141222   5.245   2.902  14.817 -0.8490  0.5275 -0.3614
 6577TIP3    H241223   5.306   2.995  14.919  0.3678 -0.4428 -0.1761
 6578TIP3   OH241224   4.312   5.978  11.866  0.0779 -0.5826 -0.2605
 6578TIP3    H141225   4.334   6.072  11.863 -1.2099 -0.2040  1.1762
 6578TIP3    H241226   4.386   5.938  11.912 -0.0717 -0.0279  0.4801
 6579TIP3   OH241227   0.720   4.417   1.386 -0.2299  0.3777 -0.3456
 6579TIP3    H141228   0.746   4.333   1.350 -0.1896  0.8350 -1.4039
 6579TIP3    H241229   0.738   4.481   1.317 -0.9647  1.1589  0.1556
 6580TIP3   OH241230   1.741   6.494   1.498  0.0402 -0.5163 -0.1671
 6580TIP3    H141231   1.836   6.492   1.484 -0.0109  0.6114 -0.7553
 6580TIP3    H241232   1.705   6.446   1.424  0.0525  0.9112 -1.1264
 6581TIP3   OH241233   0.713   2.879   2.682  0.4251 -0.2255  0.0585
 6581TIP3    H141234   0.712   2.797   2.732 -0.0182 -0.9468 -1.0969
 6581TIP3    H241235   0.754   2.943   2.741  0.6293 -1.2344  1.0357
 6582TIP3   OH241236   5.609   0.610   2.553  0.2990  0.1561  0.5581
 6582TIP3    H141237   5.636   0.692   2.594 -0.5364  0.5482  0.3327
 6582TIP3    H241238   5.514   0.608   2.563  0.2921 -0.6850  0.3783
 6583TIP3   OH241239   4.178   4.463  14.958 -0.1713 -0.2241  0.2536
 6583TIP3    H141240   4.192   4.393  15.022  0.6017 -1.6348 -1.3471
 6583TIP3    H241241   4.131   4.531  15.006 -0.9196 -1.8121  1.9161
 6584TIP3   OH241242   3.745   3.698  14.139  0.3511 -0.8073  0.3434
 6584TIP3    H141243   3.793   3.781  14.135  1.0912 -1.1438  1.9187
 6584TIP3    H241244   3.810   3.632  14.161 -0.6888 -1.3855  1.8299
 6585TIP3   OH241245   2.267   2.560   4.988 -0.0889  0.4153  0.2728
 6585TIP3    H141246   2.243   2.476   5.028  3.0993 -0.7698 -0.0485
 6585TIP3    H241247   2.354   2.580   5.023 -0.2024  2.9612 -0.6826
 6586TIP3   OH241248   2.457   4.864   4.555  0.1679  0.2033  0.7590
 6586TIP3    H141249   2.375   4.838   4.598 -0.1662  0.6222  0.3913
 6586TIP3    H241250   2.522   4.802   4.588 -0.3444 -0.2832  0.8818
 6587TIP3   OH241251   4.814   0.099  16.251 -0.4983  0.1597  0.2636
 6587TIP3    H141252   4.817   0.119  16.344 -2.0266  1.7081  0.0426
 6587TIP3    H241253   4.795   0.006  16.246 -0.6407  0.1095  1.5078
 6588TIP3   OH241254   4.683   4.866   2.257 -0.2293  0.4405  0.1075
 6588TIP3    H141255   4.629   4.820   2.322 -0.2413 -0.0064 -0.2125
 6588TIP3    H241256   4.711   4.797   2.197  0.4157  0.7293  0.0705
 6589TIP3   OH241257   5.581   0.382   9.986 -0.1043 -0.0342  0.4089
 6589TIP3    H141258   5.524   0.458   9.976  1.3071  1.1896  1.3433
 6589TIP3    H241259   5.562   0.348  10.073 -1.3499 -1.3180 -0.3307
 6590TIP3   OH241260   3.919   5.421   5.121  0.1453 -0.2149 -0.4196
 6590TIP3    H141261   3.920   5.514   5.100  0.7695 -0.0486  0.2773
 6590TIP3    H241262   3.966   5.415   5.204  0.5189 -1.2031 -0.6851
 6591TIP3   OH241263   3.553   1.212  15.568 -0.2128  0.1307 -0.1837
 6591TIP3    H141264   3.470   1.217  15.521 -0.0831 -0.1743 -0.4457
 6591TIP3    H241265   3.619   1.227  15.501 -0.0915  2.0502  0.2787
 6592TIP3   OH241266   2.271   1.439  12.539  0.0286  0.1055 -0.2963
 6592TIP3    H141267   2.310   1.496  12.472 -0.1126  0.9992  0.3657
 6592TIP3    H241268   2.229   1.369  12.489  1.1439 -0.0331 -1.0821
 6593TIP3   OH241269   2.005   1.839  13.334 -0.1480 -0.4313 -0.6617
 6593TIP3    H141270   2.047   1.778  13.273  1.2235 -0.1189 -0.0576
 6593TIP3    H241271   1.960   1.902  13.277  2.2804  0.7046 -1.4765
 6594TIP3   OH241272   1.133   5.195  14.309 -0.5958  0.2188 -0.6874
 6594TIP3    H141273   1.169   5.109  14.329  1.4670  1.2489  0.3039
 6594TIP3    H241274   1.177   5.222  14.229 -0.4471  0.7727 -0.4268
 6595TIP3   OH241275   4.936   6.670  14.985 -0.2389  0.4043  0.1867
 6595TIP3    H141276   4.946   6.750  15.037 -0.2740 -1.3462  3.1307
 6595TIP3    H241277   4.843   6.669  14.961 -0.3525  0.9984  0.5768
 6596TIP3   OH241278   6.593   5.963  14.354 -0.1028 -0.2454  0.3955
 6596TIP3    H141279   6.571   5.887  14.407  0.6271  1.1339  2.8260
 6596TIP3    H241280   6.671   5.999  14.395  2.4164 -0.7542 -3.4838
 6597TIP3   OH241281   5.900   3.394   1.568  0.3892 -0.1568  0.2048
 6597TIP3    H141282   5.921   3.334   1.640 -0.2134 -1.1231 -0.4010
 6597TIP3    H241283   5.894   3.480   1.610 -0.5408 -0.7860  1.4325
 6598TIP3   OH241284   6.439   1.273   6.947 -0.1592  0.3389 -0.0865
 6598TIP3    H141285   6.442   1.315   7.033  1.6740  0.3478 -0.1069
 6598TIP3    H241286   6.502   1.202   6.954  0.2663  0.5581 -1.5221
 6599TIP3   OH241287   4.701   5.564  12.475 -0.1728 -0.1043  0.6047
 6599TIP3    H141288   4.641   5.609  12.535 -0.2058  0.1642  0.3753
 6599TIP3    H241289   4.788   5.587  12.506 -0.1900  0.0538  0.5388
 6600TIP3   OH241290   3.065   2.596  17.145  0.1922  0.1831  0.9875
 6600TIP3    H141291   3.043   2.627  17.057 -0.0760  0.3291  1.1028
 6600TIP3    H241292   3.059   2.500  17.138  1.1287  0.1416  0.6058
 6601TIP3   OH241293   2.259   5.243   2.334 -0.3590 -0.1807 -0.3071
 6601TIP3    H141294   2.334   5.245   2.274 -1.7063  1.3045 -2.0361
 6601TIP3    H241295   2.261   5.155   2.371  2.4870 -0.0644  0.0959
 6602TIP3   OH241296   1.032   5.958  16.589  0.0499 -0.3554  0.1588
 6602TIP3    H141297   1.009   5.885  16.646 -0.3809  0.0164  0.4685
 6602TIP3    H241298   1.125   5.974  16.607 -0.1055 -0.1669  0.8558
 6603TIP3   OH241299   5.402   1.884   0.997  0.0430  0.0311 -0.8485
 6603TIP3    H141300   5.482   1.831   0.994  0.7422  1.0807 -1.4964
 6603TIP3    H241301   5.399   1.917   1.086 -0.2363 -0.8375 -0.5263
 6604TIP3   OH241302   0.791   0.197  16.155  0.0673 -0.4934 -0.4542
 6604TIP3    H141303   0.849   0.265  16.120  0.9172 -0.4303  1.0048
 6604TIP3    H241304   0.705   0.219  16.120  0.2848  1.4650  0.1309
 6605TIP3   OH241305   4.243   0.720  15.012 -0.2920  0.2256 -0.3291
 6605TIP3    H141306   4.252   0.729  14.917 -2.4155 -0.9166 -0.6886
 6605TIP3    H241307   4.272   0.805  15.046 -0.6696  1.1129 -2.0858
 6606TIP3   OH241308   1.208   4.821  13.772 -0.0673 -0.4840 -0.4129
 6606TIP3    H141309   1.283   4.880  13.764 -1.0115  1.1908  1.8568
 6606TIP3    H241310   1.203   4.801  13.865 -0.3730 -3.4938 -0.9779
 6607TIP3   OH241311   5.608   3.718  12.817 -0.4288 -0.1020  0.0384
 6607TIP3    H141312   5.688   3.667  12.802 -0.1470  0.3113  0.0919
 6607TIP3    H241313   5.537   3.656  12.805 -0.1102 -0.3975 -0.3593
 6608TIP3   OH241314   6.411   0.238  15.287 -0.2479 -0.3785  0.0147
 6608TIP3    H141315   6.478   0.260  15.351 -1.3085 -0.8277  1.3116
 6608TIP3    H241316   6.460   0.195  15.216  0.8332 -0.7907  0.9747
 6609TIP3   OH241317   0.139   4.647   6.081 -0.1826  0.6275  0.2546
 6609TIP3    H141318   0.215   4.693   6.046 -0.0715  0.7372  0.6354
 6609TIP3    H241319   0.083   4.632   6.005  0.6300 -0.2554 -0.2027
 6610TIP3   OH241320   1.041   5.997   3.689 -0.0049  0.0365  0.2041
 6610TIP3    H141321   1.001   5.910   3.692 -0.3188  0.1557 -0.3905
 6610TIP3    H241322   1.002   6.038   3.612  1.3351  0.1282 -0.4527
 6611TIP3   OH241323   2.781   4.844   2.356 -0.1951  0.5267 -0.4790
 6611TIP3    H141324   2.821   4.810   2.436  0.9482 -1.1394 -1.7285
 6611TIP3    H241325   2.826   4.927   2.341  1.7390 -0.5688 -1.0018
 6612TIP3   OH241326   5.603   3.274  12.822 -0.4136 -0.5298  0.2942
 6612TIP3    H141327   5.664   3.339  12.858 -0.8611  0.2289 -0.2886
 6612TIP3    H241328   5.584   3.216  12.896  0.4727 -0.3709  0.6628
 6613TIP3   OH241329   4.705   4.687   1.306  0.4381  0.0722  0.0922
 6613TIP3    H141330   4.694   4.782   1.313  2.1745  0.2712  0.5737
 6613TIP3    H241331   4.671   4.652   1.388 -1.1646  0.1439 -0.5011
 6614TIP3   OH241332   2.136   0.161   5.336  0.3309  0.4860  0.4782
 6614TIP3    H141333   2.090   0.207   5.266 -1.8693 -0.4185  1.2175
 6614TIP3    H241334   2.229   0.172   5.317 -0.1866  0.2302 -2.6123
 6615TIP3   OH241335   5.611   6.532   6.451  0.0899 -0.0251  0.8707
 6615TIP3    H141336   5.581   6.608   6.501 -0.4866  1.6895 -1.8671
 6615TIP3    H241337   5.697   6.558   6.418  0.1995 -0.8490  0.4858
 6616TIP3   OH241338   5.938   5.364   1.460 -0.4807  0.4315 -0.5204
 6616TIP3    H141339   6.021   5.319   1.477 -0.0217  0.8538 -1.5395
 6616TIP3    H241340   5.952   5.453   1.490 -1.5853 -0.1574  2.0384
 6617TIP3   OH241341   3.136   4.724  11.548 -0.3891  0.2248 -0.0262
 6617TIP3    H141342   3.086   4.773  11.482 -1.8091 -0.0036  0.8357
 6617TIP3    H241343   3.077   4.654  11.575  0.9467 -0.8978  0.0515
 6618TIP3   OH241344   6.578   2.208  12.082  0.0844 -0.1630  0.0311
 6618TIP3    H141345   6.504   2.155  12.051  0.0427 -0.0612 -0.0439
 6618TIP3    H241346   6.561   2.296  12.047 -1.2634  0.5998  2.3747
 6619TIP3   OH241347   5.255   6.584  16.420  0.4019  0.0640  1.2284
 6619TIP3    H141348   5.262   6.547  16.509 -0.6734 -2.0801  0.4979
 6619TIP3    H241349   5.173   6.549  16.386 -0.7636  3.2929  0.4056
 6620TIP3   OH241350   2.278   2.183  15.671 -0.0148 -0.8085  0.2089
 6620TIP3    H141351   2.196   2.150  15.708 -1.0330 -0.5165 -1.6432
 6620TIP3    H241352   2.322   2.225  15.745 -0.6272 -2.6202  1.6806
 6621TIP3   OH241353   2.589   4.519  16.839 -0.2551 -0.7332 -0.2048
 6621TIP3    H141354   2.554   4.442  16.794  1.3225 -1.8252  0.3523
 6621TIP3    H241355   2.519   4.583  16.834 -1.6705 -2.2397 -0.5879
 6622TIP3   OH241356   2.508   0.963  15.160 -0.4351 -0.2742 -0.1936
 6622TIP3    H141357   2.442   0.910  15.204  0.0842 -2.9269 -2.2840
 6622TIP3    H241358   2.478   0.969  15.069  1.6918 -0.8588 -1.0102
 6623TIP3   OH241359   4.192   2.570  15.950 -0.0498 -0.7507 -0.5146
 6623TIP3    H141360   4.222   2.486  15.983 -0.9525 -1.0143 -0.3405
 6623TIP3    H241361   4.100   2.575  15.976 -0.0518  0.2214 -0.6525
 6624TIP3   OH241362   6.155   4.179  13.807 -0.7926  0.1154  0.7193
 6624TIP3    H141363   6.167   4.274  13.814  0.4951  0.0637 -0.3115
 6624TIP3    H241364   6.069   4.163  13.846 -0.0301  1.3859  3.1720
 6625TIP3   OH241365   0.483   0.752  14.365  0.5725  0.6026 -0.2543
 6625TIP3    H141366   0.497   0.786  14.453 -0.0295 -1.8005  0.8532
 6625TIP3    H241367   0.571   0.739  14.330  0.8588  0.0592  0.6451
 6626TIP3   OH241368   1.189   3.233   0.709 -0.0717 -0.1865 -0.0687
 6626TIP3    H141369   1.094   3.239   0.709 -0.0376  0.7747 -1.6318
 6626TIP3    H241370   1.216   3.272   0.626  1.7840  1.0131  1.0181
 6627TIP3   OH241371   6.236   5.793  15.249 -0.4705  0.0834  0.0559
 6627TIP3    H141372   6.193   5.852  15.310  0.9429 -0.3157  1.4936
 6627TIP3    H241373   6.193   5.708  15.263 -0.0877 -0.0280  0.5723
 6628TIP3   OH241374   5.619   4.599  11.287  0.4879  0.6727  0.0040
 6628TIP3    H141375   5.561   4.599  11.210  2.0258  1.5118 -1.2097
 6628TIP3    H241376   5.587   4.672  11.340 -0.2300  0.4533 -0.1158
 6629TIP3   OH241377   2.357   2.621   1.660  0.5664  0.4761 -0.1317
 6629TIP3    H141378   2.317   2.536   1.647  0.5084  0.7491 -2.0661
 6629TIP3    H241379   2.451   2.602   1.671  0.3372  0.0654  1.3469
 6630TIP3   OH241380   1.364   6.199   5.294  0.2088 -0.6153  0.1212
 6630TIP3    H141381   1.399   6.118   5.257  2.2258 -0.1586  0.9515
 6630TIP3    H241382   1.432   6.264   5.280 -0.8074  0.6225  0.7144
 6631TIP3   OH241383   1.369   0.361   2.482  0.9444  0.3306 -0.3645
 6631TIP3    H141384   1.324   0.285   2.519  1.2248 -0.2703 -1.2085
 6631TIP3    H241385   1.314   0.436   2.505  0.3162 -0.2108 -0.0826
 6632TIP3   OH241386   6.492   6.192  12.302 -0.1349  0.2217  0.2633
 6632TIP3    H141387   6.466   6.228  12.217  1.5665  1.6555  0.2804
 6632TIP3    H241388   6.586   6.206  12.306  0.2596 -2.2105  1.3287
 6633TIP3   OH241389   5.248   4.857  15.345 -0.0263 -0.3257 -0.2448
 6633TIP3    H141390   5.312   4.905  15.398 -1.3364 -1.1567  2.2241
 6633TIP3    H241391   5.286   4.770  15.334  0.5264  0.0201 -1.3113
 6634TIP3   OH241392   3.885   1.795  12.926  0.1011  0.4212  0.2134
 6634TIP3    H141393   3.830   1.860  12.883  0.6426  1.1953  0.6698
 6634TIP3    H241394   3.914   1.737  12.855  0.1293  1.0523 -0.2949
 6635TIP3   OH241395   1.529   3.678   3.045 -0.0281 -0.4366  0.1171
 6635TIP3    H141396   1.560   3.736   2.975  1.7723 -0.6578  0.6688
 6635TIP3    H241397   1.583   3.599   3.036  1.6922  0.2680  2.8797
 6636TIP3   OH241398   4.972   4.863   2.896  0.3214  0.3399  0.0076
 6636TIP3    H141399   5.035   4.810   2.848  2.0572  0.6829  1.7338
 6636TIP3    H241400   5.011   4.951   2.897 -0.7805  0.8471  0.1346
 6637TIP3   OH241401   1.018   3.244  13.054 -0.6716  0.2310  0.2323
 6637TIP3    H141402   1.031   3.312  12.988 -2.5131 -1.8138 -2.4607
 6637TIP3    H241403   1.075   3.172  13.027 -2.9653 -1.4323 -0.4688
 6638TIP3   OH241404   2.643   4.291  14.353  0.3301 -0.5487  0.2087
 6638TIP3    H141405   2.652   4.283  14.258  3.7928  0.3583  0.2999
 6638TIP3    H241406   2.561   4.338  14.366 -0.4047 -0.9993 -2.2973
 6639TIP3   OH241407   3.100   4.042  17.045 -0.3093  0.3171  0.4873
 6639TIP3    H141408   3.053   4.103  16.989 -1.5308  0.3313  1.4893
 6639TIP3    H241409   3.165   4.096  17.090  0.6003  0.3255 -0.7751
 6640TIP3   OH241410   2.290   0.097   0.595 -0.4563 -0.0619  0.1900
 6640TIP3    H141411   2.215   0.148   0.563 -0.6485 -0.7383 -0.4795
 6640TIP3    H241412   2.320   0.144   0.673  0.6870  2.2782 -1.5426
 6641TIP3   OH241413   0.626   3.528   6.043 -0.1855 -1.0086 -0.0406
 6641TIP3    H141414   0.655   3.443   6.076  0.7651 -1.4114 -1.7653
 6641TIP3    H241415   0.568   3.562   6.111 -2.0094 -3.7961 -0.0425
 6642TIP3   OH241416   0.257   5.296  16.048  0.5458  0.6738  0.3033
 6642TIP3    H141417   0.242   5.202  16.055  0.0599  0.5536 -1.5818
 6642TIP3    H241418   0.337   5.304  15.995  0.4050  1.3083  0.1768
 6643TIP3   OH241419   1.057   5.878   0.893  0.8636 -0.4005  0.4722
 6643TIP3    H141420   1.066   5.807   0.830 -2.3576  0.0632 -0.7113
 6643TIP3    H241421   1.054   5.957   0.838  2.8097  0.5625  1.6502
 6644TIP3   OH241422   0.995   1.809  15.202  0.1255  0.3472  0.3317
 6644TIP3    H141423   0.990   1.752  15.279 -0.4353  0.6775  0.5476
 6644TIP3    H241424   1.024   1.894  15.237 -0.6714  0.6540  0.2790
 6645TIP3   OH241425   1.348   4.534   0.019  0.4445  0.4505  0.4159
 6645TIP3    H141426   1.341   4.570   0.107 -0.9193 -0.4630  0.7053
 6645TIP3    H241427   1.262   4.548  -0.020  0.1473 -1.6336  0.2228
 6646TIP3   OH241428   3.069   1.656  14.786 -0.2528 -0.1301  0.0454
 6646TIP3    H141429   2.998   1.665  14.849  0.8323  0.5931  1.2018
 6646TIP3    H241430   3.147   1.646  14.839  0.9280  2.2049 -1.1236
 6647TIP3   OH241431   0.839   1.564  11.532  0.1727  0.8010  0.1446
 6647TIP3    H141432   0.763   1.601  11.576  0.3109 -0.3633  1.4329
 6647TIP3    H241433   0.851   1.478  11.573  0.9202  0.0787 -1.4871
 6648TIP3   OH241434   2.982   4.571   1.733  0.3417  0.1823  0.1479
 6648TIP3    H141435   2.931   4.500   1.697  0.0851  1.7844 -2.9837
 6648TIP3    H241436   2.931   4.603   1.807  0.1051 -2.3085  1.1361
 6649TIP3   OH241437   5.499   2.196  13.613  0.1206 -0.4505  0.2429
 6649TIP3    H141438   5.546   2.118  13.585 -1.3785 -0.5926 -2.1095
 6649TIP3    H241439   5.526   2.264  13.551  1.6844  1.1071  2.4561
 6650TIP3   OH241440   3.362   1.616   4.904 -0.8487  0.4122 -0.2376
 6650TIP3    H141441   3.341   1.687   4.845  0.0641 -0.5230 -1.7421
 6650TIP3    H241442   3.327   1.537   4.861 -1.3083 -0.1522  1.0935
 6651TIP3   OH241443   6.582   2.555  12.552 -0.4267  1.0585 -0.5643
 6651TIP3    H141444   6.588   2.610  12.474  2.2176  0.7151 -0.7118
 6651TIP3    H241445   6.594   2.465  12.520  1.7274  0.9821  0.2212
 6652TIP3   OH241446   3.067   3.998   2.465 -0.4346  0.1336  0.4091
 6652TIP3    H141447   3.068   3.905   2.487  0.5092  0.1251  0.3529
 6652TIP3    H241448   3.064   4.043   2.549 -2.1523  0.0699  0.4320
 6653TIP3   OH241449   5.979   3.558  10.516 -0.0964 -0.2976  0.0871
 6653TIP3    H141450   6.031   3.496  10.464  0.2618 -0.8289  1.0435
 6653TIP3    H241451   5.932   3.502  10.578 -1.8711  0.1700 -0.7829
 6654TIP3   OH241452   2.624   1.154   4.917 -0.2653 -0.8584 -0.1074
 6654TIP3    H141453   2.629   1.167   5.012 -0.7984 -2.6746  0.2066
 6654TIP3    H241454   2.591   1.237   4.883  2.3455  0.7574  0.9783
 6655TIP3   OH241455   3.145   5.510   2.869  0.0027 -0.0368  0.0414
 6655TIP3    H141456   3.206   5.517   2.941 -1.8748  0.4366  1.6686
 6655TIP3    H241457   3.091   5.589   2.874 -1.0124 -0.6064 -1.0669
 6656TIP3   OH241458   6.008   0.400  16.563 -0.1750  0.9860  0.3139
 6656TIP3    H141459   6.073   0.339  16.599  0.0393  0.2382 -1.2442
 6656TIP3    H241460   6.005   0.472  16.626  0.1633 -0.2484  1.7982
 6657TIP3   OH241461   6.183   4.623  13.812 -0.3747 -0.1562 -0.2046
 6657TIP3    H141462   6.278   4.621  13.821 -0.3553 -0.6151 -0.5006
 6657TIP3    H241463   6.154   4.690  13.875 -0.0770 -1.8056  1.7860
 6658TIP3   OH241464   1.236   2.349  13.283 -0.0466  0.0381  0.3526
 6658TIP3    H141465   1.316   2.397  13.262  0.6065 -0.7316  1.0418
 6658TIP3    H241466   1.174   2.376  13.215  0.1552  2.1773  0.9527
 6659TIP3   OH241467   1.107   5.898   5.864  0.4046 -0.0264  0.6591
 6659TIP3    H141468   1.139   5.855   5.784  0.9828 -0.2593  1.0106
 6659TIP3    H241469   1.166   5.973   5.876 -1.1402  1.4387 -0.4521
 6660TIP3   OH241470   4.909   4.868  15.759  0.2507  0.0274  0.4149
 6660TIP3    H141471   4.917   4.780  15.722  0.0704  0.0263  0.3752
 6660TIP3    H241472   4.826   4.866  15.807  1.0856 -0.3629  1.9156
 6661TIP3   OH241473   1.428   4.092   1.441 -0.2257  0.3950  0.3377
 6661TIP3    H141474   1.468   4.079   1.355 -0.0612  1.4384  0.2382
 6661TIP3    H241475   1.488   4.153   1.486 -0.1087 -0.4367  1.3364
 6662TIP3   OH241476   3.261   6.576   3.828 -0.4991  0.2437  0.2299
 6662TIP3    H141477   3.182   6.610   3.787 -1.1423  0.2498  1.4226
 6662TIP3    H241478   3.238   6.488   3.856  0.2717 -0.1608 -0.3670
 6663TIP3   OH241479   4.212   5.399   1.550  0.2271  0.5618 -0.5924
 6663TIP3    H141480   4.300   5.433   1.568  0.0276  1.8210 -1.7921
 6663TIP3    H241481   4.220   5.357   1.464 -1.1284  4.2587 -2.7469
 6664TIP3   OH241482   5.808   6.583  12.228  0.2870  0.3409 -0.3746
 6664TIP3    H141483   5.748   6.614  12.296 -1.3109  2.8162 -2.7294
 6664TIP3    H241484   5.768   6.502  12.196 -1.1646  1.2838 -1.0399
 6665TIP3   OH241485   5.282   3.825   6.245 -0.1421  0.0527  0.5658
 6665TIP3    H141486   5.359   3.782   6.281  0.8908  0.9523 -0.4528
 6665TIP3    H241487   5.207   3.782   6.287  0.9133 -0.7650  1.6595
 6666TIP3   OH241488   3.293   2.727  13.336  0.1710 -0.5861 -0.3852
 6666TIP3    H141489   3.255   2.770  13.413 -0.4732 -2.5696  0.4763
 6666TIP3    H241490   3.276   2.786  13.264 -0.3196  0.7610  0.7876
 6667TIP3   OH241491   0.421   3.313   0.668 -0.7492  0.0393  0.0363
 6667TIP3    H141492   0.454   3.361   0.744 -0.1472  0.4240 -0.4519
 6667TIP3    H241493   0.334   3.349   0.652 -0.9196 -0.1165  0.6023
 6668TIP3   OH241494   5.474   5.350  15.344  0.3519  0.1797  0.3182
 6668TIP3    H141495   5.496   5.365  15.436  0.1689  1.6485  0.1370
 6668TIP3    H241496   5.382   5.375  15.337 -0.2401 -1.8479  0.1371
 6669TIP3   OH241497   5.273   0.512  12.187 -1.0280  0.2815  0.0637
 6669TIP3    H141498   5.223   0.433  12.211 -1.2089  0.4975  0.3958
 6669TIP3    H241499   5.219   0.585  12.217  0.5313  0.5023  2.5692
 6670TIP3   OH241500   0.361   3.319  15.973 -0.5783 -0.0474  0.6992
 6670TIP3    H141501   0.380   3.247  15.912 -0.1945  0.5551  0.0999
 6670TIP3    H241502   0.447   3.349  16.002 -0.6645  1.2154 -0.2863
 6671TIP3   OH241503   0.851   3.044  10.963  0.4388  0.3397 -0.2366
 6671TIP3    H141504   0.862   3.048  10.868 -0.2619  0.0138 -0.3369
 6671TIP3    H241505   0.923   2.989  10.993 -0.6039 -1.4181 -0.8304
 6672TIP3   OH241506   4.737   5.737  15.253 -0.0060 -0.1451  0.1223
 6672TIP3    H141507   4.661   5.762  15.201 -0.6583 -0.5074  0.8716
 6672TIP3    H241508   4.713   5.652  15.290  0.3552  0.1750  1.1358
 6673TIP3   OH241509   1.017   5.585   0.351 -0.0321 -0.7143  0.9444
 6673TIP3    H141510   0.971   5.585   0.435  1.0001 -0.4197  1.5203
 6673TIP3    H241511   1.058   5.671   0.345  1.6261 -1.4479  1.1251
 6674TIP3   OH241512   4.696   4.781  12.976 -0.1799 -0.0201 -0.1831
 6674TIP3    H141513   4.705   4.736  12.892 -0.6272  1.0765 -0.8382
 6674TIP3    H241514   4.756   4.735  13.035  0.9067 -0.1590 -1.3634
 6675TIP3   OH241515   5.078   0.273   3.707  0.5303 -0.1562 -0.3786
 6675TIP3    H141516   5.069   0.178   3.700  0.4441 -0.1371 -0.5311
 6675TIP3    H241517   5.152   0.295   3.651 -0.5791  0.0747 -1.8317
 6676TIP3   OH241518   5.929   6.358   6.521  0.6026 -0.5086  0.2002
 6676TIP3    H141519   6.024   6.347   6.521  0.6578 -0.0900 -0.7091
 6676TIP3    H241520   5.910   6.409   6.443 -0.4930 -1.6144 -0.2985
 6677TIP3   OH241521   1.365   6.595  16.369  0.1845 -0.4991 -0.3542
 6677TIP3    H141522   1.365   6.655  16.294 -0.3996 -0.3271 -0.2170
 6677TIP3    H241523   1.457   6.590  16.395  0.0932  1.6392  0.6647
 6678TIP3   OH241524   2.494   5.926   4.917 -0.1693 -0.2043 -0.0250
 6678TIP3    H141525   2.583   5.893   4.931 -0.9200 -2.1481  0.6262
 6678TIP3    H241526   2.494   6.012   4.958  1.8209  0.5409 -1.4394
 6679TIP3   OH241527   4.053   6.630  15.129 -0.1256 -0.5303 -0.2433
 6679TIP3    H141528   4.109   6.647  15.205  0.4917  0.9219 -0.9753
 6679TIP3    H241529   4.101   6.565  15.078  1.0542  0.8215 -0.9443
 6680TIP3   OH241530   0.883   5.051   3.507 -0.1756  0.4542  0.0997
 6680TIP3    H141531   0.856   5.050   3.599 -0.9295 -3.3890 -0.0000
 6680TIP3    H241532   0.977   5.033   3.509 -0.1423  0.6273  0.1146
 6681TIP3   OH241533   0.696   5.355  15.064  0.0830  0.4092  0.1477
 6681TIP3    H141534   0.790   5.351  15.085  0.2045  1.2635 -0.1954
 6681TIP3    H241535   0.693   5.358  14.968 -0.2567  1.1131  0.1755
 6682TIP3   OH241536   3.450   3.926  11.800  0.3677 -0.2368  0.1483
 6682TIP3    H141537   3.408   3.903  11.882 -2.3335  2.0601 -0.4322
 6682TIP3    H241538   3.396   3.884  11.733  1.0816 -0.0733 -0.5423
 6683TIP3   OH241539   0.114   4.896   0.335 -0.0328 -0.7583 -0.2781
 6683TIP3    H141540   0.126   4.989   0.318  1.0807 -0.4093  2.0253
 6683TIP3    H241541   0.166   4.852   0.268  1.3888  0.3625  0.0473
 6684TIP3   OH241542   0.798   0.874  11.857 -0.3894 -0.9316 -0.5634
 6684TIP3    H141543   0.820   0.790  11.897 -1.0766 -1.0919 -0.5155
 6684TIP3    H241544   0.706   0.866  11.833 -0.3617 -0.3230 -0.8957
 6685TIP3   OH241545   6.378   5.568  13.762  0.2853  0.4373 -0.5366
 6685TIP3    H141546   6.344   5.499  13.819 -0.1938  1.0116 -0.1083
 6685TIP3    H241547   6.307   5.583  13.699  0.2143  0.8231 -0.3684
 6686TIP3   OH241548   0.522   4.526  12.551  0.7917 -0.2995  0.5214
 6686TIP3    H141549   0.433   4.560  12.554  0.1446 -1.4908 -2.2218
 6686TIP3    H241550   0.577   4.603  12.562 -0.5535  0.5545  1.6415
 6687TIP3   OH241551   1.425   0.456  12.837 -0.3642  0.1165  0.0977
 6687TIP3    H141552   1.507   0.504  12.840 -0.0853 -0.3892  0.6984
 6687TIP3    H241553   1.373   0.493  12.909  0.3368 -1.3182  1.3944
 6688TIP3   OH241554   4.411   5.657  15.787  0.2744  0.2189 -0.3313
 6688TIP3    H141555   4.400   5.616  15.701 -0.6989  1.3999 -0.8027
 6688TIP3    H241556   4.363   5.600  15.847 -0.0061 -0.0064 -0.7623
 6689TIP3   OH241557   4.627   1.717  14.800 -0.4703  0.1950  0.2057
 6689TIP3    H141558   4.703   1.708  14.743 -0.3623  0.7550  0.2522
 6689TIP3    H241559   4.553   1.728  14.741 -0.2325  1.7587  0.1526
 6690TIP3   OH241560   6.731   6.526  16.584 -0.5525 -0.6982 -0.1568
 6690TIP3    H141561   6.656   6.586  16.594 -1.2893 -1.5794 -0.2838
 6690TIP3    H241562   6.762   6.513  16.674  0.7044  1.1924 -0.2600
 6691TIP3   OH241563   3.505   0.204  13.606  0.0837  0.0448 -0.1849
 6691TIP3    H141564   3.514   0.292  13.643 -0.2045  0.2856 -0.6787
 6691TIP3    H241565   3.520   0.216  13.512 -1.8298 -0.1029 -0.5476
 6692TIP3   OH241566   3.592   0.143   5.679 -0.0699 -0.4107 -0.4988
 6692TIP3    H141567   3.614   0.149   5.586  0.0779 -2.3696 -0.6317
 6692TIP3    H241568   3.504   0.107   5.681 -0.7867  1.2843  0.1341
 6693TIP3   OH241569   4.604   2.230   5.813  0.4084  0.0904  0.4667
 6693TIP3    H141570   4.550   2.189   5.746 -0.9903  0.4366  1.3365
 6693TIP3    H241571   4.590   2.324   5.800 -0.0555  0.1577  1.3490
 6694TIP3   OH241572   6.672   4.444  11.692  0.0183  0.4178 -0.0069
 6694TIP3    H141573   6.660   4.381  11.762  0.6298  0.6484  0.3093
 6694TIP3    H241574   6.751   4.415  11.646  1.8493  2.3518  1.7131
 6695TIP3   OH241575   1.594   0.616  13.538  0.4352  0.7256  0.4648
 6695TIP3    H141576   1.598   0.528  13.574 -0.8526  1.4756  2.6056
 6695TIP3    H241577   1.501   0.637  13.535  0.7437  2.2390  0.6466
 6696TIP3   OH241578   2.738   0.845  11.795  0.6293  0.2901 -0.2032
 6696TIP3    H141579   2.780   0.775  11.745  2.3969  0.4303  1.0093
 6696TIP3    H241580   2.680   0.800  11.856  0.3487 -0.0050 -0.6838
 6697TIP3   OH241581   0.652   3.752  12.682  0.4499 -0.2330 -0.2967
 6697TIP3    H141582   0.632   3.846  12.686  1.5382 -0.0142  0.3382
 6697TIP3    H241583   0.571   3.709  12.708 -0.1971  0.5102 -1.0185
 6698TIP3   OH241584   4.440   0.941   4.409 -0.0599  0.6758 -0.0622
 6698TIP3    H141585   4.493   0.999   4.355  0.2952  1.0519  0.6774
 6698TIP3    H241586   4.364   0.919   4.354 -0.8222  2.7961  0.0608
 6699TIP3   OH241587   5.230   3.141  16.926 -0.1737  0.0287  0.1765
 6699TIP3    H141588   5.200   3.182  17.007 -0.1576  1.0524 -0.3096
 6699TIP3    H241589   5.224   3.211  16.861  1.1994 -0.3439 -0.3913
 6700TIP3   OH241590   5.871   4.229   3.885  0.3054  0.4391 -0.5800
 6700TIP3    H141591   5.938   4.162   3.873  1.3810  1.5011 -0.7697
 6700TIP3    H241592   5.804   4.209   3.821 -0.4665 -1.6949  0.7891
 6701TIP3   OH241593   6.111   3.486   4.108  0.4940 -0.1614  0.8777
 6701TIP3    H141594   6.156   3.458   4.027  1.6500 -0.2312  1.5161
 6701TIP3    H241595   6.041   3.422   4.119 -1.8341  1.6980 -1.8107
 6702TIP3   OH241596   1.243   1.667  12.072 -0.3432 -0.0077 -0.3992
 6702TIP3    H141597   1.300   1.597  12.106  0.1807  0.7063  0.2276
 6702TIP3    H241598   1.208   1.631  11.991  0.4250 -0.7545 -0.4212
 6703TIP3   OH241599   5.235   1.459  13.597  0.0202  0.0645  0.0226
 6703TIP3    H141600   5.172   1.502  13.538 -1.1100 -0.6881  0.6339
 6703TIP3    H241601   5.183   1.439  13.675  0.2112 -3.2674 -0.5861
 6704TIP3   OH241602   2.040   0.861   5.614 -0.1864 -0.2775 -0.1393
 6704TIP3    H141603   1.960   0.817   5.584  0.0057  0.6643 -2.2391
 6704TIP3    H241604   2.110   0.818   5.565  0.4359 -0.1778  0.6527
 6705TIP3   OH241605   3.221   1.752   5.873  0.4714 -0.1271 -0.3992
 6705TIP3    H141606   3.295   1.748   5.933  0.0564 -0.4310  0.0925
 6705TIP3    H241607   3.156   1.692   5.910  0.7000 -1.3370 -1.8159
 6706TIP3   OH241608   1.187   0.909   1.236  0.8334 -0.1142 -0.6795
 6706TIP3    H141609   1.180   1.002   1.215 -1.5496 -0.5030 -2.0569
 6706TIP3    H241610   1.181   0.865   1.151  0.7073 -1.5512  0.0490
 6707TIP3   OH241611   5.881   3.371  16.327  0.0482  0.1129  0.1242
 6707TIP3    H141612   5.906   3.339  16.241  0.4133 -1.5109  0.8009
 6707TIP3    H241613   5.955   3.426  16.355 -0.0401  0.5807 -0.5390
 6708TIP3   OH241614   1.805   1.028  16.902 -0.2861  0.2516 -0.3783
 6708TIP3    H141615   1.830   1.106  16.951  0.4015 -0.3821  0.3084
 6708TIP3    H241616   1.710   1.026  16.906 -0.2414  0.1960  0.9597
 6709TIP3   OH241617   2.254   2.263   0.499 -0.3271  0.0467 -0.2094
 6709TIP3    H141618   2.244   2.219   0.583  0.2742 -0.0328 -0.1742
 6709TIP3    H241619   2.329   2.322   0.511  1.3383 -1.7120 -1.3901
 6710TIP3   OH241620   4.170   6.452   0.750  0.5608 -0.3262  0.0133
 6710TIP3    H141621   4.139   6.362   0.750  0.5364 -0.3241 -0.6301
 6710TIP3    H241622   4.177   6.475   0.658  1.7083 -0.0569  0.1477
 6711TIP3   OH241623   3.793   1.248  15.967  0.1080 -0.0197  0.2423
 6711TIP3    H141624   3.882   1.284  15.967 -1.2959  3.9713 -1.0890
 6711TIP3    H241625   3.766   1.252  16.058  1.1526 -1.0688  0.6264
 6712TIP3   OH241626   0.339   6.108  13.749 -0.5591  0.4845  0.1900
 6712TIP3    H141627   0.327   6.033  13.692  0.4183 -1.9006  2.8675
 6712TIP3    H241628   0.252   6.127  13.784 -0.3910 -1.7538  2.0740
 6713TIP3   OH241629   1.593   3.676  14.442 -0.3408  0.1599 -0.2725
 6713TIP3    H141630   1.571   3.617  14.515  1.0270 -0.5607 -0.4127
 6713TIP3    H241631   1.659   3.629  14.392  0.3560  1.5750 -0.7399
 6714TIP3   OH241632   2.118   0.379  14.559  0.0791  0.0554 -0.1944
 6714TIP3    H141633   2.111   0.362  14.465 -1.8891 -0.0129 -0.0800
 6714TIP3    H241634   2.039   0.340  14.596  1.2822 -0.7596  1.6412
 6715TIP3   OH241635   5.884   1.865   0.014 -0.4494  0.6446 -0.1036
 6715TIP3    H141636   5.812   1.927   0.001 -0.8097  0.0533 -1.0392
 6715TIP3    H241637   5.919   1.851  -0.074 -2.0382 -2.4738 -0.3647
 6716TIP3   OH241638   4.575   4.744  12.693  0.2222 -0.0324 -0.2426
 6716TIP3    H141639   4.487   4.780  12.695 -0.2797 -1.2456  0.4893
 6716TIP3    H241640   4.628   4.808  12.742  0.1333  1.5683 -2.1377
 6717TIP3   OH241641   4.613   1.212  12.190 -0.0678 -0.5250  0.2892
 6717TIP3    H141642   4.640   1.200  12.281 -0.1886 -2.1040  0.1331
 6717TIP3    H241643   4.531   1.261  12.196 -0.5855 -1.4567  1.0986
 6718TIP3   OH241644   3.264   0.176   5.619 -0.8868 -0.3250 -0.5223
 6718TIP3    H141645   3.264   0.116   5.693  2.1245 -0.9134 -0.8414
 6718TIP3    H241646   3.187   0.152   5.568 -3.2365  0.2843  2.4525
 6719TIP3   OH241647   6.523   5.883  12.372 -0.8971  0.4014 -0.0669
 6719TIP3    H141648   6.603   5.835  12.351 -0.9422  0.0128  0.6260
 6719TIP3    H241649   6.490   5.913  12.288 -1.5511 -1.8429 -0.6549
 6720TIP3   OH241650   1.804   5.327   2.576  0.0459  0.6188  0.0111
 6720TIP3    H141651   1.888   5.343   2.534  0.5883  2.7577  1.6828
 6720TIP3    H241652   1.761   5.413   2.578 -1.3024 -0.0316  0.9565
 6721TIP3   OH241653   6.279   0.509   5.221  0.7838  0.6392  0.2122
 6721TIP3    H141654   6.237   0.594   5.225 -0.9251 -0.1990  2.3307
 6721TIP3    H241655   6.277   0.477   5.311 -0.2059 -2.3474 -0.7589
 6722TIP3   OH241656   6.018   5.062  15.808 -0.9000 -0.2441  0.4430
 6722TIP3    H141657   6.002   5.027  15.720 -2.1012 -0.1205  0.5957
 6722TIP3    H241658   6.102   5.024  15.833 -2.2363 -3.3372  0.6995
 6723TIP3   OH241659   3.339   0.963  15.372  0.6363  0.8078  0.2239
 6723TIP3    H141660   3.411   0.931  15.427  1.2936  0.9077 -0.5588
 6723TIP3    H241661   3.331   0.898  15.303 -1.2830 -0.1839  1.3101
 6724TIP3   OH241662   0.432   5.664   5.466  0.0728 -0.0411  0.2860
 6724TIP3    H141663   0.359   5.611   5.497  1.1741 -1.1014  1.1980
 6724TIP3    H241664   0.399   5.754   5.465 -1.0513 -0.4279  1.2449
 6725TIP3   OH241665   4.000   6.073  14.909 -0.2471 -0.1233 -0.1987
 6725TIP3    H141666   3.936   6.006  14.886  0.3417  0.0114 -2.4707
 6725TIP3    H241667   3.974   6.150  14.858  1.4559  0.0474 -0.8815
 6726TIP3   OH241668   5.413   5.900  13.420  0.3638 -0.0444 -0.5842
 6726TIP3    H141669   5.468   5.957  13.366 -1.9838  2.3697 -0.6318
 6726TIP3    H241670   5.367   5.845  13.357  1.3322 -0.7907 -0.6593
 6727TIP3   OH241671   4.716   2.915   3.603 -0.3641 -0.3417  0.2915
 6727TIP3    H141672   4.803   2.937   3.635  0.1161 -0.4935 -0.8641
 6727TIP3    H241673   4.728   2.896   3.510 -1.3366 -2.0790  0.4815
 6728TIP3   OH241674   4.384   1.399  12.185 -0.0412 -0.0977 -0.0085
 6728TIP3    H141675   4.361   1.456  12.258 -1.6717  0.1899 -0.7072
 6728TIP3    H241676   4.437   1.454  12.128  2.4322 -0.7172  1.5341
 6729TIP3   OH241677   1.714   4.445   3.602 -0.2666  0.2799  0.1474
 6729TIP3    H141678   1.634   4.497   3.605 -0.2509  0.2849  0.5237
 6729TIP3    H241679   1.686   4.362   3.561 -0.6908 -0.0962  1.1527
 6730TIP3   OH241680   2.472   1.614  15.753 -0.1406 -0.2217  0.9567
 6730TIP3    H141681   2.433   1.609  15.841 -0.3141  0.3318  0.9132
 6730TIP3    H241682   2.530   1.538  15.749 -0.8709 -0.8115  1.1900
 6731TIP3   OH241683   2.607   2.433   5.732  0.3901  0.0115  0.5817
 6731TIP3    H141684   2.676   2.469   5.787 -0.5084  1.9394  0.5075
 6731TIP3    H241685   2.640   2.441   5.643 -0.0864  1.4038  0.5061
 6732TIP3   OH241686   0.764   2.627   5.707 -0.3140  0.4011  0.3265
 6732TIP3    H141687   0.810   2.696   5.756  1.2703  0.4611 -1.1592
 6732TIP3    H241688   0.704   2.674   5.649 -0.0399  0.4856  0.1087
 6733TIP3   OH241689   1.589   5.902  11.210 -0.4574 -0.0872  0.2414
 6733TIP3    H141690   1.675   5.909  11.251 -1.4212  0.5254  2.2817
 6733TIP3    H241691   1.574   5.987  11.170  0.1705 -0.4444 -0.8015
 6734TIP3   OH241692   1.849   5.459  16.253  0.0401 -0.4971 -1.0131
 6734TIP3    H141693   1.921   5.443  16.314 -1.5245  1.0840  1.4021
 6734TIP3    H241694   1.789   5.386  16.268 -1.1619  0.7666  0.7493
 6735TIP3   OH241695   4.929   6.449   3.772 -0.3567  0.3326  0.2577
 6735TIP3    H141696   4.954   6.540   3.789 -0.6308  0.1557  1.8181
 6735TIP3    H241697   4.873   6.453   3.694 -1.2528  1.6581  0.9242
 6736TIP3   OH241698   3.918   6.296  13.524 -0.1214 -0.0566  0.2175
 6736TIP3    H141699   4.005   6.296  13.485  0.7355  1.3668  1.9383
 6736TIP3    H241700   3.912   6.213  13.571  0.2714 -0.1971  0.0226
 6737TIP3   OH241701   3.929   6.471  11.102  0.1661  0.2953  0.1680
 6737TIP3    H141702   3.931   6.431  11.015  0.0073  0.3624  0.1327
 6737TIP3    H241703   3.996   6.539  11.099  0.2192  0.2403  0.1245
 6738TIP3   OH241704   0.396   4.972  11.113 -0.6290  0.4936 -0.4714
 6738TIP3    H141705   0.413   5.040  11.048 -1.7506  0.2054 -1.0866
 6738TIP3    H241706   0.303   4.951  11.103 -1.4652  1.9746  2.6712
 6739TIP3   OH241707   2.132   4.955   6.363 -0.2267  0.0685 -0.0354
 6739TIP3    H141708   2.227   4.954   6.354 -0.1445 -1.6064  0.6305
 6739TIP3    H241709   2.111   4.872   6.406 -2.2061 -0.9341 -2.6376
 6740TIP3   OH241710   4.530   0.271  17.037  0.2866  0.2296 -0.4679
 6740TIP3    H141711   4.468   0.339  17.062 -1.1756 -1.1106 -0.3215
 6740TIP3    H241712   4.487   0.188  17.060  1.1925 -0.8533 -2.3571
 6741TIP3   OH241713   6.367   0.236  15.831  0.0433 -0.0904 -0.1898
 6741TIP3    H141714   6.400   0.148  15.811  0.6648  0.1277 -0.1344
 6741TIP3    H241715   6.441   0.294  15.814  0.2528  0.2238  1.6268
 6742TIP3   OH241716   5.883   1.693  15.669 -0.7172 -0.2083 -0.0750
 6742TIP3    H141717   5.957   1.699  15.609 -0.7340  0.5487 -0.0276
 6742TIP3    H241718   5.920   1.657  15.749 -0.1506  1.2529  0.3429
 6743TIP3   OH241719   3.252   6.455   1.369 -0.0014 -0.3946 -0.1119
 6743TIP3    H141720   3.267   6.463   1.464  0.0425 -3.1620  0.2072
 6743TIP3    H241721   3.157   6.458   1.360  0.0344  1.1655 -0.1705
 6744TIP3   OH241722   1.705   1.462  13.967  0.4598  0.1006  0.4167
 6744TIP3    H141723   1.736   1.541  13.922 -1.6194 -0.1442 -1.6221
 6744TIP3    H241724   1.770   1.395  13.944  1.2918  0.7828  0.7054
 6745TIP3   OH241725   6.471   3.923   1.184 -0.3997 -0.0722  0.4057
 6745TIP3    H141726   6.553   3.973   1.190 -0.6610  0.2661  1.1744
 6745TIP3    H241727   6.419   3.972   1.120 -0.2671  0.0936  0.4211
 6746TIP3   OH241728   3.284   0.769  15.211  0.7876  0.4551  0.3357
 6746TIP3    H141729   3.303   0.680  15.180 -0.7774  0.3469 -0.4293
 6746TIP3    H241730   3.269   0.819  15.131  0.7290  1.1887  0.8030
 6747TIP3   OH241731   3.065   0.833   1.453 -0.4707  0.2200 -0.0891
 6747TIP3    H141732   3.026   0.754   1.416 -0.0417 -0.6046  1.1554
 6747TIP3    H241733   2.992   0.880   1.492 -0.8562  0.8710 -1.5109
 6748TIP3   OH241734   2.423   1.680  15.467  0.4121 -0.4490 -0.1665
 6748TIP3    H141735   2.461   1.754  15.513 -0.0402 -0.9474  1.0711
 6748TIP3    H241736   2.476   1.670  15.388  0.5276  1.1171 -0.3133
 6749TIP3   OH241737   0.582   5.713  12.543  0.0250  0.1976 -0.9369
 6749TIP3    H141738   0.628   5.692  12.624  0.6271  0.2920 -1.2476
 6749TIP3    H241739   0.529   5.635  12.525 -0.5508  0.3943 -0.1626
 6750TIP3   OH241740   0.440   2.804  13.575  0.0920  0.4822  0.7964
 6750TIP3    H141741   0.348   2.829  13.566  0.4856  1.5277 -0.7116
 6750TIP3    H241742   0.443   2.752  13.655 -1.7402  0.7499  1.0806
 6751TIP3   OH241743   6.030   2.145   2.860  0.3343  0.2890 -0.0365
 6751TIP3    H141744   6.096   2.077   2.847 -0.4763 -0.2317 -1.7531
 6751TIP3    H241745   6.011   2.144   2.954  1.7278 -0.5104  0.2563
 6752TIP3   OH241746   5.712   2.399  11.546 -0.6989 -0.3778 -0.0938
 6752TIP3    H141747   5.804   2.404  11.522 -0.3195 -1.7076  0.9500
 6752TIP3    H241748   5.699   2.470  11.609 -0.8919  1.0261 -1.6573
 6753TIP3   OH241749   6.724   5.694  12.331  0.3708  0.3387 -0.0701
 6753TIP3    H141750   6.783   5.713  12.404  0.1392  0.5275  0.0666
 6753TIP3    H241751   6.733   5.600  12.317  0.6824  0.3614 -0.0309
 6754TIP3   OH241752   5.366   3.588   4.973  0.3284  0.1928  0.3910
 6754TIP3    H141753   5.400   3.676   4.988 -0.4786  0.6086 -0.1800
 6754TIP3    H241754   5.372   3.576   4.878 -0.4530 -0.0014  0.3653
 6755TIP3   OH241755   0.285   3.828  17.163  0.5876 -0.2313  0.4604
 6755TIP3    H141756   0.224   3.803  17.233  0.3573 -1.8939 -0.2727
 6755TIP3    H241757   0.340   3.751  17.152  2.2988  0.9356  0.5179
 6756TIP3   OH241758   3.352   0.614  12.716  0.0742  0.2708  0.0399
 6756TIP3    H141759   3.320   0.698  12.681  0.8527  0.1039 -1.1340
 6756TIP3    H241760   3.445   0.612  12.691  0.1624 -0.7582  0.4306
 6757TIP3   OH241761   3.789   2.458  13.968 -0.2390  0.2260  0.1644
 6757TIP3    H141762   3.838   2.455  14.050  2.0299 -0.4591 -1.1168
 6757TIP3    H241763   3.820   2.537  13.924  0.4537 -0.6852 -1.0579
 6758TIP3   OH241764   6.806   1.169   2.230 -0.2473  0.3035  0.0293
 6758TIP3    H141765   6.885   1.118   2.214  0.0784  0.5148  0.9353
 6758TIP3    H241766   6.772   1.135   2.312 -0.4210  1.0598  0.2765
 6759TIP3   OH241767   0.990   3.665  13.658 -0.3482 -0.2086  0.0180
 6759TIP3    H141768   1.083   3.686  13.649 -0.4533  0.5631  0.6011
 6759TIP3    H241769   0.946   3.721  13.595 -0.4794 -0.0419  0.2570
 6760TIP3   OH241770   2.798   2.823   3.481 -0.1900  0.0689 -0.6502
 6760TIP3    H141771   2.772   2.886   3.547 -1.4671  0.1500 -1.2124
 6760TIP3    H241772   2.716   2.785   3.449  0.5210 -2.6680  0.4129
 6761TIP3   OH241773   3.154   6.579  12.778  0.5793  0.4677 -0.5107
 6761TIP3    H141774   3.125   6.655  12.830 -2.2178 -0.5095 -0.4634
 6761TIP3    H241775   3.213   6.531  12.837  0.0787  1.1040  0.5517
 6762TIP3   OH241776   6.057   4.802   6.387  0.4425  0.0994 -0.3239
 6762TIP3    H141777   6.080   4.710   6.383 -0.2585 -0.2718  2.3452
 6762TIP3    H241778   6.132   4.844   6.430 -0.7590  0.0831  1.8966
 6763TIP3   OH241779   2.311   2.903  16.251 -0.2618  0.0414  0.4290
 6763TIP3    H141780   2.277   2.892  16.340 -1.0139  0.5850  0.2163
 6763TIP3    H241781   2.403   2.874  16.256  0.0618  1.1938  1.6533
 6764TIP3   OH241782   1.103   1.767   5.959  0.6639  0.2605  0.1289
 6764TIP3    H141783   1.045   1.842   5.972  0.6577  0.6598 -1.9730
 6764TIP3    H241784   1.167   1.797   5.895 -0.4925 -2.1187 -2.3231
 6765TIP3   OH241785   4.904   3.231   5.472  0.3588 -0.2216  0.6391
 6765TIP3    H141786   4.957   3.245   5.550  1.2739  0.5407 -0.0872
 6765TIP3    H241787   4.814   3.229   5.504  0.7472 -0.3805  1.7637
 6766TIP3   OH241788   2.191   2.898  13.478  0.0771  0.4351  0.1761
 6766TIP3    H141789   2.102   2.897  13.512 -0.1919  2.7824 -0.2596
 6766TIP3    H241790   2.189   2.837  13.404 -0.8843 -0.3068  0.7965
 6767TIP3   OH241791   5.924   2.540  15.028 -0.2358  0.4943 -0.2887
 6767TIP3    H141792   5.981   2.463  15.022  0.6748  1.1603 -0.3723
 6767TIP3    H241793   5.903   2.547  15.121  1.6789  1.5259  0.1250
 6768TIP3   OH241794   5.725   2.444   2.971  0.1757  0.1193 -0.0766
 6768TIP3    H141795   5.720   2.377   3.040 -0.6786 -0.4437 -0.6718
 6768TIP3    H241796   5.734   2.394   2.890  1.7823  0.7945 -0.3467
 6769TIP3   OH241797   4.596   0.012   4.130 -0.0943  0.5345 -0.6573
 6769TIP3    H141798   4.592  -0.047   4.055 -0.2279  1.0745 -1.0783
 6769TIP3    H241799   4.530   0.079   4.112 -0.4856  0.3899  0.1852
 6770TIP3   OH241800   0.052   5.663   1.144  0.8603 -0.0988 -0.3784
 6770TIP3    H141801   0.015   5.745   1.177  0.4517 -0.4970  0.1829
 6770TIP3    H241802   0.145   5.669   1.166  0.6046 -0.3402  0.8698
 6771TIP3   OH241803   6.524   0.627   0.185 -0.1401  0.3215  0.3615
 6771TIP3    H141804   6.586   0.582   0.128 -0.6298 -0.2567  0.2742
 6771TIP3    H241805   6.551   0.718   0.183  0.7982  0.0499  0.4502
 6772TIP3   OH241806   3.854   1.963   4.348 -0.0252 -0.5255  0.3096
 6772TIP3    H141807   3.825   2.054   4.354 -0.1798 -0.5674  0.2061
 6772TIP3    H241808   3.809   1.918   4.419 -1.9629 -1.0497 -1.1589
 6773TIP3   OH241809   4.402   1.347   2.163 -0.4863 -0.2200 -0.0360
 6773TIP3    H141810   4.356   1.282   2.215 -0.8716 -1.3349 -1.6973
 6773TIP3    H241811   4.483   1.364   2.211 -1.9817  0.8221  2.2738
 6774TIP3   OH241812   4.994   1.866   3.873 -0.4435  0.8469  0.2076
 6774TIP3    H141813   5.038   1.793   3.916 -0.0441  0.6122 -0.5789
 6774TIP3    H241814   5.029   1.866   3.784  0.5809  2.8211  0.5418
 6775TIP3   OH241815   6.609   1.672   1.258  0.0926  0.3248  0.3944
 6775TIP3    H141816   6.637   1.590   1.298 -3.7143 -0.6955  1.3628
 6775TIP3    H241817   6.580   1.726   1.331 -1.8507  0.6235 -0.5431
 6776TIP3   OH241818   6.111   5.712   3.344 -0.4219  0.9525  0.7147
 6776TIP3    H141819   6.107   5.727   3.250  0.8943  1.7877  0.7641
 6776TIP3    H241820   6.046   5.644   3.361 -0.2314  0.3451 -0.8889
 6777TIP3   OH241821   4.965   6.808  13.377  0.0556  0.1423  0.9557
 6777TIP3    H141822   4.963   6.897  13.412  1.3224  1.5053 -2.1056
 6777TIP3    H241823   4.872   6.787  13.361 -0.1988  1.5068  0.4582
 6778TIP3   OH241824   0.096   1.048  12.479 -0.1442 -0.7665  0.0210
 6778TIP3    H141825   0.118   1.088  12.564  0.9101 -2.5197  0.6215
 6778TIP3    H241826   0.027   0.986  12.499 -0.8455 -0.2226 -0.6678
 6779TIP3   OH241827   0.575   6.176   4.758 -0.0616  0.2478  0.4052
 6779TIP3    H141828   0.531   6.144   4.679  0.7432 -0.6231  0.2909
 6779TIP3    H241829   0.550   6.113   4.826  1.4593 -0.6017  0.2044
 6780TIP3   OH241830   4.441   0.936  16.687 -0.4256  0.4011  0.2805
 6780TIP3    H141831   4.368   0.892  16.730 -0.1914 -1.3917 -1.0447
 6780TIP3    H241832   4.488   0.980  16.758 -1.7665  0.0943  1.3895
 6781TIP3   OH241833   0.950   5.722   3.283 -0.9274 -0.9059 -0.5822
 6781TIP3    H141834   0.924   5.806   3.244 -1.2229 -0.1396  1.1679
 6781TIP3    H241835   1.045   5.721   3.275 -0.8817 -0.1720 -0.1754
 6782TIP3   OH241836   4.256   1.099  14.767  0.5843 -0.2752 -0.0991
 6782TIP3    H141837   4.240   1.134  14.680  0.6884 -2.1138 -0.8885
 6782TIP3    H241838   4.199   1.022  14.773  1.4069 -0.8281  1.0207
 6783TIP3   OH241839   1.386   5.227  13.458  0.0330  0.2007  0.1897
 6783TIP3    H141840   1.413   5.136  13.470 -2.2975 -0.8078 -1.3323
 6783TIP3    H241841   1.346   5.252  13.541  0.3415 -0.2880  0.4878
 6784TIP3   OH241842   4.031   0.309  12.198 -0.0687  0.1083 -0.1410
 6784TIP3    H141843   4.070   0.372  12.138 -0.2570 -0.1653 -0.5571
 6784TIP3    H241844   4.040   0.224  12.154 -0.9643  0.0172 -0.1691
 6785TIP3   OH241845   0.756   6.330   5.348  0.2110  0.0617 -0.4255
 6785TIP3    H141846   0.831   6.339   5.407  0.2817 -1.4271 -0.2579
 6785TIP3    H241847   0.694   6.276   5.397 -0.6309  0.5969 -0.8909
 6786TIP3   OH241848   2.444   6.517  11.423  0.4642  0.0194  0.1858
 6786TIP3    H141849   2.502   6.467  11.365 -0.5681 -1.4859  0.4053
 6786TIP3    H241850   2.496   6.592  11.450  2.4420 -1.4211  0.6038
 6787TIP3   OH241851   6.455   1.358  13.473 -0.2094 -0.1316  0.0535
 6787TIP3    H141852   6.482   1.362  13.565 -1.2895  1.3133  0.3470
 6787TIP3    H241853   6.528   1.313  13.429  0.5870 -0.3507  1.5084
 6788TIP3   OH241854   3.875   0.553   0.026  0.3291  0.2407  0.7532
 6788TIP3    H141855   3.906   0.523   0.111  0.0252  0.0790  0.8073
 6788TIP3    H241856   3.784   0.578   0.041  0.0221 -0.5548  0.3080
 6789TIP3   OH241857   5.173   4.319  12.428 -0.5345 -0.3886  0.3424
 6789TIP3    H141858   5.224   4.351  12.353  1.9468  0.5758  2.2802
 6789TIP3    H241859   5.163   4.225  12.412 -0.8639 -0.0759 -1.5770
 6790TIP3   OH241860   1.021   4.061  12.812 -0.4701  0.3868 -0.0399
 6790TIP3    H141861   0.944   4.085  12.760 -0.2386 -0.2580 -0.6952
 6790TIP3    H241862   0.988   3.998  12.877 -0.6830  0.8958  0.3575
 6791TIP3   OH241863   2.146   3.961   3.480 -0.0706 -0.1864  0.1405
 6791TIP3    H141864   2.165   4.042   3.433  2.9400 -0.3035  0.9923
 6791TIP3    H241865   2.054   3.970   3.507 -0.9797  1.2412 -2.9491
 6792TIP3   OH241866   4.870   1.306   2.500 -0.2328 -0.7759 -0.1105
 6792TIP3    H141867   4.941   1.322   2.439  0.4261  0.4884  0.9287
 6792TIP3    H241868   4.907   1.248   2.566 -0.6397 -1.3436 -0.3745
 6793TIP3   OH241869   3.061   1.571   1.804 -0.2631  0.6026  0.3658
 6793TIP3    H141870   2.975   1.607   1.784 -0.2399  2.4007  3.0136
 6793TIP3    H241871   3.102   1.558   1.718 -2.3191  1.8064 -0.8747
 6794TIP3   OH241872   2.389   2.042   2.614  0.3118  0.1207 -0.3072
 6794TIP3    H141873   2.349   2.056   2.528 -1.8509 -0.0836  0.6128
 6794TIP3    H241874   2.402   1.948   2.619 -0.7580 -0.0262  0.0515
 6795TIP3   OH241875   1.685   0.364   6.695  0.5590  0.1439  0.0768
 6795TIP3    H141876   1.722   0.281   6.725 -0.0910 -0.3651 -0.4989
 6795TIP3    H241877   1.591   0.351   6.698  0.4448  0.9356  0.1679
 6796TIP3   OH241878   2.530   3.165   5.373  0.2740 -0.2004 -0.4981
 6796TIP3    H141879   2.462   3.198   5.314  1.2248 -0.3379 -1.7083
 6796TIP3    H241880   2.545   3.075   5.345 -0.1232 -0.6885  0.7822
 6797TIP3   OH241881   0.433   3.597  12.767  0.1979 -0.0841 -0.1982
 6797TIP3    H141882   0.357   3.570  12.818  0.3285 -1.6752 -0.8046
 6797TIP3    H241883   0.449   3.525  12.706  0.8220  1.2105 -1.6298
 6798TIP3   OH241884   3.711   6.331  16.030  0.6602 -0.5395 -0.4254
 6798TIP3    H141885   3.789   6.276  16.029  1.8671  0.9982  1.3464
 6798TIP3    H241886   3.673   6.321  15.943  1.9354 -2.5561 -0.8173
 6799TIP3   OH241887   3.062   0.723  15.053 -0.3414  0.5694  0.2502
 6799TIP3    H141888   3.077   0.635  15.018 -0.4682 -0.0376  1.6668
 6799TIP3    H241889   3.029   0.708  15.142 -4.0811  1.9400 -0.7286
 6800TIP3   OH241890   0.295   4.023  14.516 -0.4525 -0.5535 -0.4960
 6800TIP3    H141891   0.276   3.968  14.592 -1.1823 -1.0703 -1.0299
 6800TIP3    H241892   0.315   3.960  14.446  0.9564 -0.0650 -0.5421
 6801TIP3   OH241893   2.055   2.320  13.792 -0.1112 -0.2136 -0.2985
 6801TIP3    H141894   2.106   2.369  13.728 -0.8319 -0.1076 -0.8019
 6801TIP3    H241895   1.970   2.364  13.794 -0.6806 -1.2647 -0.5710
 6802TIP3   OH241896   1.300   1.055   5.441  0.0369 -0.0106  0.8013
 6802TIP3    H141897   1.390   1.032   5.463  0.4445 -1.0181 -1.6568
 6802TIP3    H241898   1.269   0.983   5.386 -1.2387  1.7042 -0.8565
 6803TIP3   OH241899   1.061   1.911   2.143  0.2125 -0.1918  0.1487
 6803TIP3    H141900   1.137   1.885   2.092  0.8759  0.3102  0.8607
 6803TIP3    H241901   1.045   2.002   2.118 -0.3562 -0.3869 -0.2287
 6804TIP3   OH241902   5.951   5.450   2.963 -0.9991 -0.7767 -0.2478
 6804TIP3    H141903   5.958   5.524   3.022  0.0655 -0.6656 -0.4915
 6804TIP3    H241904   5.914   5.380   3.017  1.0561 -1.0469  0.9378
 6805TIP3   OH241905   0.714   3.279  12.619  0.0599 -0.6841  0.4434
 6805TIP3    H141906   0.727   3.290  12.525 -0.8398 -1.0959  0.2560
 6805TIP3    H241907   0.772   3.344  12.659  0.0041 -0.0887 -0.4080
 6806TIP3   OH241908   1.429   4.721   2.253  0.3490  0.2532 -0.4004
 6806TIP3    H141909   1.507   4.755   2.211 -0.0904  0.8631 -0.7251
 6806TIP3    H241910   1.451   4.718   2.346  1.1093 -0.5410 -0.5912
 6807TIP3   OH241911   6.188   0.372   0.846 -0.1486  0.3791  0.4764
 6807TIP3    H141912   6.274   0.410   0.827  0.2576 -0.8961 -0.4052
 6807TIP3    H241913   6.145   0.365   0.760 -0.2725 -0.9326  0.6246
 6808TIP3   OH241914   3.561   2.137   4.036  0.3840  0.4986  0.7962
 6808TIP3    H141915   3.601   2.177   3.958 -2.4325 -1.3332 -1.8225
 6808TIP3    H241916   3.605   2.052   4.045  0.1594  0.3747  0.7212
 6809TIP3   OH241917   4.045   0.957  12.013 -0.0158  0.1529  0.3810
 6809TIP3    H141918   4.030   0.960  12.107 -1.2613 -0.2080  0.2261
 6809TIP3    H241919   4.140   0.951  12.003  0.0511 -2.1184  1.7057
 6810TIP3   OH241920   4.507   4.277   4.581  0.3740  0.3963 -0.4209
 6810TIP3    H141921   4.565   4.201   4.579 -0.0035  0.1240 -1.6815
 6810TIP3    H241922   4.499   4.304   4.490 -1.0625  0.7435 -0.2244
 6811TIP3   OH241923   6.374   5.365   5.883  0.1720  0.1974 -0.1939
 6811TIP3    H141924   6.378   5.270   5.894  0.2539  0.4384  2.6016
 6811TIP3    H241925   6.455   5.397   5.922 -0.8469  1.4984  0.9784
 6812TIP3   OH241926   4.202   3.712  15.312 -0.1003  0.0511  0.6491
 6812TIP3    H141927   4.212   3.796  15.357  1.0163 -0.5615  1.5692
 6812TIP3    H241928   4.270   3.713  15.244  1.1724 -0.8372  1.8466
 6813TIP3   OH241929   3.335   4.273   0.794 -0.0411  0.2725  0.1650
 6813TIP3    H141930   3.333   4.347   0.854 -0.9215  0.7585 -0.4473
 6813TIP3    H241931   3.350   4.197   0.850  3.7965  1.1348  0.5492
 6814TIP3   OH241932   4.464   1.600  16.514  0.3793  0.3722 -0.4623
 6814TIP3    H141933   4.551   1.632  16.537  0.8715  0.5971 -2.4782
 6814TIP3    H241934   4.426   1.573  16.597  1.8131  1.6334  0.6506
 6815TIP3   OH241935   0.615   5.643   5.243  0.2997  0.1003  0.0008
 6815TIP3    H141936   0.681   5.575   5.259  0.5682  0.1833 -0.7178
 6815TIP3    H241937   0.562   5.644   5.322  0.7556 -0.4321  0.3195
 6816TIP3   OH241938   1.882   1.549   5.403 -0.1729  0.4191  0.2939
 6816TIP3    H141939   1.966   1.549   5.357 -0.2522  2.3130  0.0966
 6816TIP3    H241940   1.905   1.549   5.496 -0.0148 -1.8820  0.3265
 6817TIP3   OH241941   1.461   1.654  11.779 -0.2918 -0.8547  0.2863
 6817TIP3    H141942   1.397   1.622  11.843 -0.4931 -3.0710 -0.9096
 6817TIP3    H241943   1.456   1.591  11.707  0.6420  0.9779 -1.4817
 6818TIP3   OH241944   1.763   5.853   2.741  0.0740  0.1573  0.3571
 6818TIP3    H141945   1.791   5.909   2.669 -1.3326  0.2148 -0.1597
 6818TIP3    H241946   1.715   5.911   2.800  2.7483  0.5519  2.3775
 6819TIP3   OH241947   1.920   1.230  16.360  0.0086 -0.2880  0.4572
 6819TIP3    H141948   1.931   1.241  16.265 -1.8840  0.1377  0.2300
 6819TIP3    H241949   2.006   1.247  16.396  1.3063 -2.5168 -1.3181
 6820TIP3   OH241950   4.871   6.069   5.821  0.2924  0.3127 -0.2456
 6820TIP3    H141951   4.959   6.107   5.817  0.0577  0.7954 -0.8810
 6820TIP3    H241952   4.812   6.144   5.813 -0.1808 -0.0531 -0.1970
 6821TIP3   OH241953   1.200   0.116   4.283  0.1650 -0.1163 -0.2996
 6821TIP3    H141954   1.174   0.207   4.298 -0.8659 -0.2035 -1.4281
 6821TIP3    H241955   1.236   0.115   4.194 -1.6163 -1.1334 -1.0689
 6822TIP3   OH241956   3.648   1.926   1.076 -0.2429  0.7876 -0.5974
 6822TIP3    H141957   3.725   1.895   1.123  0.6676  3.8662  0.1406
 6822TIP3    H241958   3.581   1.859   1.093  1.7174 -1.0785  0.1983
 6823TIP3   OH241959   2.887   5.034   3.605 -0.3787  0.6308  0.1248
 6823TIP3    H141960   2.846   4.951   3.582  1.2574  0.0747 -0.9646
 6823TIP3    H241961   2.933   5.016   3.687  0.7965  0.1363 -0.6181
 6824TIP3   OH241962   1.661   6.083   5.473  0.4312 -0.1652  0.6272
 6824TIP3    H141963   1.657   6.028   5.395  0.2298 -0.5597  0.9072
 6824TIP3    H241964   1.739   6.137   5.461  1.2559 -1.2681  0.8312
 6825TIP3   OH241965   1.032   3.266   3.895 -0.2642  0.4371  0.1278
 6825TIP3    H141966   0.987   3.319   3.960 -1.2610 -1.9536  1.4648
 6825TIP3    H241967   0.963   3.233   3.838  0.2361 -0.0801 -0.1947
 6826TIP3   OH241968   4.387   0.058   5.630  0.3552 -0.1800  0.4640
 6826TIP3    H141969   4.353  -0.009   5.690 -1.2399  0.9916  0.9464
 6826TIP3    H241970   4.354   0.032   5.544  0.8833 -0.7260  0.4187
 6827TIP3   OH241971   4.044   5.282   2.294  0.5468 -0.1524  0.1425
 6827TIP3    H141972   4.102   5.356   2.306 -1.3590  1.5453 -0.5593
 6827TIP3    H241973   4.030   5.247   2.383  0.9343  0.7403  0.5606
 6828TIP3   OH241974   6.738   0.442   2.639 -0.0406 -0.1274 -0.5935
 6828TIP3    H141975   6.707   0.476   2.555 -0.1218  1.5796  0.0909
 6828TIP3    H241976   6.690   0.492   2.705  0.9207 -0.5708  0.4751
 6829TIP3   OH241977   0.141   1.151  15.694 -0.2345  0.5169  0.4233
 6829TIP3    H141978   0.074   1.148  15.763  0.4620  0.6646  1.1181
 6829TIP3    H241979   0.128   1.235  15.651  1.3110  1.8344  2.4134
 6830TIP3   OH241980   2.965   0.239   5.632 -0.4069  0.0479  0.9273
 6830TIP3    H141981   2.906   0.180   5.585  0.3079 -0.1708  0.2841
 6830TIP3    H241982   2.943   0.326   5.599  0.0124 -0.0938  0.2574
 6831TIP3   OH241983   1.561   5.607   0.880 -1.0160  0.3784  0.5531
 6831TIP3    H141984   1.554   5.584   0.787 -1.8954 -0.9101  0.9080
 6831TIP3    H241985   1.480   5.573   0.919  0.4652 -1.4725  2.2471
 6832TIP3   OH241986   6.486   6.234   4.916  0.3450  0.1417  0.1309
 6832TIP3    H141987   6.474   6.192   5.001  0.1884 -0.4238 -0.1683
 6832TIP3    H241988   6.545   6.175   4.868  0.7313  0.6427 -0.0208
 6833TIP3   OH241989   3.180   6.192   6.479 -0.5098  0.1778 -0.7687
 6833TIP3    H141990   3.141   6.140   6.549 -1.1367 -1.4620 -2.2578
 6833TIP3    H241991   3.185   6.132   6.404  0.8562  1.6275 -1.9149
 6834TIP3   OH241992   6.229   1.982  12.174 -0.2808 -0.2934  0.0115
 6834TIP3    H141993   6.295   1.962  12.108 -0.0276 -0.9420  0.4571
 6834TIP3    H241994   6.189   1.898  12.196 -2.2866  0.2371 -1.3031
 6835TIP3   OH241995   5.354   5.800   3.516 -0.1905 -0.0092 -0.5017
 6835TIP3    H141996   5.403   5.724   3.482 -0.5957  0.4540 -2.1841
 6835TIP3    H241997   5.316   5.841   3.438 -0.5547  1.5347  0.4587
 6836TIP3   OH241998   3.445   6.452  14.582 -0.2382 -0.0317  0.0476
 6836TIP3    H141999   3.386   6.400  14.637 -0.1157 -0.1394  0.0782
 6836TIP3    H242000   3.395   6.468  14.502 -0.6576  0.6713  0.4421
 6837TIP3   OH242001   3.280   5.733  16.365 -0.2424 -0.7013  0.1443
 6837TIP3    H142002   3.207   5.767  16.417  0.6690 -0.6166  1.4390
 6837TIP3    H242003   3.269   5.638  16.368  0.0102 -0.7133  0.8234
 6838TIP3   OH242004   3.987   2.490   5.277 -0.1136 -0.4439  0.7722
 6838TIP3    H142005   4.004   2.583   5.259  0.1178 -0.3566  1.4072
 6838TIP3    H242006   4.044   2.469   5.350 -0.2996 -1.0467  0.7525
 6839TIP3   OH242007   5.092   1.773   0.305 -0.6897  0.0805 -0.3189
 6839TIP3    H142008   5.095   1.726   0.221 -1.9945 -1.0986  0.2368
 6839TIP3    H242009   5.057   1.859   0.283 -0.8128 -0.1447 -1.0331
 6840TIP3   OH242010   4.398   5.444  16.783  0.0355  0.3276  0.4885
 6840TIP3    H142011   4.477   5.463  16.732 -1.1908 -1.6145 -2.3870
 6840TIP3    H242012   4.339   5.518  16.764  0.2907  0.5931  0.7182
 6841TIP3   OH242013   0.317   2.649  15.796  0.4627  0.4559  0.4237
 6841TIP3    H142014   0.395   2.594  15.787  0.5931  0.4979  1.2598
 6841TIP3    H242015   0.332   2.721  15.734  0.5513 -0.1338 -0.2561
 6842TIP3   OH242016   2.453   1.444  14.760  0.3649 -0.2551  0.4740
 6842TIP3    H142017   2.397   1.496  14.703  0.9344 -0.3846 -0.2062
 6842TIP3    H242018   2.425   1.467  14.849 -1.7662 -1.3990  0.1662
 6843TIP3   OH242019   1.063   1.902  14.599  0.9443 -0.4577  0.1689
 6843TIP3    H142020   0.991   1.878  14.658  0.2682 -0.7210 -0.7475
 6843TIP3    H242021   1.052   1.996  14.586 -0.6247 -0.8510 -1.7401
 6844TIP3   OH242022   6.625   3.264  12.651  0.3140 -0.1594  0.3759
 6844TIP3    H142023   6.708   3.217  12.662  0.7522  0.9321  2.1647
 6844TIP3    H242024   6.567   3.226  12.718 -0.0591  0.2668  0.3001
 6845TIP3   OH242025   2.781   6.366  12.170  0.2119 -0.2633  0.5185
 6845TIP3    H142026   2.853   6.423  12.197 -1.2385  1.8449  0.1948
 6845TIP3    H242027   2.783   6.368  12.074 -0.3047 -0.1362  0.5077
 6846TIP3   OH242028   1.786   4.479   1.624  0.0971 -0.3635  0.1396
 6846TIP3    H142029   1.829   4.523   1.550  2.5127 -0.9757  1.0942
 6846TIP3    H242030   1.692   4.493   1.608  0.6047  1.3942 -1.8553
 6847TIP3   OH242031   1.356   5.607  14.939 -0.4095 -0.1518 -0.0363
 6847TIP3    H142032   1.415   5.532  14.941  1.9598  1.6052  0.3182
 6847TIP3    H242033   1.363   5.645  15.026 -0.5489  1.1795 -0.5814
 6848TIP3   OH242034   3.035   4.669  13.857  0.2780 -0.0195  0.0784
 6848TIP3    H142035   3.098   4.615  13.809  0.0035 -0.4459  0.1881
 6848TIP3    H242036   2.967   4.689  13.793  0.4492  0.3160 -0.0001
 6849TIP3   OH242037   5.809   3.638  14.245  0.0911 -0.1843  0.2839
 6849TIP3    H142038   5.890   3.592  14.223 -0.0481 -0.4023  0.2237
 6849TIP3    H242039   5.831   3.691  14.322  0.2540 -0.3400  0.3444
 6850TIP3   OH242040   2.772   1.813   5.802 -0.0124  0.0064  0.0505
 6850TIP3    H142041   2.848   1.755   5.801  1.0231  1.3252 -0.1588
 6850TIP3    H242042   2.703   1.761   5.842  1.4848 -0.6060  1.9905
 6851TIP3   OH242043   6.740   3.615   0.649 -0.6986  0.0770  0.0526
 6851TIP3    H142044   6.792   3.611   0.569 -0.9015  1.6441 -0.1952
 6851TIP3    H242045   6.676   3.545   0.640  0.7332 -1.2615 -0.0698
 6852TIP3   OH242046   3.595   6.194   1.080  0.1620  0.5180  0.2487
 6852TIP3    H142047   3.506   6.204   1.113 -0.6263  0.3925 -1.7019
 6852TIP3    H242048   3.642   6.152   1.151 -1.9483 -1.6405  0.4999
 6853TIP3   OH242049   1.081   6.060  10.535  0.3782  0.2000  0.2394
 6853TIP3    H142050   1.065   6.154  10.545  1.8205  0.4620  0.4033
 6853TIP3    H242051   1.171   6.048  10.565  0.6559 -1.0320 -0.9620
 6854TIP3   OH242052   0.113   4.615  15.705  0.9177  0.1728 -0.3149
 6854TIP3    H142053   0.141   4.527  15.730  0.5327  0.5247  1.4518
 6854TIP3    H242054   0.149   4.627  15.617  1.3831 -1.5573 -0.3963
 6855TIP3   OH242055   6.462   5.588  12.372 -0.1087 -0.5440  0.1991
 6855TIP3    H142056   6.524   5.661  12.361 -0.3209 -0.3284  0.4126
 6855TIP3    H242057   6.514   5.519  12.413  0.0134 -0.3899  0.3067
 6856TIP3   OH242058   3.079   6.565  16.003 -0.6790 -0.6323  0.0871
 6856TIP3    H142059   3.061   6.475  16.030 -1.0493 -0.5180  0.2234
 6856TIP3    H242060   3.150   6.593  16.061 -0.1236 -1.0427 -0.3755
 6857TIP3   OH242061   5.918   3.039  10.429 -0.5249 -0.1605 -0.4608
 6857TIP3    H142062   5.898   3.001  10.515  1.1508  0.3459  0.1834
 6857TIP3    H242063   5.842   3.094  10.409 -0.8624 -0.1388  0.7830
 6858TIP3   OH242064   1.919   1.477  13.351 -0.8355  0.2122 -0.4518
 6858TIP3    H142065   2.014   1.469  13.353 -0.8963 -0.6678  1.2126
 6858TIP3    H242066   1.903   1.572  13.354  0.0411  0.3616  1.5331
 6859TIP3   OH242067   3.390   2.711   4.212 -0.2444  0.4385 -0.8881
 6859TIP3    H142068   3.366   2.621   4.191  1.0479  0.1855 -1.3258
 6859TIP3    H242069   3.473   2.704   4.259 -0.9411  1.3075  0.5196
 6860TIP3   OH242070   5.169   1.603  15.860 -0.2159 -0.1718  0.3416
 6860TIP3    H142071   5.118   1.523  15.858 -0.8452  0.2383 -0.0620
 6860TIP3    H242072   5.182   1.621  15.954  1.3077 -1.5912  0.4608
 6861TIP3   OH242073   3.151   0.826   5.042 -0.1071 -0.6797  0.4774
 6861TIP3    H142074   3.171   0.853   5.132  1.3032  1.3966 -0.3695
 6861TIP3    H242075   3.236   0.827   4.997 -1.1401  2.3988 -1.8052
 6862TIP3   OH242076   4.647   1.811   2.717  0.3971 -0.1460 -0.1670
 6862TIP3    H142077   4.733   1.835   2.751  0.1883 -0.8484  0.9208
 6862TIP3    H242078   4.617   1.888   2.669  0.5815  1.0334  1.5394
 6863TIP3   OH242079   4.261   6.750   5.407 -0.7365  0.0451 -0.2453
 6863TIP3    H142080   4.290   6.785   5.322  0.1489  0.3745  0.1726
 6863TIP3    H242081   4.282   6.657   5.403  1.3500  0.4236  0.3830
 6864TIP3   OH242082   5.383   2.422   5.257 -0.5204  0.5836 -0.0324
 6864TIP3    H142083   5.402   2.411   5.164  0.7021  2.5096 -0.0564
 6864TIP3    H242084   5.352   2.336   5.286 -0.9536 -0.0353 -2.2079
 6865TIP3   OH242085   5.576   1.406  13.351 -0.2822  0.4400  0.4135
 6865TIP3    H142086   5.648   1.387  13.411 -1.6116  0.9627  2.2526
 6865TIP3    H242087   5.544   1.492  13.378 -1.6329  0.2055 -0.3366
 6866TIP3   OH242088   3.672   4.433   1.187  0.0043  0.1363 -0.5876
 6866TIP3    H142089   3.681   4.514   1.136  0.7281 -1.1389 -2.5944
 6866TIP3    H242090   3.687   4.363   1.124  1.4357 -1.5476  1.4848
 6867TIP3   OH242091   6.588   0.867   0.128  0.1787  0.6510 -0.9783
 6867TIP3    H142092   6.659   0.930   0.113  2.2537 -1.3606 -0.2759
 6867TIP3    H242093   6.545   0.859   0.044 -0.0083  2.7760 -1.1505
 6868TIP3   OH242094   6.125   3.178  11.603 -0.2165 -0.5913  0.0613
 6868TIP3    H142095   6.159   3.175  11.513 -1.0271 -0.3378 -0.2560
 6868TIP3    H242096   6.194   3.223  11.652  0.3417 -0.9427 -0.3750
 6869TIP3   OH242097   0.097   2.282  14.464 -0.2503  0.0017 -0.5687
 6869TIP3    H142098   0.120   2.214  14.401  1.6874  1.1837 -1.2034
 6869TIP3    H242099   0.091   2.362  14.411 -3.5009  0.2617 -0.0209
 6870TIP3   OH242100   4.434   0.549   0.031  0.4590  0.4405 -0.1895
 6870TIP3    H142101   4.458   0.465   0.071  0.1830  0.2886 -0.3438
 6870TIP3    H242102   4.442   0.534  -0.063 -2.2228 -0.2576 -0.3886
 6871TIP3   OH242103   0.474   5.206   0.456  0.0117  0.5148  0.0263
 6871TIP3    H142104   0.537   5.168   0.517 -2.1272 -0.8817  1.5001
 6871TIP3    H242105   0.465   5.141   0.387  0.0662  0.6645 -0.1238
 6872TIP3   OH242106   6.750   3.605  11.492  0.5885  0.6220  0.8521
 6872TIP3    H142107   6.823   3.655  11.529  2.3059 -1.4460  0.4334
 6872TIP3    H242108   6.697   3.671  11.447  1.7880  2.3008  1.7594
 6873TIP3   OH242109   1.483   3.169   5.609 -0.4343  0.2878 -0.7519
 6873TIP3    H142110   1.402   3.124   5.634 -0.2009  0.5942  0.6175
 6873TIP3    H242111   1.527   3.109   5.549 -2.2491  0.6353 -2.5844
 6874TIP3   OH242112   6.111   3.278   2.064 -0.8303  0.1969  0.1356
 6874TIP3    H142113   6.202   3.250   2.071 -1.0554 -0.1390  2.7429
 6874TIP3    H242114   6.068   3.208   2.016 -0.6876 -2.4718  3.5005
 6875TIP3   OH242115   2.007   1.286  15.777  0.6389  0.4111  0.3847
 6875TIP3    H142116   2.061   1.359  15.746 -1.0027  0.3107 -3.3546
 6875TIP3    H242117   2.028   1.214  15.717 -2.1006 -0.1929  0.0025
 6876TIP3   OH242118   2.606   3.035   5.913 -0.1195  0.1342  0.2168
 6876TIP3    H142119   2.556   3.113   5.889 -0.3843 -0.0287  0.2261
 6876TIP3    H242120   2.578   2.968   5.851  2.9382  1.0159 -2.3549
 6877TIP3   OH242121   1.966   6.476  10.831 -0.0424  0.7113 -0.2253
 6877TIP3    H142122   1.963   6.511  10.742  1.6219 -1.8701 -1.3920
 6877TIP3    H242123   2.059   6.467  10.850 -0.3932 -0.3819  1.1246
 6878TIP3   OH242124   1.139   0.212  11.277 -0.6132  0.7608 -0.7865
 6878TIP3    H142125   1.152   0.293  11.326 -1.1023 -0.0770  0.8227
 6878TIP3    H242126   1.225   0.170  11.275 -0.7714  0.3353  0.2945
 6879TIP3   OH242127   6.134   1.578  14.298  0.6672 -0.8614 -0.2847
 6879TIP3    H142128   6.159   1.488  14.317  0.7186 -1.6423 -3.4964
 6879TIP3    H242129   6.184   1.601  14.220  1.6275  2.4705  1.0923
 6880TIP3   OH242130   0.861   3.188  16.933  0.4252  0.2077 -0.9701
 6880TIP3    H142131   0.792   3.185  16.867  0.0038  0.7690 -0.5713
 6880TIP3    H242132   0.904   3.102  16.928 -1.8824 -1.1429  0.4373
 6881TIP3   OH242133   5.786   1.126  11.232  0.7077  0.2019  0.0853
 6881TIP3    H142134   5.881   1.131  11.233  0.7885 -0.9437  1.1632
 6881TIP3    H242135   5.758   1.173  11.310  0.2855  1.7024 -0.9342
 6882TIP3   OH242136   0.504   1.447  15.642  0.0612 -0.3869 -0.1597
 6882TIP3    H142137   0.536   1.367  15.683  2.9641  0.4749 -0.5084
 6882TIP3    H242138   0.514   1.515  15.709 -0.3952  0.0644 -0.5354
 6883TIP3   OH242139   1.100   5.076  12.624  0.3695 -0.0302  0.2169
 6883TIP3    H142140   1.034   5.072  12.693  1.3118  0.5965  1.1835
 6883TIP3    H242141   1.183   5.091  12.670  0.9907  0.6743 -1.0641
 6884TIP3   OH242142   6.578   6.232  13.510 -0.0085  0.5841 -0.0028
 6884TIP3    H142143   6.633   6.173  13.563 -0.4002  2.5898  2.8626
 6884TIP3    H242144   6.640   6.293  13.470  0.1234  0.7054  0.3782
 6885TIP3   OH242145   4.703   1.059  14.036 -0.1804 -0.1769  0.6132
 6885TIP3    H142146   4.757   1.053  14.115  0.4369 -0.0533  0.2049
 6885TIP3    H242147   4.628   1.112  14.062  0.0310 -0.1176  1.1098
 6886TIP3   OH242148   5.208   1.435  13.865 -0.3145 -0.3442 -0.2758
 6886TIP3    H142149   5.236   1.346  13.887 -0.6144 -0.6046 -0.9255
 6886TIP3    H242150   5.207   1.481  13.949  1.7785 -0.3856 -0.1612
 6887TIP3   OH242151   3.093   0.658  13.555 -0.3360  0.2131 -0.2087
 6887TIP3    H142152   3.147   0.649  13.634 -1.2870  0.0292  0.4399
 6887TIP3    H242153   3.103   0.749  13.529 -0.1902  0.3399  0.2722
 6888TIP3   OH242154   4.845   1.769  15.761 -0.1588 -0.6624  0.9581
 6888TIP3    H142155   4.778   1.758  15.694  0.1248 -0.5105  0.6461
 6888TIP3    H242156   4.811   1.722  15.837 -1.0265  0.1446  1.0971
 6889TIP3   OH242157   1.859   3.195  14.886  0.7982 -0.3106 -0.2612
 6889TIP3    H142158   1.804   3.197  14.808  1.4928 -0.5930 -0.7672
 6889TIP3    H242159   1.853   3.105  14.917  1.1533 -0.4002 -0.4496
 6890TIP3   OH242160   6.672   2.759   0.774 -0.2279 -0.3066 -0.6596
 6890TIP3    H142161   6.757   2.716   0.787  0.3508  0.3757 -1.9252
 6890TIP3    H242162   6.608   2.693   0.799  0.6627 -1.2121 -0.6789
 6891TIP3   OH242163   1.987   4.198   0.159 -0.1407 -0.0355 -0.2008
 6891TIP3    H142164   1.906   4.198   0.211 -0.1814 -1.1401 -0.2512
 6891TIP3    H242165   1.983   4.280   0.109 -0.6674  0.4740  0.6503
 6892TIP3   OH242166   2.427   5.457  12.405 -0.1092 -0.0097 -0.2289
 6892TIP3    H142167   2.406   5.410  12.324 -1.1275  1.2932 -0.7578
 6892TIP3    H242168   2.452   5.545  12.376  0.6557  0.1355  0.8102
 6893TIP3   OH242169   3.043   1.675   0.118  0.0575  0.2684 -0.0863
 6893TIP3    H142170   3.120   1.729   0.137 -0.7642  1.6932 -0.6753
 6893TIP3    H242171   2.983   1.692   0.191 -0.6636  1.0603 -0.8455
 6894TIP3   OH242172   5.017   5.846  16.214 -0.1321  0.3978  0.4450
 6894TIP3    H142173   5.049   5.857  16.303  1.6539 -0.0120 -0.0955
 6894TIP3    H242174   4.922   5.838  16.223  0.1512 -2.1630  2.6019
 6895TIP3   OH242175   0.808   4.706   4.096 -0.2245 -0.2799 -0.2727
 6895TIP3    H142176   0.737   4.763   4.127  1.1073  1.3607 -0.1175
 6895TIP3    H242177   0.768   4.619   4.090 -1.8188  0.2929  1.3356
 6896TIP3   OH242178   5.933   1.815  11.090  0.1153  0.4941 -0.8143
 6896TIP3    H142179   5.870   1.887  11.088 -0.2057  0.3549  1.5213
 6896TIP3    H242180   5.966   1.809  11.000 -1.6929  1.8937 -1.6252
 6897TIP3   OH242181   6.031   3.718   4.810 -0.4105 -0.5831  0.8112
 6897TIP3    H142182   5.997   3.633   4.782 -1.5928 -0.0614  0.5863
 6897TIP3    H242183   6.030   3.772   4.731 -1.1595  0.0929  1.2706
 6898TIP3   OH242184   0.774   0.699  10.957  0.3487  0.6633 -0.0021
 6898TIP3    H142185   0.701   0.650  10.996 -0.8838  1.9465 -0.6353
 6898TIP3    H242186   0.827   0.632  10.915 -1.9505 -0.1100 -1.9232
 6899TIP3   OH242187   4.794   3.074   5.778  0.1752  0.7241  0.1595
 6899TIP3    H142188   4.847   3.140   5.733  0.8946 -0.4684 -0.8208
 6899TIP3    H242189   4.847   3.049   5.853  1.4511 -1.0264 -1.2411
 6900TIP3   OH242190   0.120   1.357  16.978  0.2229 -0.4168 -0.0558
 6900TIP3    H142191   0.032   1.354  16.941 -1.6427  2.2841  3.5346
 6900TIP3    H242192   0.171   1.409  16.915 -0.8080 -1.5367 -1.9042
 6901TIP3   OH242193   0.915   1.275   4.579  0.1404  0.0128 -0.0728
 6901TIP3    H142194   0.825   1.289   4.608  0.9778  2.1605  1.7602
 6901TIP3    H242195   0.956   1.223   4.648  1.0751  1.7077  0.7230
 6902TIP3   OH242196   5.235   3.037  16.220 -0.4563  0.3222  0.5070
 6902TIP3    H142197   5.319   3.023  16.264  0.3655  0.3492 -1.0028
 6902TIP3    H242198   5.245   2.994  16.135 -2.2088 -0.2166  0.5484
 6903TIP3   OH242199   3.285   3.076   3.947  0.4490 -0.3664 -0.4708
 6903TIP3    H142200   3.348   3.115   4.007  0.7831  0.9053 -1.5744
 6903TIP3    H242201   3.230   3.150   3.919 -0.4278 -1.1333 -0.8401
 6904TIP3   OH242202   1.703   1.683   2.019 -0.0905  0.6435  0.0231
 6904TIP3    H142203   1.747   1.664   1.937  0.0206 -0.0744  0.2396
 6904TIP3    H242204   1.650   1.606   2.036  0.1212  0.6514  0.7698
 6905TIP3   OH242205   1.493   5.913  15.902 -0.1973  0.3019 -0.1341
 6905TIP3    H142206   1.469   5.982  15.964  1.3990  1.8496 -1.1484
 6905TIP3    H242207   1.582   5.887  15.929  0.0044  0.0871 -0.9892
 6906TIP3   OH242208   4.338   1.186   1.336 -0.2002  0.3500 -0.4776
 6906TIP3    H142209   4.301   1.108   1.379  0.9077  0.0229 -0.0682
 6906TIP3    H242210   4.405   1.151   1.277 -0.3376  0.9393 -0.9927
 6907TIP3   OH242211   0.797   0.260  12.487  0.3650 -0.5264  0.4593
 6907TIP3    H142212   0.830   0.175  12.458  0.8751 -0.7016  1.5284
 6907TIP3    H242213   0.719   0.239  12.538  0.0465 -0.2889  0.0794
 6908TIP3   OH242214   4.555   5.479  13.021  0.0670  0.2792  0.1531
 6908TIP3    H142215   4.575   5.419  12.949 -0.8968 -0.1026  0.1873
 6908TIP3    H242216   4.459   5.482  13.023  0.0956  1.5716  0.3644
 6909TIP3   OH242217   4.297   3.011   4.452  0.2397 -0.1633 -0.3886
 6909TIP3    H142218   4.374   3.034   4.504 -0.1671 -2.0276  1.1755
 6909TIP3    H242219   4.332   2.978   4.369  0.9301  2.2666 -1.1332
 6910TIP3   OH242220   0.160   0.364  11.851 -0.0553 -0.0395 -0.1040
 6910TIP3    H142221   0.182   0.288  11.797  0.7895 -0.5214  0.8591
 6910TIP3    H242222   0.075   0.393  11.820 -2.6820 -4.1641  2.3916
 6911TIP3   OH242223   6.008   3.813  13.537 -0.4506  0.2569 -0.0690
 6911TIP3    H142224   5.935   3.846  13.590 -0.8884 -1.3923  0.4148
 6911TIP3    H242225   6.052   3.750  13.593 -0.3866 -0.8729 -1.3455
 6912TIP3   OH242226   0.090   4.643  14.042 -0.0271  0.2642 -0.2967
 6912TIP3    H142227   0.136   4.725  14.062  1.4654 -0.5313 -0.3537
 6912TIP3    H242228   0.072   4.648  13.948 -0.5613  0.8217 -0.1721
 6913TIP3   OH242229   2.499   4.496  16.206  0.1207  0.4198  1.2815
 6913TIP3    H142230   2.425   4.438  16.190 -0.3924  1.0767  1.2390
 6913TIP3    H242231   2.460   4.580  16.230  0.7449  1.5459 -1.2540
 6914TIP3   OH242232   2.378   5.276  12.185 -0.2067 -0.1165  0.5661
 6914TIP3    H142233   2.292   5.316  12.171 -0.0783 -0.1958 -0.5267
 6914TIP3    H242234   2.413   5.262  12.097  0.3402 -1.3683  0.9594
 6915TIP3   OH242235   4.470   5.726   3.881 -0.6726  0.2671 -0.5462
 6915TIP3    H142236   4.444   5.634   3.879  0.1538  0.0307 -0.7892
 6915TIP3    H242237   4.486   5.744   3.974  0.3492 -0.1958 -0.6105
 6916TIP3   OH242238   6.667   6.501  13.621 -0.0155  0.2399  0.1261
 6916TIP3    H142239   6.635   6.565  13.558  0.5222 -1.2663 -1.7970
 6916TIP3    H242240   6.763   6.511  13.619  0.1035 -0.8537 -0.5187
 6917TIP3   OH242241   1.654   4.024   0.537 -0.6255 -0.2673  0.0885
 6917TIP3    H142242   1.718   4.079   0.582 -1.1590  0.1281  0.3886
 6917TIP3    H242243   1.640   3.951   0.597  0.1824 -0.8087 -0.3704
 6918TIP3   OH242244   4.762   1.380   5.404  0.3261  0.4396 -0.1295
 6918TIP3    H142245   4.736   1.319   5.473  0.9875  0.7562  0.4127
 6918TIP3    H242246   4.701   1.453   5.413 -0.5998 -0.2235 -0.9137
 6919TIP3   OH242247   1.406   2.218   2.004  0.0885  0.2307  0.6136
 6919TIP3    H142248   1.475   2.215   2.071 -0.0027 -1.3072  0.6680
 6919TIP3    H242249   1.378   2.127   1.995 -0.0092  0.4336 -1.4314
 6920TIP3   OH242250   6.167   3.625   0.424  0.0080 -0.0564  0.6039
 6920TIP3    H142251   6.117   3.593   0.499  1.3607  0.4343  1.7664
 6920TIP3    H242252   6.252   3.650   0.461  0.2307  1.5220 -0.8432
 6921TIP3   OH242253   6.260   6.099  12.864  0.0035  0.3125 -0.1569
 6921TIP3    H142254   6.288   6.063  12.949  0.9956  1.6524  0.1139
 6921TIP3    H242255   6.239   6.022  12.811 -1.4084 -0.5475  1.5369
 6922TIP3   OH242256   0.163   5.686   4.187  0.1131 -0.2615 -0.4943
 6922TIP3    H142257   0.168   5.741   4.110  0.6909  1.5009  0.7394
 6922TIP3    H242258   0.075   5.648   4.184  0.4505 -0.9734 -2.4572
 6923TIP3   OH242259   1.196   3.570   1.061 -0.1382  0.1980  0.1531
 6923TIP3    H142260   1.120   3.580   1.118 -0.9637  0.7917 -0.9936
 6923TIP3    H242261   1.204   3.475   1.048 -0.8967  0.1449  0.0311
 6924TIP3   OH242262   1.284   3.216   1.295 -0.0249  0.3501  0.1467
 6924TIP3    H142263   1.372   3.224   1.331  0.5049 -0.5575 -0.8939
 6924TIP3    H242264   1.277   3.287   1.232  0.1688  0.0788 -0.1803
 6925TIP3   OH242265   1.058   3.352   0.136  0.7546  0.5454 -0.1433
 6925TIP3    H142266   1.026   3.326   0.050  2.3820  0.3712 -0.7440
 6925TIP3    H242267   0.996   3.313   0.198  0.4847 -0.7589 -1.1809
 6926TIP3   OH242268   2.431   3.509   0.486  0.0158  0.4139  0.6110
 6926TIP3    H142269   2.466   3.530   0.399  0.3852 -0.1061  0.6287
 6926TIP3    H242270   2.487   3.438   0.517 -1.3026 -0.7094  0.4914
 6927TIP3   OH242271   4.609   2.502   5.277 -0.4934 -0.1596 -0.3289
 6927TIP3    H142272   4.637   2.436   5.214 -0.2240 -0.4372  0.0754
 6927TIP3    H242273   4.590   2.453   5.357 -2.9916 -0.1091 -0.8138
 6928TIP3   OH242274   5.604   2.677  17.242  0.1364  0.3909 -0.1828
 6928TIP3    H142275   5.699   2.669  17.232 -0.1450 -1.2421 -2.3241
 6928TIP3    H242276   5.576   2.592  17.275 -0.7062  0.3448 -0.9571
 6929TIP3   OH242277   4.572   6.172   3.574  0.0609 -0.2831 -0.0376
 6929TIP3    H142278   4.608   6.085   3.556  1.6123 -0.0654  1.7224
 6929TIP3    H242279   4.529   6.197   3.492  2.4038 -1.3364 -1.7234
 6930TIP3   OH242280   3.777   4.338  10.694 -0.3701  0.5791 -0.1962
 6930TIP3    H142281   3.712   4.308  10.757  1.6383  1.5131  2.5476
 6930TIP3    H242282   3.842   4.385  10.747  2.8609 -0.7720 -2.5807
 6931TIP3   OH242283   2.337   5.194  16.623  0.7464 -0.1524 -0.4614
 6931TIP3    H142284   2.412   5.193  16.682  0.2350 -1.8950  0.2272
 6931TIP3    H242285   2.366   5.145  16.546  0.5605 -0.1603 -0.5271
 6932TIP3   OH242286   0.181   3.397   0.537  0.3121  0.6128 -0.8887
 6932TIP3    H142287   0.112   3.377   0.600  1.3741 -0.8948 -0.1254
 6932TIP3    H242288   0.152   3.477   0.493 -0.9479  1.1187  0.7785
 6933TIP3   OH242289   0.159   2.930   5.773 -0.5061  0.2679  0.2382
 6933TIP3    H142290   0.086   2.950   5.714 -0.7264  0.9572  0.7283
 6933TIP3    H242291   0.235   2.970   5.732 -0.4405 -0.2405 -0.1490
 6934TIP3   OH242292   4.786   5.686  14.813 -0.5798 -0.0664 -0.7123
 6934TIP3    H142293   4.794   5.599  14.774  1.2970 -0.6629  0.8653
 6934TIP3    H242294   4.718   5.676  14.880 -2.5670  0.5285 -2.5265
 6935TIP3   OH242295   6.782   2.776   0.491  0.2390  0.2293 -0.2595
 6935TIP3    H142296   6.746   2.794   0.578 -0.2846 -0.2969 -0.3549
 6935TIP3    H242297   6.725   2.707   0.457 -0.5838  1.5427 -1.6690
 6936TIP3   OH242298   3.122   6.661   5.818 -0.0880 -0.1361  0.6756
 6936TIP3    H142299   3.088   6.694   5.901 -1.8954  0.8772 -0.3941
 6936TIP3    H242300   3.134   6.568   5.832 -0.8740 -0.0720  1.9265
 6937TIP3   OH242301   5.502   2.157  13.920  0.3759  0.8700  0.1953
 6937TIP3    H142302   5.507   2.226  13.853 -0.1232  2.5894  1.8304
 6937TIP3    H242303   5.581   2.105  13.907  1.4440  2.5472 -0.2994
 6938TIP3   OH242304   2.599   6.738  11.473  0.4825  0.1400 -0.1292
 6938TIP3    H142305   2.644   6.743  11.388 -0.1895  1.7063 -0.4212
 6938TIP3    H242306   2.662   6.775  11.535  1.4543 -2.0952  0.3139
 6939TIP3   OH242307   5.572   5.523   1.742 -0.2937  0.4927  0.3465
 6939TIP3    H142308   5.483   5.490   1.752  0.0753 -0.3158  1.1540
 6939TIP3    H242309   5.615   5.458   1.686  0.5054 -0.5932  2.1368
 6940TIP3   OH242310   0.906   6.459  16.259  0.2723  0.0300 -0.2618
 6940TIP3    H142311   0.951   6.389  16.306 -1.1715 -1.7692 -1.4453
 6940TIP3    H242312   0.853   6.414  16.193  0.4958  2.3195 -2.1530
 6941TIP3   OH242313   5.281   6.329   0.265 -0.5152 -0.2400  0.4008
 6941TIP3    H142314   5.277   6.419   0.297 -2.2772 -0.1095 -0.0811
 6941TIP3    H242315   5.230   6.330   0.183 -1.1358 -1.7962  0.7263
 6942TIP3   OH242316   3.608   2.732  12.444  0.4536  0.1117 -0.0341
 6942TIP3    H142317   3.686   2.757  12.396  0.1658  0.0230 -0.5545
 6942TIP3    H242318   3.569   2.815  12.472 -0.1509  0.2497 -1.1979
 6943TIP3   OH242319   5.018   1.081  12.183  0.2888 -0.1404 -0.2736
 6943TIP3    H142320   4.946   1.042  12.132  0.7185  0.1783 -1.1582
 6943TIP3    H242321   5.096   1.035  12.153  0.9115  1.7871 -1.8699
 6944TIP3   OH242322   2.875   4.068  15.605  0.6725  0.0625 -0.1040
 6944TIP3    H142323   2.896   4.147  15.655  0.5133  0.2690 -0.3611
 6944TIP3    H242324   2.947   4.059  15.543  2.0015 -1.3901  1.5443
 6945TIP3   OH242325   3.750   5.358  11.798 -0.0712 -0.3289  0.6549
 6945TIP3    H142326   3.819   5.420  11.821  0.1955 -0.2175 -0.4052
 6945TIP3    H242327   3.789   5.272  11.813 -0.0186 -0.2588  0.9318
 6946TIP3   OH242328   6.106   0.993  10.805 -0.1517  0.5414 -0.4605
 6946TIP3    H142329   6.195   0.979  10.838  0.1871  2.0303 -0.6642
 6946TIP3    H242330   6.091   1.087  10.816 -1.8772  0.2486 -0.0206
 6947TIP3   OH242331   0.628   5.203   4.380  0.1590 -0.6198  0.2293
 6947TIP3    H142332   0.661   5.118   4.411  1.6931  0.2110  0.9896
 6947TIP3    H242333   0.642   5.262   4.453  1.9664  0.9430 -1.2543
 6948TIP3   OH242334   5.472   3.191   3.746 -0.1828 -0.0498 -0.2430
 6948TIP3    H142335   5.526   3.262   3.710 -2.3041  0.2699 -3.1747
 6948TIP3    H242336   5.530   3.115   3.745  1.2834  1.0192  0.2035
 6949TIP3   OH242337   6.508   1.831  15.536 -0.5268  0.0513  0.1492
 6949TIP3    H142338   6.552   1.895  15.481 -0.7934 -0.3057 -0.4868
 6949TIP3    H242339   6.436   1.880  15.576 -0.3080  0.3203  0.2205
 6950TIP3   OH242340   3.176   5.952   0.684  0.1310  0.0491  0.0148
 6950TIP3    H142341   3.146   6.033   0.644  2.4468  1.7676  1.4538
 6950TIP3    H242342   3.193   5.893   0.611 -1.8728  0.7341 -1.0466
 6951TIP3   OH242343   3.331   5.561   3.037 -0.4618  0.3144 -0.3622
 6951TIP3    H142344   3.315   5.587   3.128 -2.3899 -1.3792 -0.1585
 6951TIP3    H242345   3.423   5.534   3.036 -0.5547 -0.1813  1.2534
 6952TIP3   OH242346   1.233   3.558   5.197 -1.1352  0.0328  0.3874
 6952TIP3    H142347   1.231   3.653   5.203  1.8569  0.2330 -0.1610
 6952TIP3    H242348   1.189   3.527   5.276 -1.9732  1.8305  0.6672
 6953TIP3   OH242349   4.890   2.853   4.138  0.5067 -0.5363  0.2613
 6953TIP3    H142350   4.977   2.829   4.107  0.2864 -0.4808 -0.4166
 6953TIP3    H242351   4.830   2.818   4.071  0.0902  0.6620 -0.0097
 6954TIP3   OH242352   6.290   3.484   1.020 -0.1270 -0.2187  0.4339
 6954TIP3    H142353   6.350   3.525   1.082 -1.1097 -0.5835  1.6766
 6954TIP3    H242354   6.214   3.543   1.017 -0.2863 -0.4359 -0.0870
 6955TIP3   OH242355   2.370   1.263  13.768 -0.3882 -0.1709  0.1341
 6955TIP3    H142356   2.337   1.186  13.722 -1.6608 -0.0337  0.7873
 6955TIP3    H242357   2.391   1.325  13.698  0.3131 -0.9596 -0.3763
 6956TIP3   OH242358   3.902   5.854  12.805  0.1899 -0.6930  0.3271
 6956TIP3    H142359   3.910   5.769  12.847 -2.3356  0.6934  4.1412
 6956TIP3    H242360   3.974   5.906  12.840 -1.1217  0.0665  2.0334
 6957TIP3   OH242361   6.415   4.009  15.663 -0.5156  0.1350 -0.4512
 6957TIP3    H142362   6.473   4.049  15.727 -1.1684  2.5351 -1.2430
 6957TIP3    H242363   6.336   4.064  15.664 -1.4780 -1.1326 -1.6610
 6958TIP3   OH242364   4.412   4.007  13.681  0.0280  0.3881  0.2633
 6958TIP3    H142365   4.506   3.998  13.665  0.3158 -2.0830  2.5605
 6958TIP3    H242366   4.389   4.092  13.644  3.1640  1.1051 -0.3260
 6959TIP3   OH242367   2.691   3.911   2.609  0.0627  0.1286  0.2399
 6959TIP3    H142368   2.659   3.990   2.565  0.0214  0.3314  0.6299
 6959TIP3    H242369   2.749   3.870   2.545  2.3543  1.9508  0.9996
 6960TIP3   OH242370   5.755   4.756  12.753 -0.3749 -0.5884 -0.3395
 6960TIP3    H142371   5.822   4.733  12.817 -2.1587 -0.0156  1.8467
 6960TIP3    H242372   5.701   4.677  12.745 -1.3309 -0.0322  0.4330
 6961TIP3   OH242373   2.569   0.028   5.652  0.1728 -0.0559  0.1037
 6961TIP3    H142374   2.576   0.116   5.615 -1.3212 -0.1548 -0.4874
 6961TIP3    H242375   2.475   0.015   5.664  0.3354 -1.7658 -0.3016
 6962TIP3   OH242376   6.079   1.710  11.289 -0.3150 -0.0724 -0.2492
 6962TIP3    H142377   6.171   1.733  11.276 -0.9927  4.0858  0.5794
 6962TIP3    H242378   6.032   1.762  11.224 -2.1702 -0.7452  0.4828
 6963TIP3   OH242379   4.021   4.165  12.437 -0.4239  0.0381 -0.0619
 6963TIP3    H142380   3.982   4.102  12.497 -0.7820 -1.3424 -1.6760
 6963TIP3    H242381   4.037   4.243  12.491 -1.2280 -0.9433  1.6673
 6964TIP3   OH242382   0.280   3.246   2.987  0.9314 -0.2042  0.1630
 6964TIP3    H142383   0.199   3.240   3.038  0.6061  0.6414 -0.2354
 6964TIP3    H242384   0.318   3.330   3.013  1.0542 -0.0312 -0.5561
 6965TIP3   OH242385   6.163   5.298  12.975  0.1461  0.4834  0.4647
 6965TIP3    H142386   6.071   5.313  12.954 -0.0684 -2.3056 -1.0230
 6965TIP3    H242387   6.211   5.339  12.903 -0.0657  0.1590  0.1324
 6966TIP3   OH242388   6.609   5.687  14.693 -0.0727 -0.1978 -0.0972
 6966TIP3    H142389   6.557   5.707  14.772  1.2715  0.7606  0.5919
 6966TIP3    H242390   6.669   5.618  14.721  0.8929  0.6427 -0.0505
 6967TIP3   OH242391   0.883   1.149   6.588 -0.4413  0.0513  0.8155
 6967TIP3    H142392   0.914   1.132   6.677 -0.9610  1.5755  1.3192
 6967TIP3    H242393   0.793   1.178   6.600 -0.1795  1.3051 -0.1055
 6968TIP3   OH242394   3.997   4.877  15.370 -0.0552  0.0221 -0.2044
 6968TIP3    H142395   4.067   4.830  15.415 -0.8147 -2.9612 -1.8726
 6968TIP3    H242396   4.042   4.931  15.305  0.8002 -1.6849 -1.1015
 6969TIP3   OH242397   6.600   3.369   5.539 -0.2760 -0.2180  0.0778
 6969TIP3    H142398   6.563   3.295   5.587 -0.0567  0.1036  0.7685
 6969TIP3    H242399   6.527   3.431   5.531 -0.3210 -0.2849 -0.0266
 6970TIP3   OH242400   1.468   4.272   3.735  0.2673 -0.2199 -0.0224
 6970TIP3    H142401   1.439   4.205   3.674 -3.4430  3.4095 -2.8269
 6970TIP3    H242402   1.389   4.294   3.785  1.3491  1.9806  0.8437
 6971TIP3   OH242403   6.275   5.769  14.719 -0.6812  0.3981 -0.1726
 6971TIP3    H142404   6.311   5.816  14.644 -0.8802 -0.0632 -0.5605
 6971TIP3    H242405   6.329   5.797  14.793 -0.7945  1.2310 -0.3939
 6972TIP3   OH242406   2.111   1.330   6.481  0.1185  0.0669 -0.0452
 6972TIP3    H142407   2.113   1.416   6.440  1.3935  0.4479  0.7306
 6972TIP3    H242408   2.033   1.287   6.446  0.3261  0.9405 -1.6374
 6973TIP3   OH242409   2.378   0.791  13.856  0.5034 -1.0762 -0.1234
 6973TIP3    H142410   2.284   0.774  13.850  0.3657 -1.5635  2.3641
 6973TIP3    H242411   2.400   0.773  13.948  2.9452 -0.5271 -0.5299
 6974TIP3   OH242412   3.835   1.525   4.621 -0.1872  0.1416 -0.5425
 6974TIP3    H142413   3.884   1.549   4.699 -1.7576  1.3361  0.1378
 6974TIP3    H242414   3.819   1.431   4.630 -2.1149  0.5861  1.7088
 6975TIP3   OH242415   4.372   3.488  13.650 -0.4851 -0.6820 -0.2209
 6975TIP3    H142416   4.369   3.583  13.655  0.6888 -0.6883  1.5501
 6975TIP3    H242417   4.283   3.460  13.673 -1.6129 -0.0431 -3.3299
 6976TIP3   OH242418   3.041   5.747   4.858 -0.4196 -0.7631  0.1467
 6976TIP3    H142419   3.119   5.721   4.907  0.2465 -3.3938 -2.0514
 6976TIP3    H242420   2.970   5.742   4.922  0.8133 -0.9325  1.5625
 6977TIP3   OH242421   5.725   2.398   2.423 -0.1878 -0.2907  0.4486
 6977TIP3    H142422   5.778   2.318   2.422 -0.6727 -0.6211  0.9009
 6977TIP3    H242423   5.787   2.466   2.449  0.0440 -0.6615  0.9048
 6978TIP3   OH242424   1.944   4.370  17.173 -0.1679 -0.1988  0.2202
 6978TIP3    H142425   1.901   4.354  17.088 -1.0141  0.1548  0.5703
 6978TIP3    H242426   1.988   4.455  17.161  0.1101 -0.3695 -0.0072
 6979TIP3   OH242427   4.151   1.686   4.018 -0.1420  0.2915  0.3671
 6979TIP3    H142428   4.068   1.728   4.043 -0.3304 -0.5459  1.1820
 6979TIP3    H242429   4.124   1.604   3.978  0.2525  0.6692 -0.6987
 6980TIP3   OH242430   5.957   1.233  10.239 -0.4496 -0.1359 -0.1010
 6980TIP3    H142431   5.901   1.190  10.304 -0.3610  0.0826  0.1238
 6980TIP3    H242432   5.974   1.319  10.277 -0.3011 -0.0517 -0.3629
 6981TIP3   OH242433   6.082   1.099   1.899  0.1445  0.1166  0.3225
 6981TIP3    H142434   6.161   1.053   1.869  0.8925  1.1460  0.6454
 6981TIP3    H242435   6.033   1.034   1.948  1.4501 -0.2019  1.2472
 6982TIP3   OH242436   0.467   6.097   2.203 -0.2328 -0.3445  0.1547
 6982TIP3    H142437   0.550   6.134   2.233 -1.0069  0.9866  0.7604
 6982TIP3    H242438   0.476   6.089   2.108  1.2376 -1.9700  0.3860
 6983TIP3   OH242439   4.710   0.034  14.512 -0.3295 -0.2216 -0.2983
 6983TIP3    H142440   4.660   0.012  14.591  0.7726 -1.1490  0.1699
 6983TIP3    H242441   4.644   0.061  14.449 -1.5271 -2.1112  0.0557
 6984TIP3   OH242442   3.091   5.679  12.367  0.0270 -0.2158 -0.1149
 6984TIP3    H142443   3.173   5.655  12.325  0.5384 -0.8614  1.1780
 6984TIP3    H242444   3.089   5.774  12.365  1.5396 -0.1235  1.1066
 6985TIP3   OH242445   5.615   1.326  14.017 -0.1244 -0.1420 -0.4852
 6985TIP3    H142446   5.573   1.241  14.031  0.0205 -0.3439 -1.2138
 6985TIP3    H242447   5.704   1.305  13.990 -0.1582  0.2330 -0.9074
 6986TIP3   OH242448   6.802   0.110  16.929  0.2763 -0.8518  0.0053
 6986TIP3    H142449   6.770   0.139  16.844  0.9002 -2.1144 -0.6846
 6986TIP3    H242450   6.897   0.123  16.926  0.2607 -0.5045  0.6809
 6987TIP3   OH242451   3.576   1.732  15.668  0.1123 -0.1527  0.0606
 6987TIP3    H142452   3.552   1.810  15.618 -0.4754  0.7169  1.6237
 6987TIP3    H242453   3.503   1.672  15.654 -0.4246  0.3909  0.5028
 6988TIP3   OH242454   6.691   2.983  16.160 -0.4520 -0.0489  0.2582
 6988TIP3    H142455   6.611   2.934  16.179 -1.1595  0.4036 -1.3503
 6988TIP3    H242456   6.761   2.919  16.167 -1.1198 -0.7798  0.3185
 6989TIP3   OH242457   1.293   3.418   2.508  0.2203  0.6264  0.0003
 6989TIP3    H142458   1.227   3.460   2.453  1.5859  1.4885 -1.0577
 6989TIP3    H242459   1.314   3.483   2.575  0.1159  0.4233  0.2310
 6990TIP3   OH242460   1.421   6.494   3.765 -0.4186 -0.4619 -0.2046
 6990TIP3    H142461   1.488   6.430   3.791 -0.6770 -0.1045  1.4077
 6990TIP3    H242462   1.418   6.557   3.836 -0.9960  0.7257 -1.2360
 6991TIP3   OH242463   1.178   0.636  15.489  0.0488  0.3298 -0.5127
 6991TIP3    H142464   1.253   0.576  15.483  0.6709  1.0188  0.2296
 6991TIP3    H242465   1.176   0.663  15.580  0.0868  1.8254 -0.9398
 6992TIP3   OH242466   6.350   3.484  13.406 -0.4215  0.2774  0.4776
 6992TIP3    H142467   6.393   3.431  13.338 -0.8038  1.0849 -0.4259
 6992TIP3    H242468   6.337   3.424  13.479  2.8500  0.1407  1.1095
 6993TIP3   OH242469   4.461   0.651  16.821 -0.1816  0.0504  0.7304
 6993TIP3    H142470   4.534   0.663  16.882  0.1780 -1.8552  0.7217
 6993TIP3    H242471   4.487   0.701  16.743  0.0068  1.3103  1.5586
 6994TIP3   OH242472   4.890   5.789   2.230 -0.2288 -0.6647 -0.0973
 6994TIP3    H142473   4.801   5.802   2.196 -0.0522  0.1967 -0.2619
 6994TIP3    H242474   4.918   5.706   2.192 -1.0941 -1.1198  0.2412
 6995TIP3   OH242475   4.554   0.950  14.403 -0.3359  0.5980  0.4457
 6995TIP3    H142476   4.561   1.044  14.416 -1.7485  0.6553  0.9642
 6995TIP3    H242477   4.462   0.929  14.423 -0.9983 -0.3869 -2.9553
 6996TIP3   OH242478   3.180   6.098  11.209  0.0383 -0.0652 -0.0252
 6996TIP3    H142479   3.134   6.087  11.126 -3.0078  2.9459  1.0404
 6996TIP3    H242480   3.153   6.024  11.262 -2.0413  0.5346 -0.1600
 6997TIP3   OH242481   2.432   1.385  17.197  0.2103 -0.1691  0.2968
 6997TIP3    H142482   2.480   1.318  17.149 -0.6534 -0.3144 -0.3668
 6997TIP3    H242483   2.417   1.346  17.283 -0.5188 -0.9411 -0.1688
 6998TIP3   OH242484   4.112   3.389   3.854 -0.2056  0.2147 -0.0371
 6998TIP3    H142485   4.161   3.353   3.928 -0.5894  1.4923  0.8808
 6998TIP3    H242486   4.172   3.449   3.811  0.2416 -1.0365 -1.2058
 6999TIP3   OH242487   0.977   0.035  17.154  0.1935  0.2161 -0.6233
 6999TIP3    H142488   0.936   0.115  17.187 -0.4245 -0.0227 -0.8127
 6999TIP3    H242489   1.047   0.016  17.217  1.6408  1.9747 -1.5933
 7000TIP3   OH242490   1.771   6.241  13.665  0.5120  0.6331 -0.0541
 7000TIP3    H142491   1.713   6.210  13.595  1.6124  0.7044 -1.0230
 7000TIP3    H242492   1.818   6.163  13.694  1.3643  0.9064 -0.6626
 7001TIP3   OH242493   6.148   0.355   1.131  0.3102  0.1867 -0.0754
 7001TIP3    H142494   6.200   0.355   1.051  0.4300  0.9573 -0.0061
 7001TIP3    H242495   6.058   0.347   1.101  0.4458 -1.0063 -0.2038
 7002TIP3   OH242496   4.442   2.319   4.446 -0.0522  0.0531  0.1610
 7002TIP3    H142497   4.516   2.306   4.387  0.3957  0.7386  0.5460
 7002TIP3    H242498   4.386   2.243   4.434 -0.9244  1.0169 -2.5125
 7003TIP3   OH242499   5.128   2.924  14.494 -0.0459  0.0020 -0.0088
 7003TIP3    H142500   5.102   2.854  14.554  0.7723  1.0278  1.6317
 7003TIP3    H242501   5.055   2.932  14.433 -0.5572 -1.6399  0.3568
 7004TIP3   OH242502   2.840   4.348  15.739 -0.2461  0.4389  0.7463
 7004TIP3    H142503   2.773   4.375  15.802  0.0128  0.2906  1.0920
 7004TIP3    H242504   2.922   4.351  15.789 -0.0972 -0.1137  0.5418
 7005TIP3   OH242505   3.054   2.583  15.396  0.2135 -0.1589  0.1912
 7005TIP3    H142506   3.011   2.661  15.431 -0.7730 -1.1478  1.2554
 7005TIP3    H242507   3.061   2.600  15.302  1.3636  1.8176  0.5676
 7006TIP3   OH242508   5.041   0.361   0.247  0.2651  0.1756  0.1028
 7006TIP3    H142509   4.968   0.392   0.300  1.8967  1.5045  1.7010
 7006TIP3    H242510   5.016   0.273   0.220 -2.9146  1.4094 -1.4280
 7007TIP3   OH242511   0.178   5.579  12.235  0.1279 -0.4373  0.0381
 7007TIP3    H142512   0.186   5.542  12.323  0.5102  1.0129  0.6404
 7007TIP3    H242513   0.123   5.657  12.247 -0.4694 -0.6517 -1.1493
 7008TIP3   OH242514   3.723   0.430  13.650 -0.1656 -0.0676  0.0661
 7008TIP3    H142515   3.761   0.348  13.681 -1.8333 -0.3412  1.5075
 7008TIP3    H242516   3.724   0.421  13.554  2.3721 -0.4541  0.0513
 7009TIP3   OH242517   4.191   3.260   0.544 -0.5939  0.1573 -0.1035
 7009TIP3    H142518   4.239   3.184   0.576  1.1598  1.7700  1.3485
 7009TIP3    H242519   4.258   3.317   0.506 -1.7385  1.3357 -0.4416
 7010TIP3   OH242520   4.335   2.574   2.978  0.2158 -0.2806 -0.4808
 7010TIP3    H142521   4.308   2.558   3.068 -0.0843 -1.3109 -0.7437
 7010TIP3    H242522   4.254   2.586   2.930  0.3719  0.1683 -0.6344
 7011TIP3   OH242523   4.052   2.797   4.725  0.6149  0.1331  0.1293
 7011TIP3    H142524   4.045   2.703   4.709  2.5493  0.2640 -2.0139
 7011TIP3    H242525   4.074   2.804   4.818  0.7829 -1.5757  0.2476
 7012TIP3   OH242526   4.026   5.347  13.424 -0.4348 -0.7328 -0.1533
 7012TIP3    H142527   4.013   5.372  13.516  0.0610  0.2821 -0.3484
 7012TIP3    H242528   4.084   5.271  13.427  0.8886  0.2627  0.3237
 7013TIP3   OH242529   2.252   6.571   0.228 -0.4952  0.7274  0.2387
 7013TIP3    H142530   2.221   6.632   0.161  0.5735  2.6137  1.3554
 7013TIP3    H242531   2.303   6.626   0.288  1.2670 -1.4424  0.8509
 7014TIP3   OH242532   6.093   6.046   1.591 -0.2911  0.1004 -0.2615
 7014TIP3    H142533   6.119   5.973   1.536  2.6383  1.7444 -1.2545
 7014TIP3    H242534   6.158   6.048   1.661 -1.5202  0.5800  0.9272
 7015TIP3   OH242535   3.617   5.687   2.503  0.0360  0.5484  0.1566
 7015TIP3    H142536   3.535   5.646   2.531  0.4859 -0.5244 -0.0551
 7015TIP3    H242537   3.589   5.761   2.448 -0.7834 -0.3103 -0.6092
 7016TIP3   OH242538   4.631   6.197  13.660 -1.2740  0.0104 -0.5413
 7016TIP3    H142539   4.579   6.276  13.675  0.7459  1.3715 -0.3617
 7016TIP3    H242540   4.623   6.181  13.566  1.1341  2.6241 -1.3205
 7017TIP3   OH242541   2.686   3.802   1.953 -0.0789 -0.2163  0.2660
 7017TIP3    H142542   2.622   3.731   1.957  1.6665 -1.9769 -0.6908
 7017TIP3    H242543   2.703   3.813   1.859  0.2277  0.9617  0.4473
 7018TIP3   OH242544   4.404   2.322  14.940 -0.3776 -0.0561  0.1531
 7018TIP3    H142545   4.321   2.336  14.896 -2.0382 -0.4305  2.8842
 7018TIP3    H242546   4.395   2.235  14.981  1.2425 -0.0009  0.7173
 7019TIP3   OH242547   2.123   3.727   0.253 -0.2314 -0.0914  0.4614
 7019TIP3    H142548   2.064   3.702   0.324  0.3142 -0.0790  0.9220
 7019TIP3    H242549   2.094   3.675   0.178  1.5622 -3.0657  1.6604
 7020TIP3   OH242550   5.153   5.778  11.674 -0.3726 -1.0150 -0.0968
 7020TIP3    H142551   5.110   5.822  11.600  0.1967  1.3882  0.9240
 7020TIP3    H242552   5.115   5.819  11.752  0.2855 -2.2821  0.9194
 7021TIP3   OH242553   4.553   1.540  15.704 -0.1470  0.4292  0.0496
 7021TIP3    H142554   4.551   1.448  15.730 -1.4724  0.4612  0.1418
 7021TIP3    H242555   4.592   1.585  15.779  0.1259 -0.0063  0.1727
 7022TIP3   OH242556   4.569   2.525  12.388  0.4084  0.7122 -0.3996
 7022TIP3    H142557   4.603   2.471  12.459  0.7343 -0.8155 -1.6652
 7022TIP3    H242558   4.605   2.486  12.308 -0.2722  2.1281 -1.4485
 7023TIP3   OH242559   0.913   5.637  15.598 -0.6970 -0.9764  0.2392
 7023TIP3    H142560   0.912   5.675  15.685 -3.4383 -0.5894  0.1110
 7023TIP3    H242561   0.980   5.686  15.551 -1.2079  0.8215  1.2985
 7024TIP3   OH242562   6.514   0.863  16.480 -0.2104  0.6868  0.0454
 7024TIP3    H142563   6.439   0.921  16.465 -0.5545  0.6219  1.3643
 7024TIP3    H242564   6.501   0.830  16.569  1.5816  0.9471  0.4420
 7025TIP3   OH242565   3.574   0.440   2.011  0.0279  0.0133  0.2748
 7025TIP3    H142566   3.595   0.521   2.057  4.0596 -1.4512  1.4906
 7025TIP3    H242567   3.495   0.407   2.054 -0.3080  2.1125  1.3497
 7026TIP3   OH242568   4.101   4.573   4.752  0.0512  0.0011  0.8054
 7026TIP3    H142569   4.159   4.617   4.691 -0.5267  0.6467  0.7054
 7026TIP3    H242570   4.106   4.626   4.832 -1.2991  0.7878  0.4099
 7027TIP3   OH242571   0.776   5.258   0.792 -0.4775  0.2427  0.1645
 7027TIP3    H142572   0.738   5.334   0.748  1.9963  0.9359 -0.9487
 7027TIP3    H242573   0.763   5.186   0.730 -1.0943  0.1539  0.3812
 7028TIP3   OH242574   0.352   1.410  11.399 -0.1846 -0.1715 -0.1204
 7028TIP3    H142575   0.323   1.437  11.313 -1.1233  0.8922  0.5043
 7028TIP3    H242576   0.281   1.356  11.433  0.2407 -0.7067 -0.0536
 7029TIP3   OH242577   4.467   3.055   3.557 -0.0527  0.7748  0.5432
 7029TIP3    H142578   4.527   2.992   3.597  0.3204 -0.2153 -1.4414
 7029TIP3    H242579   4.403   3.075   3.626 -0.1962 -1.7879  1.2636
 7030TIP3   OH242580   5.352   4.733  12.329 -0.0506  0.2793  0.2372
 7030TIP3    H142581   5.406   4.665  12.291 -0.1241 -0.7888  1.9384
 7030TIP3    H242582   5.314   4.693  12.408 -1.3785  1.7666  0.4091
 7031TIP3   OH242583   2.604   3.810  14.860  0.3064 -0.0272  0.6401
 7031TIP3    H142584   2.555   3.732  14.888 -1.5321  1.0404  0.4914
 7031TIP3    H242585   2.695   3.790  14.884 -0.3769 -1.4754  2.2730
 7032TIP3   OH242586   1.982   4.749   5.837  0.4209 -0.0788  0.0185
 7032TIP3    H142587   2.063   4.714   5.872  0.8991  0.2514 -0.7268
 7032TIP3    H242588   2.006   4.783   5.750 -0.3210  0.8025  0.1441
 7033TIP3   OH242589   5.504   2.844  13.182  0.0107 -0.0428  0.3933
 7033TIP3    H142590   5.593   2.866  13.154  0.0844  0.4353  0.9760
 7033TIP3    H242591   5.512   2.757  13.220  0.2923  0.1229  0.7198
 7034TIP3   OH242592   1.860   0.790   4.777 -0.1696  0.1662 -0.1915
 7034TIP3    H142593   1.951   0.763   4.767 -0.0432 -0.1024  1.4817
 7034TIP3    H242594   1.827   0.737   4.849 -1.8953 -0.2946 -1.2435
 7035TIP3   OH242595   6.552   6.239   2.967 -0.4350  0.5552  0.0836
 7035TIP3    H142596   6.612   6.211   3.036 -1.6357 -0.3122  0.8147
 7035TIP3    H242597   6.600   6.307   2.919  1.2649 -0.3807  0.3907
 7036TIP3   OH242598   6.290   5.433  13.981 -0.4985 -0.7825  0.2334
 7036TIP3    H142599   6.306   5.499  14.049 -3.2500  0.2958 -0.0290
 7036TIP3    H242600   6.305   5.349  14.025 -0.8432 -0.0643  1.7844
 7037TIP3   OH242601   0.476   3.170  16.216  0.4991 -0.4630 -0.2292
 7037TIP3    H142602   0.403   3.120  16.178  0.5145 -2.4563  2.1685
 7037TIP3    H242603   0.549   3.155  16.156  0.4944 -3.4212  0.3914
 7038TIP3   OH242604   5.986   1.514   4.893  0.5735 -0.6660  0.2986
 7038TIP3    H142605   5.982   1.469   4.809  0.5773 -0.7894  0.3648
 7038TIP3    H242606   5.928   1.464   4.951 -1.6237  0.9551 -0.3584
 7039TIP3   OH242607   2.115   5.844   5.685 -0.3885  0.0647  0.3314
 7039TIP3    H142608   2.182   5.777   5.669 -1.0750 -0.6559  0.4269
 7039TIP3    H242609   2.079   5.822   5.771  0.5771  1.6053  1.1605
 7040TIP3   OH242610   3.960   1.041  13.624  0.3632  0.2373 -0.0675
 7040TIP3    H142611   3.982   1.130  13.597 -2.7936  1.0125 -0.5111
 7040TIP3    H242612   3.887   1.016  13.567 -1.1080 -1.2779  2.2980
 7041TIP3   OH242613   4.144   4.435   5.642 -0.0009  0.6043 -0.4402
 7041TIP3    H142614   4.174   4.510   5.693  0.1278  0.4094 -0.2268
 7041TIP3    H242615   4.112   4.373   5.708  2.5379 -0.7563 -0.3492
 7042TIP3   OH242616   6.395   4.043   3.413 -0.6316 -0.2880  0.2024
 7042TIP3    H142617   6.301   4.033   3.396 -0.6126 -1.0509  0.4856
 7042TIP3    H242618   6.402   4.042   3.508 -0.2058 -1.7258  0.1823
 7043TIP3   OH242619   2.485   5.044   1.084 -0.1540  0.1935  0.5883
 7043TIP3    H142620   2.536   5.066   1.162  3.2783  0.9473 -1.6302
 7043TIP3    H242621   2.488   5.123   1.030  3.0235 -1.8992 -2.8578
 7044TIP3   OH242622   4.741   5.289   1.753  0.4132  0.3047 -0.2105
 7044TIP3    H142623   4.819   5.300   1.808  0.0457  2.1310  0.0002
 7044TIP3    H242624   4.753   5.352   1.681 -0.6280  0.2412 -0.4611
 7045TIP3   OH242625   5.329   6.723  13.692  0.3555  0.6717 -0.3764
 7045TIP3    H142626   5.332   6.644  13.747  0.1853 -0.0871 -1.4320
 7045TIP3    H242627   5.420   6.753  13.690  0.3996  0.5888  0.1406
 7046TIP3   OH242628   6.362   0.517  15.426  0.0630 -0.3678  0.3482
 7046TIP3    H142629   6.313   0.452  15.376 -0.8567  1.4570 -1.2605
 7046TIP3    H242630   6.409   0.568  15.359  2.0307 -0.3519  1.6649
 7047TIP3   OH242631   5.950   2.408  16.383  0.2900 -0.6758 -0.9522
 7047TIP3    H142632   5.943   2.366  16.469 -1.4310 -0.0185 -0.7356
 7047TIP3    H242633   6.042   2.433  16.377  0.3448 -0.2533  0.9418
 7048TIP3   OH242634   2.189   0.107   3.709 -0.4374 -0.1791 -0.1861
 7048TIP3    H142635   2.206   0.026   3.661 -0.8700  0.1025 -0.8273
 7048TIP3    H242636   2.275   0.138   3.736  0.3121  1.5646 -3.9248
 7049TIP3   OH242637   1.032   5.146   2.185  0.3046 -0.5255  0.1482
 7049TIP3    H142638   0.970   5.215   2.159  1.6606  0.5319 -0.3918
 7049TIP3    H242639   0.979   5.066   2.188 -0.9213  0.1990 -1.0715
 7050TIP3   OH242640   1.325   3.389  12.202  0.1883 -0.3225  0.0291
 7050TIP3    H142641   1.325   3.308  12.253  1.9442 -0.3891 -0.0430
 7050TIP3    H242642   1.417   3.412  12.192 -0.2644  1.6752 -0.0043
 7051TIP3   OH242643   2.540   3.756   2.334 -0.7026  0.3763  0.3336
 7051TIP3    H142644   2.610   3.706   2.377 -0.3213  1.0064  0.4690
 7051TIP3    H242645   2.587   3.821   2.281 -1.1336 -0.9599 -1.7928
 7052TIP3   OH242646   6.657   6.599  16.203 -0.2561 -0.0324  0.2691
 7052TIP3    H142647   6.602   6.537  16.155 -0.0823 -0.5586  0.7409
 7052TIP3    H242648   6.595   6.648  16.257 -0.3175 -0.2909  0.4341
 7053TIP3   OH242649   6.737   1.619   4.317 -0.3604  0.1839  0.0700
 7053TIP3    H142650   6.672   1.595   4.251 -1.8025 -0.0361  1.4968
 7053TIP3    H242651   6.813   1.564   4.297 -0.4077  0.7396 -1.8861
 7054TIP3   OH242652   6.069   0.391  13.749  0.1405  0.3286  0.4090
 7054TIP3    H142653   6.148   0.445  13.749  0.3790 -0.0060  0.9436
 7054TIP3    H242654   6.032   0.403  13.836  0.9985 -1.4741  1.0838
 7055TIP3   OH242655   5.334   6.613  11.496  0.0538 -0.0904 -0.4736
 7055TIP3    H142656   5.278   6.622  11.420  0.2516  1.6561 -0.4523
 7055TIP3    H242657   5.352   6.703  11.524  1.8960 -0.6167  0.2215
 7056TIP3   OH242658   4.448   6.392   1.956  0.1077  0.6867 -0.7480
 7056TIP3    H142659   4.442   6.385   1.860  3.6896 -0.1043 -1.0354
 7056TIP3    H242660   4.523   6.450   1.971  0.4574 -0.2659  1.5674
 7057TIP3   OH242661   4.213   5.945  10.961 -0.2839 -0.0417 -0.1925
 7057TIP3    H142662   4.288   5.910  10.912  1.3234  1.4862  1.0189
 7057TIP3    H242663   4.155   5.980  10.893 -0.6820 -2.5235 -1.2575
 7058TIP3   OH242664   5.191   5.674   4.034  0.1424 -0.2232  0.7385
 7058TIP3    H142665   5.261   5.678   3.968 -0.5298 -0.2377  0.0122
 7058TIP3    H242666   5.187   5.582   4.059 -1.9760 -0.9835 -1.8686
 7059TIP3   OH242667   2.131   2.203   3.941  0.6607  0.9409  0.6923
 7059TIP3    H142668   2.057   2.240   3.893  1.2604  3.8855  1.8492
 7059TIP3    H242669   2.096   2.122   3.978 -1.7263  1.7680  0.4538
 7060TIP3   OH242670   4.588   0.006  13.106  0.6272 -0.2115  0.3298
 7060TIP3    H142671   4.570  -0.058  13.037 -0.0993  0.1117  0.2087
 7060TIP3    H242672   4.652  -0.038  13.163  0.9480 -0.6254 -0.3347
 7061TIP3   OH242673   4.077   3.867  11.236 -0.4871 -0.0972  0.2455
 7061TIP3    H142674   4.115   3.780  11.229  0.6823  0.2368  1.8090
 7061TIP3    H242675   4.131   3.922  11.179 -0.3929 -0.1638  0.2707
 7062TIP3   OH242676   2.002   6.685   1.960  0.3255  0.3489  0.1363
 7062TIP3    H142677   2.061   6.759   1.975  0.7569  0.4448 -1.7446
 7062TIP3    H242678   1.918   6.725   1.940  0.2466  0.2959  0.3645
 7063TIP3   OH242679   6.394   2.459  11.602  0.1209 -0.3073  0.2993
 7063TIP3    H142680   6.337   2.399  11.554  0.2450 -0.5465  0.4491
 7063TIP3    H242681   6.435   2.405  11.669  1.5567 -0.4515 -0.6467
 7064TIP3   OH242682   1.710   0.847  11.890  0.1303  0.3908  0.5474
 7064TIP3    H142683   1.654   0.918  11.859  0.4067  0.5466  0.3940
 7064TIP3    H242684   1.796   0.866  11.852 -0.0060 -0.5336 -0.2582
 7065TIP3   OH242685   5.957   6.607  14.731  0.2547  0.1770  0.1504
 7065TIP3    H142686   5.871   6.574  14.757 -0.1708  0.4355 -0.8967
 7065TIP3    H242687   5.994   6.642  14.813 -0.5946 -0.0117  0.6308
 7066TIP3   OH242688   5.763   2.809  16.730 -0.6659 -0.5485  0.8387
 7066TIP3    H142689   5.763   2.905  16.726  0.1932 -0.5859 -0.7946
 7066TIP3    H242690   5.726   2.789  16.816 -1.5739  1.2323  0.9137
 7067TIP3   OH242691   5.459   2.178   4.424 -0.4901  0.8338  0.1699
 7067TIP3    H142692   5.438   2.267   4.454 -1.4103  0.7859 -0.2811
 7067TIP3    H242693   5.401   2.121   4.474  2.4144  0.0664  3.0164
 7068TIP3   OH242694   2.901   5.629  12.976 -0.1075 -0.3019 -0.2399
 7068TIP3    H142695   2.933   5.543  13.000 -2.2390 -0.8649  0.8334
 7068TIP3    H242696   2.901   5.629  12.880  0.1332 -1.4074 -0.2505
 7069TIP3   OH242697   5.658   6.316  14.426 -0.6014  0.2884 -0.4469
 7069TIP3    H142698   5.641   6.307  14.520  0.7423  3.0178  0.1367
 7069TIP3    H242699   5.572   6.309  14.385 -1.2759 -0.3756  1.0169
 7070TIP3   OH242700   3.732   5.762   4.564  0.0855  0.2110  0.3413
 7070TIP3    H142701   3.813   5.778   4.611 -0.0651  0.0877  0.6475
 7070TIP3    H242702   3.677   5.715   4.627  0.3445 -1.0946 -0.3716
 7071TIP3   OH242703   3.558   4.766  11.602 -0.7981  0.5821  0.8103
 7071TIP3    H142704   3.618   4.840  11.610 -0.3149  0.2256  0.5588
 7071TIP3    H242705   3.576   4.730  11.516 -1.2721  0.3791  0.7947
 7072TIP3   OH242706   1.196   1.025   0.792 -0.2562 -0.1706 -0.5131
 7072TIP3    H142707   1.156   1.107   0.763  0.6384  0.8059  0.8634
 7072TIP3    H242708   1.276   1.053   0.837  0.1007 -1.8121 -0.0843
 7073TIP3   OH242709   3.390   0.601  13.521  0.4500  0.1525  0.6138
 7073TIP3    H142710   3.349   0.514  13.529  1.5991 -0.7442 -2.1905
 7073TIP3    H242711   3.324   0.654  13.476  1.0226 -0.3015 -0.7977
 7074TIP3   OH242712   4.142   4.366  11.551  0.0840  0.3634 -0.4853
 7074TIP3    H142713   4.148   4.295  11.615  1.7109  0.3247 -0.6581
 7074TIP3    H242714   4.058   4.351  11.507  0.3739 -1.4243 -0.4924
 7075TIP3   OH242715   2.041   1.954   4.059  0.0876 -0.3160 -0.2199
 7075TIP3    H142716   2.022   1.866   4.091  0.7375 -0.8597 -1.2852
 7075TIP3    H242717   2.042   2.009   4.137 -1.5124 -1.0294  0.3372
 7076TIP3   OH242718   4.092   3.757   5.848 -0.2478  0.3090  0.4783
 7076TIP3    H142719   4.111   3.664   5.844  1.8807  0.7033 -0.2695
 7076TIP3    H242720   4.116   3.783   5.937  0.0945  0.3135  0.3848
 7077TIP3   OH242721   2.954   5.348   4.187  0.2105 -0.2124 -0.6031
 7077TIP3    H142722   2.918   5.372   4.272 -0.7073 -1.6137 -0.5632
 7077TIP3    H242723   3.038   5.307   4.207  0.6650  0.7590 -0.4950
 7078TIP3   OH242724   0.065   4.161  12.669 -0.0734 -0.0882  0.3172
 7078TIP3    H142725  -0.028   4.176  12.654  0.0682  0.3109 -0.2243
 7078TIP3    H242726   0.097   4.245  12.702 -0.0590 -0.4699  1.3060
 7079TIP3   OH242727   1.256   3.846  17.192 -0.1525 -0.1107  0.1325
 7079TIP3    H142728   1.336   3.891  17.219  0.4993 -1.0298 -0.2294
 7079TIP3    H242729   1.233   3.792  17.268 -0.4555  0.1950  0.2558
 7080TIP3   OH242730   6.810   2.137  12.882  0.5784 -0.3569 -0.1547
 7080TIP3    H142731   6.880   2.073  12.883  0.4062 -0.5329  0.5363
 7080TIP3    H242732   6.781   2.144  12.973  0.6690  0.7771 -0.1932
 7081TIP3   OH242733   1.811   4.484   5.910 -0.5513 -0.5636 -0.1023
 7081TIP3    H142734   1.761   4.446   5.838 -0.1819 -0.8864 -0.1913
 7081TIP3    H242735   1.872   4.545   5.868 -2.2635  1.4447  0.1531
 7082TIP3   OH242736   3.907   4.913  14.601  0.1456  0.2288  0.4326
 7082TIP3    H142737   3.831   4.971  14.608 -0.6741 -0.7744  0.2307
 7082TIP3    H242738   3.968   4.945  14.667 -0.3093  1.2596  0.3794
 7083TIP3   OH242739   2.035   3.583   0.038  0.1687 -0.0247  0.4590
 7083TIP3    H142740   1.953   3.558  -0.006 -0.8531  1.1474  1.6326
 7083TIP3    H242741   2.098   3.593  -0.034 -0.7451 -0.7782 -0.4895
 7084TIP3   OH242742   5.092   3.866  13.508 -0.1106 -0.0066 -0.2040
 7084TIP3    H142743   5.047   3.935  13.556  0.3506 -0.4037  0.8241
 7084TIP3    H242744   5.178   3.902  13.488  0.2835 -0.4178  0.7009
 7085TIP3   OH242745   3.348   2.241   4.898  0.7388  0.0341  0.0636
 7085TIP3    H142746   3.270   2.189   4.882 -0.3970  1.5563  0.3505
 7085TIP3    H242747   3.314   2.328   4.922  2.5306  1.3979 -1.9788
 7086TIP3   OH242748   5.626   5.740   2.263 -0.3776 -0.1088  0.3892
 7086TIP3    H142749   5.565   5.668   2.277 -1.2264  0.5667  0.2160
 7086TIP3    H242750   5.648   5.734   2.170  0.6439 -0.9795  0.6681
 7087TIP3   OH242751   5.819   6.162  16.327  0.0900 -0.2219 -0.0001
 7087TIP3    H142752   5.892   6.200  16.376 -0.4459  0.6219  0.1778
 7087TIP3    H242753   5.775   6.105  16.390  0.5387 -0.6579 -0.0793
 7088TIP3   OH242754   3.606   1.719   1.347  0.4884  0.6282  0.0563
 7088TIP3    H142755   3.690   1.698   1.306  0.8710 -0.0593  1.1729
 7088TIP3    H242756   3.597   1.814   1.335  1.1049  0.6070 -0.6502
 7089TIP3   OH242757   6.123   2.255   0.732  0.2945  0.1115 -0.3628
 7089TIP3    H142758   6.211   2.264   0.768  0.1517 -1.0602  0.3206
 7089TIP3    H242759   6.065   2.274   0.806 -0.0019 -1.9310 -0.0243
 7090TIP3   OH242760   4.169   3.737   2.213  0.2250  0.1666  0.6201
 7090TIP3    H142761   4.234   3.722   2.281  0.4188 -1.4464  0.1103
 7090TIP3    H242762   4.089   3.757   2.261  0.8274  1.1365  1.2697
 7091TIP3   OH242763   0.883   3.019   6.382  0.1085 -0.7093 -0.1481
 7091TIP3    H142764   0.964   2.973   6.403 -0.8009 -2.1763  0.2771
 7091TIP3    H242765   0.850   3.049   6.467  0.8944  1.1562 -0.4547
 7092TIP3   OH242766   3.154   5.137  14.308  0.1509  0.1109  0.1825
 7092TIP3    H142767   3.207   5.216  14.315  0.8545 -0.4457  1.8159
 7092TIP3    H242768   3.217   5.067  14.293 -0.5229 -0.1081 -1.9433
 7093TIP3   OH242769   6.285   3.317  10.917  0.2707  0.3267  0.0413
 7093TIP3    H142770   6.304   3.411  10.909  1.4254  0.0618 -0.5042
 7093TIP3    H242771   6.237   3.296  10.837  1.9096  0.0222 -0.8931
 7094TIP3   OH242772   5.907   2.880   3.708  0.6865 -0.0812 -0.0341
 7094TIP3    H142773   5.954   2.900   3.626 -1.2226  0.6249 -1.0191
 7094TIP3    H242774   5.859   2.960   3.728  0.2887 -0.6132  1.2014
 7095TIP3   OH242775   4.469   4.966  10.442  0.1260  0.1471 -0.3841
 7095TIP3    H142776   4.426   4.993  10.361  1.4120  0.4674 -0.9937
 7095TIP3    H242777   4.419   4.891  10.472 -1.0601  0.7154 -0.8630
 7096TIP3   OH242778   3.195   6.792   1.783 -0.0461  0.0833 -0.0432
 7096TIP3    H142779   3.274   6.847   1.787 -0.4330  0.6177  0.3872
 7096TIP3    H242780   3.221   6.717   1.730  0.7638  0.2419  0.1123
 7097TIP3   OH242781   2.781   3.893   5.294 -0.5707 -0.0688  0.3399
 7097TIP3    H142782   2.724   3.851   5.229 -0.5699 -0.8746  0.8460
 7097TIP3    H242783   2.860   3.916   5.246  0.2086 -2.3475  0.4090
 7098TIP3   OH242784   1.529   5.633   2.099  0.4937 -0.2342 -0.9644
 7098TIP3    H142785   1.596   5.572   2.070  0.7372  0.4035 -1.7751
 7098TIP3    H242786   1.573   5.718   2.103  0.1111 -0.0575 -0.0422
 7099TIP3   OH242787   5.983   2.690  12.896 -0.4451 -0.2986 -0.8027
 7099TIP3    H142788   6.029   2.652  12.972  0.2664 -0.4606 -1.3039
 7099TIP3    H242789   5.913   2.627  12.877 -0.6745 -0.2224 -0.2431
 7100TIP3   OH242790   0.955   0.110   5.690 -0.0709 -0.6090  0.2796
 7100TIP3    H142791   0.942   0.199   5.658  0.2959 -0.9034 -0.7491
 7100TIP3    H242792   1.006   0.067   5.620 -0.7436 -1.7877  0.4885
 7101TIP3   OH242793   1.282   1.375   5.815  0.1002  0.3183 -0.0683
 7101TIP3    H142794   1.261   1.467   5.801 -0.7777  0.2778  0.8686
 7101TIP3    H242795   1.200   1.336   5.845  1.0440 -0.2193  2.0085
 7102TIP3   OH242796   2.860   4.115   1.019  0.5626 -0.0574  0.2574
 7102TIP3    H142797   2.914   4.067   1.082 -0.3046  0.0710  1.1083
 7102TIP3    H242798   2.913   4.192   0.997  1.0487 -0.3115  0.5073
 7103TIP3   OH242799   4.352   6.145  16.078 -0.1294 -0.3594 -0.0513
 7103TIP3    H142800   4.281   6.150  16.015 -1.0673 -0.0789  0.9796
 7103TIP3    H242801   4.331   6.213  16.143  0.8835 -0.5140  0.4637
 7104TIP3   OH242802   5.195   2.824  14.088 -0.0604 -0.5673 -0.4919
 7104TIP3    H142803   5.276   2.774  14.100 -0.3985 -1.3791 -1.4725
 7104TIP3    H242804   5.225   2.913  14.068  0.6242 -1.0464 -1.7012
 7105TIP3   OH242805   3.914   1.589  11.274  0.4192  0.1327  0.2172
 7105TIP3    H142806   3.937   1.597  11.182  2.2861 -2.5292  0.3310
 7105TIP3    H242807   3.977   1.645  11.320 -0.6181  1.5916 -0.0607
 7106TIP3   OH242808   3.498   5.611   1.238 -0.3887 -0.0069 -1.1386
 7106TIP3    H142809   3.521   5.703   1.229  0.8008 -0.1995 -0.3818
 7106TIP3    H242810   3.514   5.573   1.152  0.0473  0.3230 -1.2051
 7107TIP3   OH242811   3.320   1.280   0.907 -0.6451 -0.4276  0.1478
 7107TIP3    H142812   3.356   1.355   0.860 -1.3600 -0.6143 -0.7298
 7107TIP3    H242813   3.279   1.226   0.838 -3.3058  0.1669  1.1307
 7108TIP3   OH242814   1.479   5.014   0.094 -0.2682 -0.3630  0.4037
 7108TIP3    H142815   1.419   5.052   0.158 -1.0817 -0.8620 -0.0354
 7108TIP3    H242816   1.426   5.005   0.014  0.9807  1.1348 -0.6393
 7109TIP3   OH242817   2.527   6.034   3.708  0.4553 -0.6326  0.4081
 7109TIP3    H142818   2.432   6.031   3.714  0.3771  0.1885 -0.3250
 7109TIP3    H242819   2.548   5.975   3.635  0.5351 -0.9733  0.6996
 7110TIP3   OH242820   6.427   6.365  12.487 -0.0866  0.0502  1.0727
 7110TIP3    H142821   6.344   6.394  12.450 -0.8595 -2.1559  0.9133
 7110TIP3    H242822   6.452   6.290  12.433  1.9563  0.5696  1.2085
 7111TIP3   OH242823   4.225   5.362   5.548  0.0669 -0.0137  0.4922
 7111TIP3    H142824   4.301   5.392   5.597  0.0183  2.6489 -0.8941
 7111TIP3    H242825   4.201   5.436   5.493 -0.7151 -2.2955 -2.5374
 7112TIP3   OH242826   1.599   4.696  11.554 -0.3869  0.0302 -0.2042
 7112TIP3    H142827   1.633   4.687  11.644  3.0679  0.3953 -1.3236
 7112TIP3    H242828   1.603   4.607  11.519 -2.8110 -0.3239  0.2441
 7113TIP3   OH242829   2.504   1.787  14.028 -0.1011  0.2541 -0.1162
 7113TIP3    H142830   2.498   1.718  14.094 -0.6391 -2.0333 -2.3739
 7113TIP3    H242831   2.585   1.768  13.980 -0.8005  0.5174 -1.4481
 7114TIP3   OH242832   0.366   3.915  16.146  0.0672 -0.3571 -0.0213
 7114TIP3    H142833   0.461   3.923  16.155  0.1428 -1.5211  0.3757
 7114TIP3    H242834   0.336   3.892  16.234 -0.7476  1.2774  0.1603
 7115TIP3   OH242835   2.108   5.265  12.687 -0.2650 -0.3939  0.2074
 7115TIP3    H142836   2.181   5.244  12.628 -0.6628  1.3590 -0.9822
 7115TIP3    H242837   2.049   5.190  12.680  0.7309 -1.1978  0.1105
 7116TIP3   OH242838   0.243   6.050   5.787  0.0781  0.1317  0.3013
 7116TIP3    H142839   0.261   6.139   5.757 -0.2398 -0.0737 -0.5069
 7116TIP3    H242840   0.315   6.030   5.847  1.1256  0.2698 -0.8834
 7117TIP3   OH242841   2.536   3.949  13.964  0.3849 -0.1855 -0.1539
 7117TIP3    H142842   2.442   3.930  13.967  0.6965 -1.8775  2.8747
 7117TIP3    H242843   2.553   3.973  13.873 -2.9018 -0.1360 -0.8616
 7118TIP3   OH242844   2.396   1.144  15.996  0.2877 -0.0457 -0.4397
 7118TIP3    H142845   2.422   1.101  16.078 -0.5445  0.1105 -0.0900
 7118TIP3    H242846   2.305   1.118  15.983  0.2312  0.4261 -1.0013
 7119TIP3   OH242847   3.444   4.130   5.955  0.1750  0.2419  0.1369
 7119TIP3    H142848   3.358   4.091   5.970 -0.6754  1.3544 -1.5334
 7119TIP3    H242849   3.452   4.197   6.023 -1.4930  1.9393 -1.2311
 7120TIP3   OH242850   0.089   3.029   4.273 -0.2322 -0.4766  0.7811
 7120TIP3    H142851   0.081   2.976   4.193  0.4641 -0.6044  0.7887
 7120TIP3    H242852   0.183   3.037   4.286 -0.2887  1.4189  0.3512
 7121TIP3   OH242853   3.272   0.878   5.289  0.1464  0.0496 -0.1740
 7121TIP3    H142854   3.281   0.919   5.375  1.9002  3.0150 -1.5895
 7121TIP3    H242855   3.320   0.796   5.296  2.1949  1.2695  1.1385
 7122TIP3   OH242856   1.267   4.472  12.702 -0.3928 -0.3991  0.0950
 7122TIP3    H142857   1.182   4.468  12.659 -0.2297  0.1254 -0.2890
 7122TIP3    H242858   1.277   4.564  12.726  0.6036 -0.2019 -0.9682
 7123TIP3   OH242859   2.626   4.178   5.780 -0.2258 -0.1887 -0.1630
 7123TIP3    H142860   2.603   4.098   5.734  2.8301  0.1279 -2.5851
 7123TIP3    H242861   2.596   4.248   5.722  0.1964  0.3401  0.2512
 7124TIP3   OH242862   5.395   6.529  12.068 -0.3627  0.3453  0.4452
 7124TIP3    H142863   5.378   6.445  12.027  1.1215 -0.8591  2.1262
 7124TIP3    H242864   5.317   6.582  12.049 -1.8936 -1.8122  0.3977
 7125TIP3   OH242865   0.493   1.351  12.271  0.1178  0.2043  0.1284
 7125TIP3    H142866   0.428   1.355  12.201 -0.0987  0.3420  0.3384
 7125TIP3    H242867   0.572   1.318  12.228  0.7071  2.4889 -0.7110
 7126TIP3   OH242868   5.921   4.215  10.798 -0.0559 -0.3999 -0.0465
 7126TIP3    H142869   6.013   4.232  10.780 -0.5640  0.2759 -2.4376
 7126TIP3    H242870   5.877   4.297  10.774 -1.3286 -0.8666  0.6092
 7127TIP3   OH242871   4.120   1.532   1.964  0.7047  0.2420  0.6744
 7127TIP3    H142872   4.180   1.459   1.950 -0.2396 -0.0966 -2.4036
 7127TIP3    H242873   4.164   1.607   1.922  0.2070  0.6384  0.8519
 7128TIP3   OH242874   5.505   3.584   2.318  0.2537  0.6235 -0.1123
 7128TIP3    H142875   5.496   3.655   2.381  0.5274  1.6916 -1.2359
 7128TIP3    H242876   5.416   3.555   2.301 -0.0472  2.0662 -1.1365
 7129TIP3   OH242877   0.253   0.556  11.616 -0.3793  0.3055  0.3446
 7129TIP3    H142878   0.314   0.543  11.689 -0.7298  1.2370  0.8187
 7129TIP3    H242879   0.252   0.472  11.570  0.9904  0.1772  0.5305
 7130TIP3   OH242880   2.215   5.838  15.305 -0.6120  0.1972  0.0158
 7130TIP3    H142881   2.285   5.884  15.351 -0.0526 -2.0668  1.6469
 7130TIP3    H242882   2.236   5.848  15.212  0.6766  1.3345  0.4037
 7131TIP3   OH242883   5.982   2.949   3.466  0.0094  0.7598 -0.7188
 7131TIP3    H142884   6.014   2.888   3.398 -1.1806  0.5941 -1.1479
 7131TIP3    H242885   6.024   3.032   3.445 -0.8264  0.8698 -2.0599
 7132TIP3   OH242886   5.264   5.755  14.311 -0.2256  0.4470  0.0431
 7132TIP3    H142887   5.287   5.773  14.402 -2.0903 -0.7003  0.8077
 7132TIP3    H242888   5.173   5.724  14.315  0.3205 -1.7213 -1.9378
 7133TIP3   OH242889   0.596   3.600  12.045  0.1068 -0.5185 -0.8811
 7133TIP3    H142890   0.585   3.509  12.070  0.1899  0.1011  1.6067
 7133TIP3    H242891   0.619   3.597  11.952  2.7245 -3.1964 -0.2684
 7134TIP3   OH242892   1.991   0.486  16.083  0.2243 -0.8439 -0.1667
 7134TIP3    H142893   1.958   0.571  16.055 -1.1252 -1.1977  0.2907
 7134TIP3    H242894   1.924   0.452  16.142  1.9851 -1.0327  1.8788
 7135TIP3   OH242895   5.101   2.316   3.331  0.0933  0.0215 -0.5196
 7135TIP3    H142896   5.176   2.371   3.305 -1.0331  1.4496 -0.8626
 7135TIP3    H242897   5.046   2.313   3.253 -0.8374  0.0710  0.1228
 7136TIP3   OH242898   5.516   4.430  14.436 -0.4111 -0.2767  0.4296
 7136TIP3    H142899   5.502   4.370  14.363  0.7527  0.1563 -0.1749
 7136TIP3    H242900   5.603   4.467  14.421 -1.0994  1.5912  0.7821
 7137TIP3   OH242901   1.713   5.227   5.138  0.0314 -0.2711 -0.4423
 7137TIP3    H142902   1.638   5.278   5.107 -1.2741 -1.8005  0.0425
 7137TIP3    H242903   1.699   5.139   5.102  2.3358 -0.3051 -1.4652
 7138TIP3   OH242904   2.036   2.958  15.825  0.7713  0.9457 -0.2024
 7138TIP3    H142905   2.004   2.917  15.905  2.3011  1.3103  0.6303
 7138TIP3    H242906   1.964   3.013  15.795 -0.8577 -1.2607 -0.6284
 7139TIP3   OH242907   3.862   3.327  11.558 -0.0448 -0.0766 -0.3183
 7139TIP3    H142908   3.930   3.293  11.617 -0.0695  0.1660 -0.1450
 7139TIP3    H242909   3.793   3.261  11.559 -0.8355  0.7041  1.3067
 7140TIP3   OH242910   5.952   2.148   4.385 -0.3037 -0.5234 -0.2559
 7140TIP3    H142911   5.934   2.237   4.353  0.8521 -0.5982 -1.1737
 7140TIP3    H242912   6.021   2.159   4.450 -1.6630 -0.5371  1.2412
 7141TIP3   OH242913   0.731   5.482   1.548  0.4525 -0.8792 -0.1791
 7141TIP3    H142914   0.638   5.470   1.564  0.6124 -0.4565  1.2019
 7141TIP3    H242915   0.757   5.553   1.607  1.5864 -0.7543 -0.7880
 7142TIP3   OH242916   6.011   0.202  11.423 -0.1379  0.1253  0.4263
 7142TIP3    H142917   5.953   0.142  11.471 -0.1248 -1.5859 -1.5253
 7142TIP3    H242918   6.030   0.155  11.341  1.6389  1.9228 -0.2564
 7143TIP3   OH242919   1.323   3.730  12.622  0.1028  0.2687  0.2299
 7143TIP3    H142920   1.343   3.752  12.713  0.2989  3.2429 -0.4104
 7143TIP3    H242921   1.393   3.773  12.572 -0.0103 -1.2950 -1.3539
 7144TIP3   OH242922   1.025   3.783  10.935  0.7121 -0.8294  0.7342
 7144TIP3    H142923   0.930   3.771  10.936  0.5401  0.2974  2.2406
 7144TIP3    H242924   1.041   3.854  10.998  2.2545  1.2422 -1.7444
 7145TIP3   OH242925   2.405   3.442   6.142  0.3885  0.1326 -0.3618
 7145TIP3    H142926   2.459   3.494   6.202 -0.0588 -1.6702  1.7367
 7145TIP3    H242927   2.467   3.388   6.094  0.6327 -0.2574  0.3676
 7146TIP3   OH242928   4.169   0.446  16.297  0.0617 -0.4384  0.0526
 7146TIP3    H142929   4.217   0.504  16.356 -0.9480  2.0329 -1.4263
 7146TIP3    H242930   4.084   0.435  16.338  0.3825 -1.2805  0.5309
 7147TIP3   OH242931   3.730   3.266   2.500 -0.1150 -0.5521  0.1557
 7147TIP3    H142932   3.787   3.321   2.446 -0.4443 -0.3184  0.0404
 7147TIP3    H242933   3.700   3.325   2.570  1.1837 -1.1408  1.2456
 7148TIP3   OH242934   5.637   0.220  15.901  0.4339  0.2476 -0.0538
 7148TIP3    H142935   5.688   0.139  15.898  0.5579  0.3368 -0.3132
 7148TIP3    H242936   5.575   0.205  15.973 -0.5248 -0.6624 -1.0345
 7149TIP3   OH242937   2.810   3.932  15.841 -0.0394  0.3652 -0.3918
 7149TIP3    H142938   2.831   3.992  15.769  2.3358 -0.1393 -0.1869
 7149TIP3    H242939   2.754   3.866  15.801 -0.7196  1.3886 -1.1882
 7150TIP3   OH242940   1.847   4.462   4.155  0.0737  0.6742 -0.0156
 7150TIP3    H142941   1.801   4.421   4.081 -0.3795  1.2359 -0.0544
 7150TIP3    H242942   1.921   4.508   4.114 -0.5777  1.5691 -0.2123
 7151TIP3   OH242943   3.033   2.316   0.926  0.5122  0.0890 -0.2989
 7151TIP3    H142944   3.033   2.355   1.013 -0.1503 -0.8128  0.1279
 7151TIP3    H242945   3.123   2.285   0.913  0.0405 -2.2339  1.2572
 7152TIP3   OH242946   1.491   5.020   3.569  0.7352 -0.2274  0.1596
 7152TIP3    H142947   1.489   5.008   3.474 -0.2433 -0.7262  0.2253
 7152TIP3    H242948   1.399   5.033   3.594  1.0728  0.8453  0.9322
 7153TIP3   OH242949   5.251   5.467   4.974 -0.3691  0.1412  0.2982
 7153TIP3    H142950   5.275   5.533   4.909 -0.5575  1.1983  1.2609
 7153TIP3    H242951   5.197   5.404   4.927  2.6277 -1.2717 -1.4933
 7154TIP3   OH242952   0.172   0.209  14.934  0.2174  0.0822  0.2971
 7154TIP3    H142953   0.259   0.246  14.919  0.5729 -1.1884 -0.9712
 7154TIP3    H242954   0.123   0.230  14.855 -0.5544  0.5255  0.8782
 7155TIP3   OH242955   2.365   2.016   1.281 -0.6493  0.9030  0.3907
 7155TIP3    H142956   2.451   2.023   1.324 -0.4240 -2.1673  0.6865
 7155TIP3    H242957   2.335   2.106   1.273  2.7174  2.1353  0.0263
 7156TIP3   OH242958   2.582   3.550   5.729  0.3586  0.1083 -0.2634
 7156TIP3    H142959   2.533   3.469   5.717  0.5900 -0.1881  0.6694
 7156TIP3    H242960   2.639   3.532   5.805 -0.6380  1.6143  0.9041
 7157TIP3   OH242961   0.345   4.810  13.721  0.8393  0.3093 -0.4636
 7157TIP3    H142962   0.250   4.814  13.712  0.7017  1.7918  1.1043
 7157TIP3    H242963   0.374   4.901  13.716  2.2669 -0.1760 -1.5481
 7158TIP3   OH242964   1.447   2.841   2.654  0.3054 -0.2042 -0.3495
 7158TIP3    H142965   1.385   2.880   2.592  0.2760  0.0555 -0.1583
 7158TIP3    H242966   1.405   2.759   2.680  0.0955 -0.0855 -0.3091
 7159TIP3   OH242967   5.990   6.562  12.512  0.1034 -0.3720  0.9031
 7159TIP3    H142968   5.937   6.484  12.495 -0.3228  0.1252 -0.1230
 7159TIP3    H242969   6.078   6.537  12.483 -0.1686 -0.2675 -0.0464
 7160TIP3   OH242970   0.733   2.756   3.569  0.4320  0.0036 -0.9290
 7160TIP3    H142971   0.786   2.831   3.597 -1.1625  0.4941  0.9442
 7160TIP3    H242972   0.712   2.775   3.478  2.8868  0.0928 -1.5584
 7161TIP3   OH242973   1.860   0.556   0.133  0.0542 -0.2038 -0.3847
 7161TIP3    H142974   1.852   0.610   0.054  0.3366  0.0642 -0.2306
 7161TIP3    H242975   1.775   0.511   0.140 -0.6262  1.1182  0.1402
 7162TIP3   OH242976   5.934   3.900  14.197  0.3937  0.5699 -0.0297
 7162TIP3    H142977   6.029   3.912  14.194  0.4466  0.1442 -0.1811
 7162TIP3    H242978   5.919   3.844  14.273  0.2155  1.0539  0.2924
 7163TIP3   OH242979   3.097   0.180   4.543 -0.5332 -0.1656 -0.2365
 7163TIP3    H142980   3.007   0.150   4.556 -1.4610  2.0249 -1.0406
 7163TIP3    H242981   3.103   0.195   4.448 -0.2949  2.3315  0.0940
 7164TIP3   OH242982   3.793   2.172  14.129 -0.1117 -0.1788  0.1503
 7164TIP3    H142983   3.849   2.242  14.163  0.1393 -0.1402 -0.3421
 7164TIP3    H242984   3.849   2.123  14.069  0.4937 -2.2911  2.2683
 7165TIP3   OH242985   0.705   4.171   6.151  0.1116  0.6675 -0.3999
 7165TIP3    H142986   0.717   4.222   6.071 -3.4243  0.1429 -1.4044
 7165TIP3    H242987   0.653   4.227   6.208 -0.0434 -0.1558  0.2892
 7166TIP3   OH242988   5.804   2.376   5.892 -0.5709 -0.1553  0.2349
 7166TIP3    H142989   5.856   2.456   5.887 -1.4311  0.3201 -3.0684
 7166TIP3    H242990   5.718   2.401   5.859 -1.4043 -2.0636  0.8313
 7167TIP3   OH242991   3.100   3.830  14.855  0.3136 -0.4615  0.3171
 7167TIP3    H142992   3.125   3.919  14.830  0.4847  0.1196  2.3518
 7167TIP3    H242993   3.015   3.841  14.898 -0.7164 -1.6199 -1.3238
 7168TIP3   OH242994   6.667   2.107   5.853 -0.0503  0.4249 -0.8105
 7168TIP3    H142995   6.739   2.098   5.791 -0.6245  1.5116 -1.6730
 7168TIP3    H242996   6.710   2.131   5.935  0.7125 -0.9340 -0.7721
 7169TIP3   OH242997   3.971   5.912  14.184 -0.6973 -0.0047  0.3359
 7169TIP3    H142998   3.902   5.848  14.198 -0.1481 -1.2154 -1.9068
 7169TIP3    H242999   3.960   5.938  14.092  0.9682  0.8083  0.3322
 7170TIP3   OH243000   0.273   3.231  10.570 -0.0977 -0.1507 -0.0644
 7170TIP3    H143001   0.180   3.205  10.570 -0.7700  2.0513  0.0935
 7170TIP3    H243002   0.311   3.181  10.497 -1.2739 -1.4658  0.1634
 7171TIP3   OH243003   3.927   0.577  12.661 -0.0861 -0.3419 -0.2107
 7171TIP3    H143004   3.959   0.551  12.575  1.8036  1.1047 -0.0091
 7171TIP3    H243005   3.878   0.657  12.646  3.0374  1.8449  0.3207
 7172TIP3   OH243006   0.972   5.359   2.448 -0.0798  0.1494  0.2312
 7172TIP3    H143007   1.058   5.356   2.407  0.4547  1.7532  1.1921
 7172TIP3    H243008   0.961   5.273   2.488  1.6498  0.3505  1.2155
 7173TIP3   OH243009   2.754   0.855   0.313  0.0847 -0.7485 -0.0816
 7173TIP3    H143010   2.678   0.838   0.368 -0.3933  1.1179 -0.1022
 7173TIP3    H243011   2.828   0.823   0.365 -0.5613 -1.1754  0.5974
 7174TIP3   OH243012   3.930   1.943   5.597 -0.2134 -0.0148 -0.2148
 7174TIP3    H143013   3.954   1.956   5.505 -0.2474  0.4698 -0.1537
 7174TIP3    H243014   3.836   1.955   5.600 -0.4347 -1.4937 -0.3733
 7175TIP3   OH243015   0.856   2.618  12.206 -0.0467 -0.0252  0.8905
 7175TIP3    H143016   0.831   2.540  12.255  0.5550 -0.6146  0.2771
 7175TIP3    H243017   0.795   2.686  12.237 -2.4012 -1.3653 -0.5335
 7176TIP3   OH243018   4.599   2.090   2.156  0.3226  0.3095  0.4908
 7176TIP3    H143019   4.688   2.068   2.184  0.0352  0.0023  1.1758
 7176TIP3    H243020   4.542   2.031   2.206 -0.2511  0.2914 -0.1638
 7177TIP3   OH243021   2.525   0.034  13.675  0.8165 -0.1411 -0.1794
 7177TIP3    H143022   2.429   0.030  13.678  0.8123  0.3705  0.5559
 7177TIP3    H243023   2.544   0.109  13.619  0.7844  0.0608  0.0805
 7178TIP3   OH243024   1.224   5.696   3.269  0.0975 -0.0631 -0.2837
 7178TIP3    H143025   1.257   5.693   3.359  0.7015 -1.0958 -0.5198
 7178TIP3    H243026   1.246   5.610   3.233 -1.3284 -0.1570 -0.9976
 7179TIP3   OH243027   5.359   2.696  11.623 -0.0653  0.5172  0.0449
 7179TIP3    H143028   5.328   2.787  11.630 -0.6965  0.2651  0.6465
 7179TIP3    H243029   5.324   2.665  11.540  0.7875  1.0521 -0.5311
 7180TIP3   OH243030   6.427   1.858   5.050  0.1677  0.4656  0.5347
 7180TIP3    H143031   6.374   1.888   4.976  1.0919  1.9495  0.4267
 7180TIP3    H243032   6.455   1.770   5.025  0.9068  1.1271 -1.1704
 7181TIP3   OH243033   1.052   5.330  12.488  0.1982 -1.0757  0.1265
 7181TIP3    H143034   1.060   5.390  12.562 -0.6971 -1.1779  0.3169
 7181TIP3    H243035   1.105   5.254  12.512  0.7092 -0.6929  0.2245
 7182TIP3   OH243036   2.728   1.407   2.790 -0.4077 -0.0248 -0.7893
 7182TIP3    H143037   2.648   1.456   2.811 -0.9325 -0.3298 -1.9815
 7182TIP3    H243038   2.765   1.454   2.715 -0.4510 -0.9410 -1.3968
 7183TIP3   OH243039   6.040   4.186   4.585  0.1474 -0.1326 -0.3560
 7183TIP3    H143040   5.997   4.256   4.635 -0.6364  0.0976 -1.3178
 7183TIP3    H243041   5.981   4.170   4.511  1.8559  0.3829 -1.8804
 7184TIP3   OH243042   6.461   0.789  17.149 -0.3259 -0.1112 -0.2833
 7184TIP3    H143043   6.383   0.741  17.121  0.2273 -1.2127 -0.0039
 7184TIP3    H243044   6.496   0.827  17.069 -1.5333  1.0017 -0.3091
 7185TIP3   OH243045   5.341   3.930   0.445  0.2299 -0.9922  0.1106
 7185TIP3    H143046   5.343   3.870   0.520  2.3802 -2.1276 -0.7657
 7185TIP3    H243047   5.308   3.876   0.373  1.2495 -0.8596 -0.4674
 7186TIP3   OH243048   1.501   3.362   1.007 -0.4518 -0.1999 -0.5950
 7186TIP3    H143049   1.485   3.453   0.984 -0.2332 -0.0171 -0.0366
 7186TIP3    H243050   1.545   3.366   1.091  0.2328 -0.8010 -0.9206
 7187TIP3   OH243051   5.350   0.502   3.771  0.2286  0.5654 -0.3862
 7187TIP3    H143052   5.312   0.575   3.820  1.0586  0.4776  0.4155
 7187TIP3    H243053   5.311   0.509   3.684 -1.0273  0.9101  0.1907
 7188TIP3   OH243054   1.266   3.846   1.292 -0.0018 -0.0074 -0.3683
 7188TIP3    H143055   1.276   3.910   1.221 -0.6720  0.8489  0.2968
 7188TIP3    H243056   1.182   3.868   1.332 -0.1695 -1.2224 -0.0354
 7189TIP3   OH243057   3.619   3.673  12.846 -0.1904  0.4662 -0.3486
 7189TIP3    H143058   3.694   3.616  12.863  0.4331  1.2721 -0.2957
 7189TIP3    H243059   3.549   3.637  12.900  0.3179  0.0220  0.0349
 7190TIP3   OH243060   5.799   4.480   1.926 -0.3929 -0.0024  0.4331
 7190TIP3    H143061   5.866   4.418   1.898 -0.8311 -0.4483  0.3541
 7190TIP3    H243062   5.845   4.564   1.933  0.0233 -0.1596 -0.2824
 7191TIP3   OH243063   0.407   2.318   5.396 -0.0783 -0.4299 -0.2539
 7191TIP3    H143064   0.457   2.272   5.328  0.0462  0.1387 -0.5548
 7191TIP3    H243065   0.347   2.252   5.431  2.0192 -1.6384  1.3121
 7192TIP3   OH243066   6.738   5.299  13.530  0.4803  0.3580  0.1129
 7192TIP3    H143067   6.717   5.389  13.508  0.7147  0.2307 -0.6642
 7192TIP3    H243068   6.659   5.250  13.509  0.9579  0.1263 -1.1922
 7193TIP3   OH243069   1.452   2.372  15.411  0.2758  0.0838 -0.1681
 7193TIP3    H143070   1.486   2.412  15.491 -0.0151 -0.5971  0.3060
 7193TIP3    H243071   1.525   2.375  15.349  0.5671  0.4265  0.1901
 7194TIP3   OH243072   4.123   6.656   2.820 -0.4702  0.1963  0.1000
 7194TIP3    H143073   4.173   6.630   2.898  0.7916  0.6113 -0.5339
 7194TIP3    H243074   4.050   6.707   2.854 -0.3121 -0.1815  1.0466
 7195TIP3   OH243075   3.339   1.352   4.562 -0.1331  0.3603  0.0226
 7195TIP3    H143076   3.345   1.446   4.578 -2.3836  0.5215  0.1605
 7195TIP3    H243077   3.318   1.315   4.648  0.2324 -0.2181 -0.1319
 7196TIP3   OH243078   2.971   0.415   4.619  0.1646  0.5078 -0.2380
 7196TIP3    H143079   3.032   0.487   4.633  0.8250  0.1835 -1.3732
 7196TIP3    H243080   3.025   0.344   4.584 -0.3686 -0.7353  1.3240
 7197TIP3   OH243081   5.185   3.869   5.038 -0.6372  0.0625 -0.2391
 7197TIP3    H143082   5.257   3.924   5.071 -1.0447  0.7998 -0.5501
 7197TIP3    H243083   5.165   3.810   5.111  0.7858 -0.6870 -0.4200
 7198TIP3   OH243084   4.163   5.075  14.455 -0.1161  0.3952 -0.1810
 7198TIP3    H143085   4.200   5.155  14.493  2.2987  0.4433 -2.3286
 7198TIP3    H243086   4.175   5.008  14.523  4.0584  0.4553 -0.6103
 7199TIP3   OH243087   2.255   1.146  11.598  0.4438 -0.1998 -0.2358
 7199TIP3    H143088   2.226   1.146  11.690  1.1388  0.7961 -0.0007
 7199TIP3    H243089   2.346   1.116  11.601  0.1931 -1.0424 -0.7130
 7200TIP3   OH243090   2.298   1.436   1.635 -0.4831  0.8797 -0.2901
 7200TIP3    H143091   2.390   1.456   1.651 -0.4208  1.7094 -1.5145
 7200TIP3    H243092   2.250   1.507   1.677 -0.5030  1.0130 -0.5338
 7201TIP3   OH243093   4.735   4.323  17.143 -0.4831  0.3520 -0.2087
 7201TIP3    H143094   4.744   4.327  17.238 -2.9733  2.1508  0.0905
 7201TIP3    H243095   4.761   4.410  17.113  1.6375 -0.6284 -1.4041
 7202TIP3   OH243096   4.764   3.280  14.338 -0.0143 -0.2376 -0.2069
 7202TIP3    H143097   4.817   3.265  14.416  0.5366  0.1749 -0.4977
 7202TIP3    H243098   4.826   3.308  14.271 -0.9164  3.9135  0.4031
 7203TIP3   OH243099   4.972   3.387   3.753 -0.1555 -0.4612 -0.0426
 7203TIP3    H143100   4.962   3.360   3.844  0.0716  2.3001  0.8952
 7203TIP3    H243101   5.066   3.383   3.737 -0.2092 -1.1052 -0.2469
 7204TIP3   OH243102   6.491   3.164  10.693 -0.1938 -0.5894 -0.3952
 7204TIP3    H143103   6.549   3.137  10.763  1.4271 -0.8655 -1.7850
 7204TIP3    H243104   6.415   3.105  10.699 -0.3648 -0.2145  1.4462
 7205TIP3   OH243105   4.388   6.035  16.440  0.0164 -0.3968 -0.0158
 7205TIP3    H143106   4.379   6.101  16.509  1.1262 -0.1741 -0.0744
 7205TIP3    H243107   4.465   6.061  16.390 -1.4764  0.1625 -2.1731
 7206TIP3   OH243108   5.604   1.421   3.473  0.2878  0.2114  0.0129
 7206TIP3    H143109   5.626   1.336   3.435 -0.1929 -0.0125  0.2285
 7206TIP3    H243110   5.682   1.475   3.458 -0.1918  0.4180 -2.0932
 7207TIP3   OH243111   6.593   3.701   2.216  0.0206  0.1348  0.5534
 7207TIP3    H143112   6.556   3.631   2.162  3.1006 -0.5069 -1.0027
 7207TIP3    H243113   6.549   3.781   2.185 -2.6508 -0.8705  1.4858
 7208TIP3   OH243114   3.395   6.103  14.893 -0.0984 -0.2279 -0.3002
 7208TIP3    H143115   3.432   6.015  14.903  0.6944  0.3125  2.0821
 7208TIP3    H243116   3.302   6.088  14.877  0.2008 -1.4963 -1.0225
 7209TIP3   OH243117   3.378   6.677  11.880 -0.4627 -0.2305  0.1981
 7209TIP3    H143118   3.329   6.609  11.833 -0.1517  0.7933 -1.7245
 7209TIP3    H243119   3.343   6.759  11.846  1.4104  0.5336  0.0040
 7210TIP3   OH243120   3.572   1.303  12.327 -0.3496  0.2624  0.1951
 7210TIP3    H143121   3.608   1.334  12.410 -0.3126 -0.7006  0.5375
 7210TIP3    H243122   3.649   1.282  12.274 -0.3933 -0.9365  0.6023
 7211TIP3   OH243123   5.068   5.461  15.687  0.1315 -0.0589  0.3952
 7211TIP3    H143124   5.154   5.418  15.690 -0.2498 -0.8289  0.8189
 7211TIP3    H243125   5.066   5.516  15.765  0.4945  0.4779  0.0295
 7212TIP3   OH243126   1.030   0.865   3.935  0.1919  0.3359 -0.0250
 7212TIP3    H143127   1.076   0.922   3.997 -1.3799  0.2734  1.2647
 7212TIP3    H243128   0.955   0.917   3.905 -1.1725 -0.9206  1.0429
 7213TIP3   OH243129   3.846   4.592  14.032  0.2070  0.7484 -0.4824
 7213TIP3    H143130   3.759   4.562  14.005 -0.3722  3.6740 -2.3687
 7213TIP3    H243131   3.905   4.520  14.009 -1.4179 -0.2964 -1.5353
 7214TIP3   OH243132   2.943   1.058  12.874 -0.1731 -0.2358  0.4485
 7214TIP3    H143133   2.891   1.136  12.854  0.6901 -0.1965 -1.9563
 7214TIP3    H243134   2.975   1.028  12.789 -0.1575 -3.0259  1.3308
 7215TIP3   OH243135   6.732   3.840   2.689 -0.0528 -0.6366  0.2217
 7215TIP3    H143136   6.645   3.878   2.687 -0.1491 -0.8056  0.7966
 7215TIP3    H243137   6.717   3.746   2.679  0.0895 -0.6342 -0.0145
 7216TIP3   OH243138   0.800   0.668  12.025 -0.5951  0.1779  0.7555
 7216TIP3    H143139   0.835   0.657  12.114 -0.0566 -0.3906  0.4817
 7216TIP3    H243140   0.844   0.600  11.974 -1.2412  0.2136  0.1458
 7217TIP3   OH243141   1.332   0.542   5.372  0.2836 -0.0838 -0.3066
 7217TIP3    H143142   1.247   0.502   5.354  1.6881 -2.5849 -1.9356
 7217TIP3    H243143   1.355   0.512   5.460 -0.6027  0.8724  0.2766
 7218TIP3   OH243144   2.311   1.239   6.296 -0.1194 -0.2154  0.1641
 7218TIP3    H143145   2.260   1.254   6.375 -1.5502 -4.1294  0.2163
 7218TIP3    H243146   2.251   1.257   6.224  0.3007  0.6548  0.0169
 7219TIP3   OH243147   1.811   3.036  15.657 -0.5649 -0.5175  0.6029
 7219TIP3    H143148   1.744   3.021  15.723  0.0979  0.2073  1.4766
 7219TIP3    H243149   1.860   2.954  15.653 -2.0478 -1.3855 -0.7345
 7220TIP3   OH243150   4.432   4.353  11.982 -0.1488  0.2760 -0.7287
 7220TIP3    H143151   4.457   4.281  12.040  0.7557  0.7147 -0.5616
 7220TIP3    H243152   4.340   4.370  12.005  0.1618  0.3776  0.5150
 7221TIP3   OH243153   2.833   2.500   4.077 -0.2309 -0.6945  0.0704
 7221TIP3    H143154   2.818   2.423   4.132 -0.3033 -1.9273 -1.6152
 7221TIP3    H243155   2.817   2.470   3.988 -1.9829  1.7158 -0.5256
 7222TIP3   OH243156   2.247   4.032  16.864  0.6752 -0.1910  0.5751
 7222TIP3    H143157   2.212   4.087  16.935 -2.1447 -0.9025 -0.1400
 7222TIP3    H243158   2.222   4.079  16.784  1.9012 -0.4888 -0.0001
 7223TIP3   OH243159   1.116   4.770   2.221  0.2070  0.2889 -0.5606
 7223TIP3    H143160   1.184   4.830   2.253 -0.3325 -0.9242  3.5278
 7223TIP3    H243161   1.040   4.826   2.207  0.8314  1.0895 -0.8407
 7224TIP3   OH243162   0.409   1.809   2.008 -0.3315 -0.2518  0.7490
 7224TIP3    H143163   0.400   1.750   2.082 -0.3205 -0.7504  0.3543
 7224TIP3    H243164   0.351   1.883   2.029 -0.0938 -0.2394  1.3933
 7225TIP3   OH243165   5.630   2.456  14.578  0.3812 -0.3721  0.4623
 7225TIP3    H143166   5.561   2.397  14.609 -0.1209 -0.4234 -0.7003
 7225TIP3    H243167   5.684   2.471  14.655 -0.4452 -1.0060  1.1990
 7226TIP3   OH243168   2.362   4.306  15.603  0.0068 -0.0619  0.5954
 7226TIP3    H143169   2.446   4.295  15.558 -0.5754  1.6474 -1.0173
 7226TIP3    H243170   2.378   4.375  15.667 -0.0240 -0.1488  0.6976
 7227TIP3   OH243171   4.587   3.544  13.835  0.5439 -0.7733 -0.2773
 7227TIP3    H143172   4.623   3.505  13.755  0.2188 -1.4863 -0.0824
 7227TIP3    H243173   4.499   3.507  13.843 -0.1889  0.8189 -0.6429
 7228TIP3   OH243174   1.533   2.852  12.107  0.3736  0.1830  0.1326
 7228TIP3    H143175   1.514   2.770  12.061  0.8128  0.1144  0.0643
 7228TIP3    H243176   1.550   2.915  12.037  0.8463  0.1269  0.1936
 7229TIP3   OH243177   6.073   5.223  12.150 -0.0513  0.4293 -0.5699
 7229TIP3    H143178   6.060   5.219  12.055 -2.2014 -1.0598 -0.2836
 7229TIP3    H243179   6.089   5.132  12.176 -2.7701  0.2531  0.8192
 7230TIP3   OH243180   4.013   0.059  12.397  0.2042  0.2284 -0.4316
 7230TIP3    H143181   4.052   0.127  12.450  0.6221 -0.4157  0.1049
 7230TIP3    H243182   4.042   0.078  12.308  0.3688  0.7075 -0.2766
 7231TIP3   OH243183   0.088   2.231   5.254  0.0635  0.2634 -0.2904
 7231TIP3    H143184   0.088   2.277   5.170 -0.4142  0.5258 -0.1548
 7231TIP3    H243185   0.089   2.301   5.319  1.6953  0.0611 -0.0514
 7232TIP3   OH243186   0.674   4.854   2.359 -0.0195 -0.2797  0.1319
 7232TIP3    H143187   0.673   4.822   2.449 -0.3548  0.8338  0.5375
 7232TIP3    H243188   0.666   4.949   2.367 -1.1605 -0.2379 -1.1115
 7233TIP3   OH243189   5.589   1.527   5.101  0.2693  0.0767 -0.0413
 7233TIP3    H143190   5.630   1.606   5.066  1.7011 -0.6199  0.0104
 7233TIP3    H243191   5.512   1.514   5.046  1.0875  0.4321 -1.3070
 7234TIP3   OH243192   5.875   3.143   3.141 -0.5197 -0.3278 -0.0780
 7234TIP3    H143193   5.796   3.194   3.123 -1.7280 -1.0031  2.7682
 7234TIP3    H243194   5.845   3.052   3.147  0.5762 -0.6710  0.5503
 7235TIP3   OH243195   2.670   6.283  10.509  0.1178 -0.1449  0.4430
 7235TIP3    H143196   2.647   6.233  10.587  0.7876  0.3632  0.9854
 7235TIP3    H243197   2.648   6.226  10.435  1.5574 -1.5615  1.0516
 7236TIP3   OH243198   0.385   4.347   2.087 -0.4779 -0.3284 -0.4095
 7236TIP3    H143199   0.357   4.283   2.022 -0.1739 -1.0838  0.1945
 7236TIP3    H243200   0.397   4.296   2.167 -1.7690  0.7355  0.4976
 7237TIP3   OH243201   5.904   4.567   0.541 -0.3528  0.4728  0.1844
 7237TIP3    H143202   5.906   4.656   0.577 -2.0944  0.5036  0.2615
 7237TIP3    H243203   5.996   4.539   0.542  0.2984  2.4508 -0.3400
 7238TIP3   OH243204   3.897   3.874  11.443 -0.1028 -0.5348 -0.2151
 7238TIP3    H143205   3.973   3.872  11.384  0.8067 -0.2214  0.9136
 7238TIP3    H243206   3.878   3.782  11.460  1.5672 -0.6426  1.3799
 7239TIP3   OH243207   0.936   6.651   4.165 -0.1103  0.2790 -0.4462
 7239TIP3    H143208   1.007   6.685   4.111  1.1822 -0.4615  0.7053
 7239TIP3    H243209   0.932   6.558   4.144 -0.7295  0.3174 -0.4989
 7240TIP3   OH243210   6.159   3.228   0.618 -0.9071  0.2686  0.1049
 7240TIP3    H143211   6.225   3.257   0.681 -0.3178 -0.5585 -0.1053
 7240TIP3    H243212   6.125   3.308   0.579 -0.3631  0.7281  0.5634
 7241TIP3   OH243213   3.489   5.073  10.747 -0.3085  0.1774  0.0969
 7241TIP3    H143214   3.557   5.058  10.812 -3.1760  0.5028  3.4525
 7241TIP3    H243215   3.449   4.987  10.734 -1.3289  0.5371  0.7355
 7242TIP3   OH243216   4.365   4.667   1.809 -0.0976  0.2029 -0.3681
 7242TIP3    H143217   4.288   4.610   1.807  1.5160 -2.2009  0.5029
 7242TIP3    H243218   4.385   4.684   1.717 -0.5776 -0.7509 -0.6602
 7243TIP3   OH243219   0.140   6.475   6.076  0.6162  0.1600  0.2067
 7243TIP3    H143220   0.187   6.544   6.029 -0.9941  0.1244 -1.6030
 7243TIP3    H243221   0.081   6.522   6.135  0.3086  0.3199 -0.2201
 7244TIP3   OH243222   4.828   0.144  14.202  0.0194  0.2168 -0.4318
 7244TIP3    H143223   4.735   0.160  14.221  0.0982  1.3189 -0.9205
 7244TIP3    H243224   4.833   0.141  14.107  0.1677 -1.9716 -0.3970
 7245TIP3   OH243225   3.280   1.093   5.781 -0.1450 -0.0602 -0.4577
 7245TIP3    H143226   3.223   1.164   5.814  0.9760  1.3011 -1.3437
 7245TIP3    H243227   3.350   1.138   5.735  0.3511 -1.7937 -1.4903
 7246TIP3   OH243228   0.478   5.954   0.968  0.6085  0.2765 -0.0460
 7246TIP3    H143229   0.566   5.933   1.000  0.3749  0.8250  1.0115
 7246TIP3    H243230   0.483   6.046   0.942  1.7796 -0.9113 -5.1758
 7247TIP3   OH243231   2.393   6.193   1.043 -0.1780  0.0570  0.5884
 7247TIP3    H143232   2.341   6.273   1.030  0.7181  0.4730 -0.6016
 7247TIP3    H243233   2.484   6.223   1.046  0.1267 -0.8496  0.8066
 7248TIP3   OH243234   4.485   1.221  14.084  0.3588 -0.0039  0.4598
 7248TIP3    H143235   4.409   1.275  14.105  0.3805 -0.9107  3.1407
 7248TIP3    H243236   4.462   1.134  14.115  2.0851 -0.5250  0.3501
 7249TIP3   OH243237   6.611   1.144  11.926  0.3575  0.5984  0.2990
 7249TIP3    H143238   6.592   1.080  11.857 -0.5558  2.6400 -1.4572
 7249TIP3    H243239   6.539   1.134  11.988  1.1333 -1.1881  0.9833
 7250TIP3   OH243240   4.634   0.041  17.194 -0.8026 -0.1482  0.0110
 7250TIP3    H143241   4.618   0.016  17.103  1.1567 -0.9179 -0.1709
 7250TIP3    H243242   4.554   0.016  17.240 -1.8382  0.2747 -1.4883
 7251TIP3   OH243243   4.933   0.716  14.217  1.0084 -0.7334 -0.9493
 7251TIP3    H143244   4.916   0.681  14.304  1.6881  0.8085 -0.1643
 7251TIP3    H243245   4.846   0.736  14.182  0.7492  2.2949  0.9959
 7252TIP3   OH243246   5.047   4.567  14.807 -0.1131 -0.1173 -0.3061
 7252TIP3    H143247   5.142   4.565  14.798  0.1343 -1.9893  1.7781
 7252TIP3    H243248   5.029   4.640  14.866 -0.2679  1.8079 -2.6130
 7253TIP3   OH243249   1.126   0.417   1.342 -0.1162  0.7917 -0.4328
 7253TIP3    H143250   1.050   0.416   1.285  0.7888 -2.1358 -1.7847
 7253TIP3    H243251   1.110   0.346   1.404  1.4258  0.2099 -0.6638
 7254TIP3   OH243252   4.803   6.164   3.190  0.2717  0.0598 -0.9245
 7254TIP3    H143253   4.851   6.092   3.148  0.1489 -1.0934  0.8259
 7254TIP3    H243254   4.856   6.189   3.265 -1.3902 -0.6876  0.5762
 7255TIP3   OH243255   2.634   0.897   2.865  0.5463  0.3648 -0.1581
 7255TIP3    H143256   2.601   0.987   2.854 -0.2382  0.2994  1.4200
 7255TIP3    H243257   2.573   0.843   2.815  0.4962  0.6141 -0.3704
 7256TIP3   OH243258   5.931   5.237  10.903 -0.7983  0.1869  0.3467
 7256TIP3    H143259   5.867   5.287  10.853  1.5735  0.6430 -2.6159
 7256TIP3    H243260   5.940   5.155  10.854  2.4694  1.1179 -0.8771
 7257TIP3   OH243261   4.373   6.179   3.756 -0.2042  0.0190 -0.0309
 7257TIP3    H143262   4.454   6.170   3.704  0.4662 -0.2679  1.0326
 7257TIP3    H243263   4.330   6.094   3.746  0.0094 -0.0974  0.0248
 7258TIP3   OH243264   3.105   4.191   3.004  0.1411 -0.2589 -0.2418
 7258TIP3    H143265   3.158   4.233   3.072  1.7521 -2.4350 -0.0603
 7258TIP3    H243266   3.019   4.233   3.011  1.0341  1.4383  1.3235
 7259TIP3   OH243267   3.806   3.766   0.507 -0.1840  0.2694  0.1275
 7259TIP3    H143268   3.811   3.788   0.600  0.7156 -0.0608  0.1657
 7259TIP3    H243269   3.897   3.750   0.481 -0.6862 -2.8608 -0.0196
 7260TIP3   OH243270   2.053   1.229   3.168 -0.2872 -0.1771 -0.1798
 7260TIP3    H143271   2.100   1.291   3.112  0.2753  1.1875  1.7060
 7260TIP3    H243272   2.099   1.146   3.155  0.8042  0.4640 -0.5636
 7261TIP3   OH243273   0.557   1.412   6.886 -0.4441 -0.0332 -0.3545
 7261TIP3    H143274   0.620   1.438   6.818 -1.6389 -1.1177 -1.9498
 7261TIP3    H243275   0.543   1.319   6.871 -2.3977  0.1761 -0.0425
 7262TIP3   OH243276   5.363   2.204   3.570 -0.1992  0.2986 -0.0914
 7262TIP3    H143277   5.271   2.195   3.545  0.3561 -0.9592 -1.9583
 7262TIP3    H243278   5.384   2.296   3.552 -0.7892  0.2976 -0.8497
 7263TIP3   OH243279   6.358   1.572  15.734  0.1012  0.3276  0.2365
 7263TIP3    H143280   6.374   1.528  15.651  0.6977  1.1942 -0.1246
 7263TIP3    H243281   6.345   1.501  15.797 -2.1084 -0.3466 -0.8892
 7264TIP3   OH243282   3.335   0.328  13.212 -0.4367 -0.3049 -0.6347
 7264TIP3    H143283   3.380   0.388  13.152 -1.0890 -0.5827 -1.4088
 7264TIP3    H243284   3.242   0.348  13.201 -0.7659 -2.2846 -1.8179
 7265TIP3   OH243285   0.518   2.487  15.816 -0.2627  0.3709 -0.2651
 7265TIP3    H143286   0.593   2.497  15.756 -0.4853 -0.6021 -0.7219
 7265TIP3    H243287   0.557   2.459  15.899 -0.1579 -0.7288 -0.6718
 7266TIP3   OH243288   0.223   3.071  13.817  0.0475 -0.0604 -0.6964
 7266TIP3    H143289   0.202   3.040  13.729  0.3836  1.1795 -1.2300
 7266TIP3    H243290   0.146   3.120  13.845  0.0661 -0.1822 -0.4294
 7267TIP3   OH243291   0.090   5.632   5.022 -0.1147  0.0583  0.3402
 7267TIP3    H143292   0.030   5.699   4.992  0.1619 -0.7913 -2.3412
 7267TIP3    H243293   0.161   5.681   5.064 -0.7970  1.3109  0.0932
 7268TIP3   OH243294   1.609   6.469  13.871  0.4073 -0.5897 -0.0662
 7268TIP3    H143295   1.532   6.526  13.862  0.1508 -0.9491 -0.1283
 7268TIP3    H243296   1.577   6.381  13.852  0.4263 -1.0146  1.6515
 7269TIP3   OH243297   2.922   4.247  16.037  0.1253  0.1615 -0.2253
 7269TIP3    H143298   2.843   4.289  16.070  0.3555 -0.6445  1.4901
 7269TIP3    H243299   2.989   4.266  16.103  1.0195 -0.2881 -0.9692
 7270TIP3   OH243300   4.185   1.450  12.618  0.4335 -0.2499 -0.4133
 7270TIP3    H143301   4.212   1.361  12.643  0.7528 -0.8512 -2.7106
 7270TIP3    H243302   4.175   1.495  12.702  3.7474 -1.4159  0.7915
 7271TIP3   OH243303   2.675   0.923   3.920  0.1067  0.3376  0.0402
 7271TIP3    H143304   2.709   1.002   3.879 -1.9977  0.1497 -2.2883
 7271TIP3    H243305   2.699   0.853   3.860 -0.3226 -0.4289  0.7430
 7272TIP3   OH243306   2.008   5.455  13.559 -0.8356 -0.7950  0.1946
 7272TIP3    H143307   2.069   5.459  13.633  0.9244  0.1236 -1.2408
 7272TIP3    H243308   1.935   5.511  13.585  0.9706  1.6700  0.2390
 7273TIP3   OH243309   0.557   4.302  14.787  0.2201  0.4741 -0.1622
 7273TIP3    H143310   0.531   4.270  14.701  1.5210  0.3640 -0.5297
 7273TIP3    H243311   0.639   4.349  14.772  0.7608 -0.0301  1.1055
 7274TIP3   OH243312   5.990   1.704  12.131  0.2943  0.1095  0.1654
 7274TIP3    H143313   5.998   1.691  12.036  4.1738  1.1196  0.2148
 7274TIP3    H243314   5.953   1.622  12.163  1.0606 -1.1680 -2.0140
 7275TIP3   OH243315   2.211   1.906  14.655  0.7285 -0.0912  0.1716
 7275TIP3    H143316   2.244   1.987  14.615 -0.1042 -0.1106 -0.5819
 7275TIP3    H243317   2.177   1.855  14.581  0.3336 -0.6934  0.7610
 7276TIP3   OH243318   4.122   6.459   2.374 -0.7958  0.5013 -0.8573
 7276TIP3    H143319   4.145   6.383   2.320  0.9121  1.2459 -1.2468
 7276TIP3    H243320   4.053   6.427   2.433 -0.4203 -1.2136 -1.2997
 7277TIP3   OH243321   3.822   2.918  13.749  0.3062  0.0852 -0.0688
 7277TIP3    H143322   3.789   2.963  13.827  0.6613 -0.1266  0.2050
 7277TIP3    H243323   3.835   2.988  13.685 -1.1388  0.1237 -0.3559
 7278TIP3   OH243324   5.166   0.885  15.956  0.3821  0.3740 -0.6809
 7278TIP3    H143325   5.226   0.811  15.948 -1.6946 -1.3975 -0.8830
 7278TIP3    H243326   5.166   0.907  16.049  3.0763  2.0530 -0.9687
 7279TIP3   OH243327   1.756   0.202   0.353 -0.8019 -0.4992  0.4334
 7279TIP3    H143328   1.734   0.249   0.272 -1.0084  2.3171  1.9963
 7279TIP3    H243329   1.773   0.112   0.325  0.5342  0.6479 -2.9662
 7280TIP3   OH243330   0.978   1.063   2.729  0.4881 -0.3090 -0.0895
 7280TIP3    H143331   0.960   1.011   2.651  0.8760 -0.2922 -0.1959
 7280TIP3    H243332   0.940   1.149   2.710 -1.4645 -0.9492  0.6865
 7281TIP3   OH243333   0.841   0.064   3.358 -0.4496 -0.2444 -0.6570
 7281TIP3    H143334   0.868  -0.023   3.330 -0.5203 -0.7237  0.7198
 7281TIP3    H243335   0.774   0.089   3.294  0.6741 -0.5123 -1.9977
 7282TIP3   OH243336   6.321   4.559  16.866  0.0722  0.6074 -0.1512
 7282TIP3    H143337   6.268   4.588  16.792 -0.1827 -0.3746 -0.3699
 7282TIP3    H243338   6.403   4.609  16.859 -0.4233  1.3974 -0.3863
 7283TIP3   OH243339   0.970   2.525   0.223  0.2758 -0.2033  0.2061
 7283TIP3    H143340   0.937   2.538   0.135 -1.2099 -3.6295  0.0883
 7283TIP3    H243341   1.061   2.496   0.210 -0.7913 -3.6525 -0.6011
 7284TIP3   OH243342   1.213   0.817  14.843 -0.1332 -0.0163 -0.0402
 7284TIP3    H143343   1.140   0.840  14.901  0.8943  1.3558  0.7588
 7284TIP3    H243344   1.172   0.769  14.772 -1.9326  1.2990  0.0360
 7285TIP3   OH243345   4.665   5.503  13.727 -0.3839  0.4131 -0.1616
 7285TIP3    H143346   4.736   5.450  13.691 -2.4480 -1.8983 -1.1551
 7285TIP3    H243347   4.692   5.593  13.711  1.7099 -0.4060 -1.6994
 7286TIP3   OH243348   5.905   4.514   2.382 -0.0956 -0.7570  0.3734
 7286TIP3    H143349   5.837   4.520   2.315 -0.2622 -1.1438  0.5019
 7286TIP3    H243350   5.982   4.482   2.336  0.0033 -0.3064  0.2253
 7287TIP3   OH243351   1.899   3.808  11.380 -0.3644 -0.0190 -0.1745
 7287TIP3    H143352   1.901   3.849  11.467  1.8311  0.7753 -0.5507
 7287TIP3    H243353   1.927   3.877  11.320 -2.0683 -0.4907 -1.5935
 7288TIP3   OH243354   6.667   5.976   3.654  0.0314  0.1260  0.1545
 7288TIP3    H143355   6.709   6.057   3.685  0.0035  1.3837 -2.7419
 7288TIP3    H243356   6.590   5.966   3.710  1.7580  0.2176  2.7004
 7289TIP3   OH243357   0.925   2.700  16.641 -0.6612  0.2890  0.3695
 7289TIP3    H143358   0.835   2.728  16.654 -0.1806  2.0767  0.0382
 7289TIP3    H243359   0.963   2.765  16.582  0.3301 -1.4765 -1.0728
 7290TIP3   OH243360   1.646   0.084  13.079 -0.1354 -0.2368 -0.0947
 7290TIP3    H143361   1.605   0.055  12.998 -0.7240  0.6437 -0.1140
 7290TIP3    H243362   1.594   0.159  13.108 -0.1068 -0.6930  1.2403
 7291TIP3   OH243363   3.869   2.695  15.051  0.5919 -0.1802  0.2954
 7291TIP3    H143364   3.788   2.711  15.002  0.2821 -1.3258  0.3964
 7291TIP3    H243365   3.915   2.779  15.050 -0.8295  0.6400  0.6715
 7292TIP3   OH243366   3.565   5.289  12.017 -0.4473 -0.0785  0.5733
 7292TIP3    H143367   3.630   5.334  11.963  0.0771 -1.4245  0.0181
 7292TIP3    H243368   3.613   5.262  12.095 -0.7849  0.4337  0.9581
 7293TIP3   OH243369   1.957   6.020   0.145 -0.0191  0.3401  0.2611
 7293TIP3    H143370   2.014   5.948   0.118 -0.3903 -0.2777  1.0437
 7293TIP3    H243371   1.874   5.977   0.167  0.0638  0.8656  1.7058
 7294TIP3   OH243372   5.258   4.154  13.983 -0.8185  0.4395 -0.6446
 7294TIP3    H143373   5.187   4.120  14.037 -0.0309 -0.1125  0.0812
 7294TIP3    H243374   5.287   4.078  13.931  0.5821  0.0876  0.5757
 7295TIP3   OH243375   1.846   2.967   0.104 -0.6578  0.1341  0.0236
 7295TIP3    H143376   1.791   3.026   0.155 -1.9357 -0.5258 -0.5403
 7295TIP3    H243377   1.842   3.001   0.015  0.2433  0.3484  0.0562
 7296TIP3   OH243378   5.202   4.303   2.431 -0.2959  0.4353 -0.0028
 7296TIP3    H143379   5.157   4.323   2.349 -3.8747  1.9700  2.0624
 7296TIP3    H243380   5.198   4.207   2.438 -0.6356  0.3387 -1.2399
 7297TIP3   OH243381   4.064   6.319   5.142  0.7393 -0.1571  0.6132
 7297TIP3    H143382   3.976   6.334   5.175  0.7359  1.2534  0.0608
 7297TIP3    H243383   4.121   6.363   5.205  1.0799 -1.3092  1.1227
 7298TIP3   OH243384   5.035   6.196   1.747  0.3209  0.0762 -0.0796
 7298TIP3    H143385   5.086   6.221   1.670 -1.5070  1.5109 -0.9043
 7298TIP3    H243386   5.060   6.260   1.814  1.1259 -0.5154  0.1941
 7299TIP3   OH243387   1.718   1.705   5.165 -0.5847 -0.5775  0.3872
 7299TIP3    H143388   1.682   1.625   5.126 -0.1244 -0.5988  0.0046
 7299TIP3    H243389   1.781   1.673   5.230 -0.1752 -0.5220  0.0176
 7300TIP3   OH243390   1.822   0.583   4.964 -0.0255  0.7239 -0.0290
 7300TIP3    H143391   1.871   0.531   5.028  0.2388  0.2010 -0.6511
 7300TIP3    H243392   1.817   0.528   4.886 -1.4362  0.8421 -0.0561
 7301TIP3   OH243393   6.777   1.074   0.092 -0.2579 -0.4392  0.3420
 7301TIP3    H143394   6.830   1.070   0.012 -0.4669 -2.3302  0.2669
 7301TIP3    H243395   6.840   1.094   0.161  0.1909 -0.4384 -0.0607
 7302TIP3   OH243396   6.225   0.333  15.054 -0.3009  0.1044 -0.1793
 7302TIP3    H143397   6.259   0.297  14.971 -0.2147 -0.4371  0.0843
 7302TIP3    H243398   6.291   0.310  15.119 -1.6443 -1.9882  0.5629
 7303TIP3   OH243399   3.048   3.726  14.579 -0.0693 -0.8347  0.1648
 7303TIP3    H143400   3.088   3.727  14.666  1.1856 -2.8060 -0.3295
 7303TIP3    H243401   2.954   3.721  14.596 -0.1586  2.1970  1.3439
 7304TIP3   OH243402   1.254   1.867   4.013  0.5672  0.2914  0.0379
 7304TIP3    H143403   1.266   1.938   3.950 -0.9054  0.4273 -0.1159
 7304TIP3    H243404   1.206   1.907   4.085 -0.1847 -0.5103 -0.0036
 7305TIP3   OH243405   0.320   1.416   1.030 -0.3222  0.4914  0.9252
 7305TIP3    H143406   0.235   1.416   1.074 -1.6564 -0.4936 -1.4314
 7305TIP3    H243407   0.333   1.325   1.004  0.7344  0.8958 -0.0580
 7306TIP3   OH243408   2.070   5.495   4.612 -0.9028 -0.5838 -0.3191
 7306TIP3    H143409   2.050   5.495   4.518 -0.0969 -0.7602 -0.4929
 7306TIP3    H243410   1.984   5.492   4.654 -1.2437 -2.0852 -1.0511
 7307TIP3   OH243411   3.716   6.642   2.811  0.2858  0.1872  0.2123
 7307TIP3    H143412   3.734   6.557   2.851  0.1034  0.7801  1.6045
 7307TIP3    H243413   3.736   6.706   2.879 -1.3234  1.1752 -0.1871
 7308TIP3   OH243414   0.294   1.416   5.702 -0.1077 -0.8675  0.7802
 7308TIP3    H143415   0.368   1.443   5.647  0.0446  0.2091  1.4757
 7308TIP3    H243416   0.335   1.386   5.783 -0.4212  1.8237  2.0668
 7309TIP3   OH243417   5.813   6.354  10.965  0.6422 -0.3460 -0.0801
 7309TIP3    H143418   5.861   6.279  11.001  1.3733  0.2214  0.1642
 7309TIP3    H243419   5.859   6.375  10.883 -0.6309 -1.2437 -1.0597
 7310TIP3   OH243420   4.593   0.639   0.573  0.3348  0.3133 -0.3640
 7310TIP3    H143421   4.665   0.577   0.586 -0.5165 -0.8966 -1.2474
 7310TIP3    H243422   4.561   0.621   0.485 -2.2112 -0.4322  0.6223
 7311TIP3   OH243423   1.822   2.904   4.049  0.4095  0.6577  0.5130
 7311TIP3    H143424   1.899   2.960   4.049  0.7517  0.2323  1.8283
 7311TIP3    H243425   1.848   2.827   4.099  0.1690 -1.0294 -1.7730
 7312TIP3   OH243426   1.800   4.487   0.641  0.2897 -0.5099 -0.2937
 7312TIP3    H143427   1.727   4.454   0.589 -0.2766  1.6880 -0.9808
 7312TIP3    H243428   1.761   4.510   0.725  0.5655 -1.0138 -0.0231
 7313TIP3   OH243429   6.615   2.230   3.046  0.7714 -0.2827  0.1271
 7313TIP3    H143430   6.688   2.233   3.108  1.3510  0.5654 -0.5731
 7313TIP3    H243431   6.625   2.146   3.001  1.2985 -0.1924  0.0715
 7314TIP3   OH243432   3.996   5.347   4.153 -0.3469  0.0694 -0.3317
 7314TIP3    H143433   4.052   5.418   4.186 -0.3125 -0.1286  0.0383
 7314TIP3    H243434   3.976   5.294   4.231  1.3195 -1.5059 -0.9201
 7315TIP3   OH243435   6.812   3.176   1.871  0.2902 -0.8683  0.1612
 7315TIP3    H143436   6.804   3.272   1.875  0.6283 -0.7126 -2.0468
 7315TIP3    H243437   6.780   3.147   1.957  0.2912  1.2107  0.9470
 7316TIP3   OH243438   3.642   4.094  12.550  0.0547 -0.0508 -0.9311
 7316TIP3    H143439   3.717   4.075  12.607 -2.1458  0.2174  2.2983
 7316TIP3    H243440   3.584   4.019  12.559 -1.7688  1.3548 -0.2252
 7317TIP3   OH243441   6.750   2.942   5.147  0.4961 -0.3705  0.1275
 7317TIP3    H143442   6.711   3.027   5.125 -2.2207 -1.5449 -0.0573
 7317TIP3    H243443   6.763   2.946   5.241 -1.5264 -0.3714  0.4690
 7318TIP3   OH243444   4.876   3.762   5.451 -0.4532 -0.5069 -0.2374
 7318TIP3    H143445   4.956   3.770   5.503 -1.1123 -1.8456  1.1001
 7318TIP3    H243446   4.860   3.850   5.416  1.5803 -0.2292 -0.5445
 7319TIP3   OH243447   5.363   3.034  14.541 -1.0528 -0.2988 -0.5140
 7319TIP3    H143448   5.285   2.998  14.499 -0.6219  0.7731 -2.3052
 7319TIP3    H243449   5.371   2.984  14.622 -2.1353 -2.1703 -1.5018
 7320TIP3   OH243450   0.667   2.682   2.871 -0.0272 -0.1676  0.0936
 7320TIP3    H143451   0.684   2.590   2.891 -0.6845 -0.4460 -0.5701
 7320TIP3    H243452   0.601   2.710   2.934 -0.5147 -0.4249 -0.2970
 7321TIP3   OH243453   6.400   3.200  11.374 -0.3240  0.0752  0.1012
 7321TIP3    H143454   6.363   3.244  11.298  0.4947  0.3757 -0.1334
 7321TIP3    H243455   6.447   3.268  11.422  0.4822 -0.4066  0.0308
 7322TIP3   OH243456   5.225   0.745   3.858 -0.3518  0.3884  0.1864
 7322TIP3    H143457   5.217   0.840   3.860 -1.8984  0.2757  1.5390
 7322TIP3    H243458   5.150   0.713   3.908 -0.0682 -1.5664 -0.5217
 7323TIP3   OH243459   4.573   2.165   0.125  0.0194  0.1644  0.6440
 7323TIP3    H143460   4.501   2.133   0.072  2.1375  0.4025 -2.6924
 7323TIP3    H243461   4.628   2.088   0.141  0.8460  0.5751 -0.0933
 7324TIP3   OH243462   0.628   3.271   1.110 -0.0543  0.1631 -0.5874
 7324TIP3    H143463   0.696   3.297   1.172 -0.9386  1.8368 -0.2587
 7324TIP3    H243464   0.553   3.247   1.165 -0.0004 -0.9104 -0.9631
 7325TIP3   OH243465   3.768   4.657   0.199 -0.6967  0.2808  0.1779
 7325TIP3    H143466   3.771   4.708   0.118  0.6691 -1.7766 -1.1837
 7325TIP3    H243467   3.793   4.568   0.172 -0.6484 -0.5865  2.7939
 7326TIP3   OH243468   1.681   6.556  13.148  0.1238  0.0040  0.5556
 7326TIP3    H143469   1.750   6.495  13.174  0.0298  0.5121  2.1245
 7326TIP3    H243470   1.716   6.602  13.072  0.4743 -1.4980 -0.2157
 7327TIP3   OH243471   5.602   5.853   1.385  0.2110  0.6661 -0.2116
 7327TIP3    H143472   5.516   5.895   1.379  0.3401  1.3574  2.0441
 7327TIP3    H243473   5.583   5.760   1.398 -0.2143  0.8523  0.5290
 7328TIP3   OH243474   3.274   0.059   4.044  0.2526  0.6414  0.2298
 7328TIP3    H143475   3.263   0.079   4.136 -0.4963 -0.2985  0.3626
 7328TIP3    H243476   3.320  -0.025   4.043 -1.1117 -0.1328 -0.2055
 7329TIP3   OH243477   0.031   6.303   2.634 -0.1867  0.0776  0.1771
 7329TIP3    H143478   0.007   6.211   2.625  0.7581 -0.1221 -0.4389
 7329TIP3    H243479  -0.050   6.347   2.659 -1.7265 -0.2696 -3.5383
 7330TIP3   OH243480   2.654   6.656  16.910 -0.1461  0.5018  0.1651
 7330TIP3    H143481   2.690   6.666  16.822  0.6204  1.1138  0.5483
 7330TIP3    H243482   2.716   6.599  16.955  0.7784  2.1276  1.0419
 7331TIP3   OH243483   1.647   5.577   1.201  0.2474  0.8572 -0.3767
 7331TIP3    H143484   1.679   5.644   1.142 -1.8178 -0.2798 -3.0074
 7331TIP3    H243485   1.682   5.495   1.166 -2.0476  0.0235 -0.9242
 7332TIP3   OH243486   1.395   2.206  17.245  0.1814 -0.2163 -0.0739
 7332TIP3    H143487   1.432   2.261  17.176  0.3904 -0.4996 -0.1939
 7332TIP3    H243488   1.311   2.177  17.209 -0.1965  0.4889  0.2284
 7333TIP3   OH243489   4.560   5.966  11.344  0.6616  0.3783  0.2622
 7333TIP3    H143490   4.487   6.000  11.292 -1.0730 -0.1668  2.2008
 7333TIP3    H243491   4.560   6.019  11.424  3.0810  1.0245 -0.0844
 7334TIP3   OH243492   3.123   6.590   6.409  0.2983 -0.2551 -0.6556
 7334TIP3    H143493   3.085   6.539   6.338  2.5208 -0.3433 -1.8649
 7334TIP3    H243494   3.176   6.656   6.365  0.9768  0.2841  0.9169
 7335TIP3   OH243495   2.966   5.711  11.691  0.2049 -0.1579  0.0014
 7335TIP3    H143496   2.888   5.663  11.664  0.3999 -0.4092 -0.1253
 7335TIP3    H243497   3.028   5.700  11.619  0.4948 -0.2874  0.2636
 7336TIP3   OH243498   2.965   6.462   4.412 -0.2788  0.6319  0.5053
 7336TIP3    H143499   2.926   6.487   4.328  0.1836 -2.0646 -0.6224
 7336TIP3    H243500   2.891   6.459   4.472 -1.1937 -0.4689 -0.6157
 7337TIP3   OH243501   4.809   4.303  15.183  0.3006 -0.2900 -0.0416
 7337TIP3    H143502   4.876   4.372  15.187 -0.4513  0.4782 -0.2682
 7337TIP3    H243503   4.857   4.224  15.159  1.2463  0.0738  0.5723
 7338TIP3   OH243504   5.252   6.724   2.179 -0.4090 -0.5646  0.7221
 7338TIP3    H143505   5.303   6.688   2.107 -0.1579 -1.9861  1.5733
 7338TIP3    H243506   5.314   6.780   2.226 -0.5380  0.2599 -0.0605
 7339TIP3   OH243507   3.189   3.930  13.978  0.0533  0.5749  0.4001
 7339TIP3    H143508   3.229   3.888  14.055 -0.5401 -1.7981 -0.5029
 7339TIP3    H243509   3.155   4.013  14.011  1.3070  0.3971  2.2977
 7340TIP3   OH243510   5.693   5.877   3.203  0.0137  0.3625  0.1366
 7340TIP3    H143511   5.630   5.844   3.140  0.4255  1.2988 -0.7867
 7340TIP3    H243512   5.679   5.972   3.204  0.7293  0.4724  0.6762
 7341TIP3   OH243513   1.302   4.004   4.553  0.1831  0.2386  0.2177
 7341TIP3    H143514   1.326   4.068   4.486  0.0563  0.7969  0.6932
 7341TIP3    H243515   1.222   3.963   4.519  0.4264  0.1146 -0.2239
 7342TIP3   OH243516   1.133   0.509   3.528 -0.2171  0.1064 -0.0483
 7342TIP3    H143517   1.174   0.547   3.606  0.2360 -0.7289  0.1396
 7342TIP3    H243518   1.044   0.544   3.527 -0.2165  0.1524  0.8330
 7343TIP3   OH243519   3.778   4.571   5.692 -0.5370  0.5492  0.0918
 7343TIP3    H143520   3.826   4.507   5.638 -0.9465  0.7790 -0.5644
 7343TIP3    H243521   3.820   4.568   5.777 -0.2187 -0.2263 -0.0870
 7344TIP3   OH243522   1.313   5.735   1.576 -0.0076 -0.2459  0.3079
 7344TIP3    H143523   1.365   5.704   1.502 -0.2751  0.5389 -0.2216
 7344TIP3    H243524   1.368   5.799   1.620  0.0573 -0.5345  0.6513
 7345TIP3   OH243525   0.213   1.207  13.099  0.2966  0.0251  0.1705
 7345TIP3    H143526   0.252   1.139  13.045 -0.0139 -1.0749  1.2896
 7345TIP3    H243527   0.246   1.289  13.062 -0.9960 -0.5583 -2.5745
 7346TIP3   OH243528   1.569   4.363   4.962  0.1102 -0.1006  0.2391
 7346TIP3    H143529   1.567   4.371   5.057 -1.2213  1.0164  0.1363
 7346TIP3    H243530   1.528   4.278   4.945 -1.4303  0.5390  0.5977
 7347TIP3   OH243531   2.145   1.920   4.479  0.6086  0.0751  0.1481
 7347TIP3    H143532   2.170   1.931   4.387  1.0957 -2.6407 -0.1302
 7347TIP3    H243533   2.058   1.882   4.476 -0.2921  1.9391  0.9291
 7348TIP3   OH243534   2.088   4.718   3.439 -0.0723 -0.0341 -0.1931
 7348TIP3    H143535   2.054   4.696   3.525  0.2453 -0.6580 -0.2174
 7348TIP3    H243536   2.015   4.758   3.393 -0.4646 -0.4043  0.1039
 7349TIP3   OH243537   3.305   5.927   5.908 -0.6689 -0.7849  0.5119
 7349TIP3    H143538   3.357   5.918   5.988 -1.8143 -0.1233  1.3743
 7349TIP3    H243539   3.297   5.837   5.875  0.1261 -1.0224  0.9405
 7350TIP3   OH243540   4.660   6.709  11.926 -0.4666  0.5077 -0.7113
 7350TIP3    H143541   4.656   6.788  11.871 -0.7036  0.4252 -0.8163
 7350TIP3    H243542   4.650   6.741  12.015  0.4493  0.6994 -0.6637
 7351TIP3   OH243543   5.452   3.734   4.057  0.1340  0.2035 -0.1276
 7351TIP3    H143544   5.541   3.697   4.056  0.1378  0.1486  0.9748
 7351TIP3    H243545   5.405   3.680   4.121 -1.2141 -0.8986 -1.9597
 7352TIP3   OH243546   0.182   5.149   2.562 -0.5999  0.3161  0.0423
 7352TIP3    H143547   0.211   5.211   2.629 -1.3132  1.4220 -0.6293
 7352TIP3    H243548   0.191   5.197   2.480  3.4890 -2.0592 -1.2065
 7353TIP3   OH243549   3.882   2.916  12.027  0.2444 -0.2812  0.4227
 7353TIP3    H143550   3.852   2.931  11.938 -0.2914  0.8840  0.7836
 7353TIP3    H243551   3.888   3.004  12.065  2.4626 -0.5918  0.9026
 7354TIP3   OH243552   4.380   1.332  15.069  0.4923  0.7071  0.3773
 7354TIP3    H143553   4.431   1.410  15.048 -0.2963  0.5320 -2.6096
 7354TIP3    H243554   4.300   1.341  15.017  0.1231 -1.7803  0.4120
 7355TIP3   OH243555   3.378   4.070   4.736  0.1403  0.5214 -0.0803
 7355TIP3    H143556   3.404   4.040   4.823 -0.7203  0.5681  0.1989
 7355TIP3    H243557   3.393   3.994   4.680 -0.2064  0.1834  0.2801
 7356TIP3   OH243558   3.661   1.879  16.654  0.0564 -0.0007 -0.1352
 7356TIP3    H143559   3.592   1.870  16.588 -1.0604  0.0263  0.9960
 7356TIP3    H243560   3.741   1.892  16.603 -0.8673  0.6948 -1.4696
 7357TIP3   OH243561   5.140   2.821   1.964 -0.2968 -0.1108 -0.1295
 7357TIP3    H143562   5.235   2.813   1.954 -0.2100 -1.3556  1.3740
 7357TIP3    H243563   5.104   2.785   1.883  0.5006 -0.0883 -0.5041
 7358TIP3   OH243564   4.045   3.328  16.973  0.0397 -0.4450  0.3289
 7358TIP3    H143565   3.983   3.306  17.042 -0.4887  0.0484  0.0213
 7358TIP3    H243566   4.013   3.412  16.938  0.1900 -0.7739 -0.6322
 7359TIP3   OH243567   6.227   1.420  11.625 -0.2661  0.1953  0.2282
 7359TIP3    H143568   6.282   1.463  11.691 -1.9614  2.7683  0.1026
 7359TIP3    H243569   6.220   1.330  11.655  2.8392  0.0889  0.9614
 7360TIP3   OH243570   3.019   5.084  11.322 -0.1702 -0.2337 -0.3677
 7360TIP3    H143571   2.950   5.030  11.360 -1.8999 -0.2547 -3.2314
 7360TIP3    H243572   3.045   5.037  11.242  3.1335 -0.1388  0.5281
 7361TIP3   OH243573   5.725   1.114  16.368 -0.0020  0.4742 -0.5632
 7361TIP3    H143574   5.667   1.104  16.292 -0.4510 -0.1931 -0.1463
 7361TIP3    H243575   5.675   1.167  16.429 -0.3887 -0.5146 -0.0016
 7362TIP3   OH243576   2.445   3.849   5.811  0.2979  0.1504 -0.1462
 7362TIP3    H143577   2.408   3.762   5.821 -0.0918  0.2081 -0.9898
 7362TIP3    H243578   2.373   3.908   5.833  1.1061  0.2877  2.3509
 7363TIP3   OH243579   1.359   3.969  13.163 -0.0113  0.1324 -0.1190
 7363TIP3    H143580   1.285   4.026  13.144 -0.4770 -0.0423  1.1188
 7363TIP3    H243581   1.332   3.883  13.128  0.3702  0.4569 -1.2758
 7364TIP3   OH243582   1.349   2.157  14.128  0.4874  0.4217 -0.1415
 7364TIP3    H143583   1.400   2.207  14.064  1.5442 -0.8675 -0.3596
 7364TIP3    H243584   1.414   2.104  14.175 -0.6524 -1.6136 -0.7093
 7365TIP3   OH243585   1.940   5.454  10.950  0.1730 -0.4328  0.1883
 7365TIP3    H143586   1.881   5.522  10.919  0.5831 -0.2225 -0.1416
 7365TIP3    H243587   2.024   5.474  10.907  0.2444 -1.2550 -0.0711
 7366TIP3   OH243588   2.807   4.349   4.424  0.1402  0.3537  0.2265
 7366TIP3    H143589   2.843   4.411   4.361 -0.1279  0.0597 -0.2220
 7366TIP3    H243590   2.740   4.301   4.375  1.4307 -1.4080  0.0801
 7367TIP3   OH243591   4.234   5.509   4.143 -0.3191 -0.6912 -0.5523
 7367TIP3    H143592   4.302   5.489   4.206  0.5286  0.2892 -1.1195
 7367TIP3    H243593   4.281   5.531   4.063 -1.2928 -0.0166 -0.9606
 7368TIP3   OH243594   5.546   5.649  16.935 -0.6063  0.6248  0.4252
 7368TIP3    H143595   5.640   5.665  16.927 -0.9251  2.0198 -1.1648
 7368TIP3    H243596   5.538   5.554  16.942  0.8935  0.4259 -0.2047
 7369TIP3   OH243597   4.762   0.382  13.610 -0.0829  0.2285  0.3474
 7369TIP3    H143598   4.797   0.414  13.693  0.0972  1.3148 -0.1284
 7369TIP3    H243599   4.689   0.325  13.635 -0.5766  1.2145  1.2402
 7370TIP3   OH243600   5.132   0.656   0.330  0.1169  0.1091 -0.4934
 7370TIP3    H143601   5.186   0.722   0.374 -1.6047  1.5719 -0.4261
 7370TIP3    H243602   5.123   0.688   0.240 -0.3772 -0.2546 -0.5798
 7371TIP3   OH243603   3.716   1.868  10.392  0.5972 -0.6202  0.1702
 7371TIP3    H143604   3.698   1.923  10.469  0.3250 -0.2615 -0.1455
 7371TIP3    H243605   3.777   1.921  10.340 -0.0865 -0.3836 -0.3970
 7372TIP3   OH243606   3.980   6.018  15.727 -0.2731  0.2035 -0.5237
 7372TIP3    H143607   3.908   6.055  15.676  0.0124  1.2043 -0.2269
 7372TIP3    H243608   3.960   5.925  15.733 -0.8773  0.2545 -1.5231
 7373TIP3   OH243609   4.984   3.370  15.513  0.0646  0.2928 -0.0362
 7373TIP3    H143610   4.934   3.306  15.464 -0.4723 -0.7453  1.7541
 7373TIP3    H243611   5.072   3.333  15.518 -0.4835 -0.8967  1.8585
 7374TIP3   OH243612   6.489   3.406   4.719 -0.4005 -0.2437 -0.1620
 7374TIP3    H143613   6.518   3.433   4.806  0.6677 -3.0497  0.4623
 7374TIP3    H243614   6.395   3.393   4.727 -0.5402  0.9254  0.1442
 7375TIP3   OH243615   3.732   0.583   2.538 -0.4100 -0.3086  0.3411
 7375TIP3    H143616   3.714   0.491   2.516 -2.4046  0.3584 -1.2022
 7375TIP3    H243617   3.655   0.611   2.587 -0.2764  0.7816 -0.0397
 7376TIP3   OH243618   0.807   4.503  16.951  0.2459 -0.3633 -0.2339
 7376TIP3    H143619   0.729   4.518  17.003  0.7186  0.4291  0.2608
 7376TIP3    H243620   0.816   4.581  16.897  1.9211  0.5843  1.3147
 7377TIP3   OH243621   0.334   3.778   0.932 -0.2556  0.1292 -0.0825
 7377TIP3    H143622   0.421   3.746   0.956  0.0252  1.8972  1.4679
 7377TIP3    H243623   0.350   3.860   0.885 -1.0590 -0.2615 -1.0884
 7378TIP3   OH243624   5.544   5.863  17.147  0.0202 -0.1392  0.1381
 7378TIP3    H143625   5.627   5.838  17.187  0.0342 -1.8309 -0.8232
 7378TIP3    H243626   5.531   5.798  17.077 -2.1444  0.0223  0.3206
 7379TIP3   OH243627   6.695   5.901  15.555 -0.5478 -0.8884 -0.2632
 7379TIP3    H143628   6.751   5.832  15.590  1.2598  1.0423  0.8613
 7379TIP3    H243629   6.615   5.896  15.606  0.5737 -0.5506  1.6177
 7380TIP3   OH243630   6.354   2.588   3.753 -0.5454 -0.3535  0.1644
 7380TIP3    H143631   6.409   2.517   3.721 -0.1928 -0.4667  0.9972
 7380TIP3    H243632   6.265   2.561   3.732 -0.3150 -0.2917 -0.9612
 7381TIP3   OH243633   0.541   5.978   4.923 -0.0680  0.2397 -0.1033
 7381TIP3    H143634   0.569   5.892   4.956  0.9311  1.3876  2.3315
 7381TIP3    H243635   0.548   6.036   4.999 -2.1922  2.1934 -1.2752
 7382TIP3   OH243636   5.949   5.588   2.015  0.3417 -0.3709 -0.2063
 7382TIP3    H143637   5.997   5.583   1.932  1.2789 -0.3872  0.3153
 7382TIP3    H243638   5.859   5.609   1.990  0.7548  0.3178 -1.1928
 7383TIP3   OH243639   6.292   1.853  15.748  0.8271  0.3457  0.1886
 7383TIP3    H143640   6.336   1.769  15.743  0.9750  0.3807  0.8354
 7383TIP3    H243641   6.301   1.880  15.839 -0.6746  0.2757  0.3870
 7384TIP3   OH243642   3.961   3.445   2.434  0.1994  0.3051  0.1667
 7384TIP3    H143643   4.049   3.423   2.463  0.2882 -0.1242 -0.4189
 7384TIP3    H243644   3.925   3.497   2.505  0.2770 -1.0338  1.2225
 7385TIP3   OH243645   4.751   4.740   4.237 -0.2819  0.1140  0.4545
 7385TIP3    H143646   4.663   4.778   4.235  0.0633  0.8956 -0.3157
 7385TIP3    H243647   4.766   4.709   4.148 -0.1366 -0.8953  0.8143
 7386TIP3   OH243648   0.400   3.861  11.977  0.1405  0.2481  0.1228
 7386TIP3    H143649   0.467   3.793  11.975  0.9798  0.9635  1.7157
 7386TIP3    H243650   0.399   3.890  12.068 -0.0740  2.4683 -0.5330
 7387TIP3   OH243651   2.075   1.905  12.450  0.3049 -0.0869  0.3676
 7387TIP3    H143652   2.085   1.988  12.497  0.6642  0.1979 -0.2102
 7387TIP3    H243653   2.003   1.861  12.495 -0.5844  0.9832  0.0403
 7388TIP3   OH243654   1.659   6.455  15.232 -0.0238  0.2299 -0.0946
 7388TIP3    H143655   1.718   6.380  15.236  0.4985  0.5932 -0.7022
 7388TIP3    H243656   1.716   6.531  15.248 -0.6582  0.4675  1.2287
 7389TIP3   OH243657   2.688   0.656  12.895  0.6162 -0.3987  0.1062
 7389TIP3    H143658   2.681   0.589  12.963  1.4935 -1.1795 -0.5514
 7389TIP3    H243659   2.782   0.665  12.880  0.5795  1.6632  0.8247
 7390TIP3   OH243660   0.334   1.707  15.812  0.0797 -0.1078  0.2767
 7390TIP3    H143661   0.369   1.633  15.861 -0.1428 -0.3742  0.0344
 7390TIP3    H243662   0.243   1.683  15.794 -0.0647  0.3262  0.4045
 7391TIP3   OH243663   4.423   5.876   2.880 -0.2563 -0.0154 -0.0748
 7391TIP3    H143664   4.498   5.893   2.822 -0.3882 -1.8287 -0.8358
 7391TIP3    H243665   4.395   5.788   2.857 -2.8957  0.7555 -0.0904
 7392TIP3   OH243666   4.121   2.268   5.436  0.3360 -0.1582  0.7565
 7392TIP3    H143667   4.156   2.275   5.525 -1.3405 -0.4046  1.4728
 7392TIP3    H243668   4.178   2.205   5.393  1.0650 -0.1743  1.7079
 7393TIP3   OH243669   3.892   4.996   0.162  0.0077 -0.1212 -0.0122
 7393TIP3    H143670   3.865   4.975   0.072 -2.1986 -1.0403  0.7823
 7393TIP3    H243671   3.813   5.030   0.203  0.7882 -0.3678  1.7841
 7394TIP3   OH243672   2.923   5.467   3.341  0.1648  0.3960 -0.1115
 7394TIP3    H143673   2.891   5.541   3.290  3.3274  1.9592 -0.0800
 7394TIP3    H243674   2.956   5.405   3.275 -1.3640 -0.4927 -0.0898
 7395TIP3   OH243675   1.962   3.881   5.269 -0.2853 -0.5517  0.1422
 7395TIP3    H143676   1.981   3.829   5.347  1.9151 -0.0398  0.0130
 7395TIP3    H243677   2.026   3.852   5.204 -2.1714 -1.1046 -1.6011
 7396TIP3   OH243678   6.202   6.581  14.390 -0.1849  0.0800 -0.0075
 7396TIP3    H143679   6.286   6.622  14.373 -0.4036  0.3607 -0.4237
 7396TIP3    H243680   6.222   6.488  14.401  0.0917  0.0440 -0.7907
 7397TIP3   OH243681   6.717   1.296  12.922 -0.5952 -0.5683  0.3870
 7397TIP3    H143682   6.757   1.212  12.942  1.3385 -0.0238 -0.8610
 7397TIP3    H243683   6.791   1.352  12.897 -1.8820  1.3323  0.6192
 7398TIP3   OH243684   6.176   5.846  12.273  0.1933  0.3062  0.7331
 7398TIP3    H143685   6.083   5.840  12.293  0.0598  1.7549  0.6536
 7398TIP3    H243686   6.183   5.920  12.212  1.2196 -0.7504 -0.4888
 7399TIP3   OH243687   5.092   5.416  17.026 -0.0074 -0.2798  0.2167
 7399TIP3    H143688   5.155   5.382  16.964 -1.8727 -2.4445 -0.6113
 7399TIP3    H243689   5.143   5.432  17.106  2.3343  2.0677 -1.5562
 7400TIP3   OH243690   6.633   0.247  14.495  0.1571  0.5745  0.1007
 7400TIP3    H143691   6.560   0.282  14.444 -0.0602 -1.7071 -1.2650
 7400TIP3    H243692   6.680   0.190  14.434  2.5093  1.1560  1.2418
 7401TIP3   OH243693   0.545   5.133   1.097  0.1324 -0.0183  0.0959
 7401TIP3    H143694   0.471   5.158   1.152 -0.7401 -0.0034 -1.0485
 7401TIP3    H243695   0.609   5.203   1.110 -0.6349  0.7120  0.0256
 7402TIP3   OH243696   0.927   0.303   0.693 -0.1156 -0.0198 -0.2068
 7402TIP3    H143697   0.985   0.242   0.649 -0.6912 -1.0035  0.3495
 7402TIP3    H243698   0.883   0.350   0.622 -0.8515 -1.4029 -0.7104
 7403TIP3   OH243699   0.684   5.136  16.699  0.0380 -0.1435 -0.1229
 7403TIP3    H143700   0.740   5.067  16.664  1.2498  1.8067 -2.3702
 7403TIP3    H243701   0.741   5.213  16.702 -1.5934  1.0882  1.0537
 7404TIP3   OH243702   4.561   2.940   2.997  0.3720 -0.1708  0.1145
 7404TIP3    H143703   4.571   3.034   3.012 -1.9431  0.2218 -0.5005
 7404TIP3    H243704   4.524   2.906   3.079  1.1745 -0.5677  0.3260
 7405TIP3   OH243705   6.579   4.868   5.162 -0.5083  0.3179 -0.5530
 7405TIP3    H143706   6.536   4.831   5.239  0.1413 -0.1614 -0.4065
 7405TIP3    H243707   6.546   4.957   5.156  1.8657  1.5538  2.2763
 7406TIP3   OH243708   0.960   3.872  13.292  0.1458  0.0191 -0.1542
 7406TIP3    H143709   0.924   3.953  13.328 -0.9820 -0.6145  0.1784
 7406TIP3    H243710   0.919   3.802  13.343  0.0030 -0.8204 -1.3744
 7407TIP3   OH243711   2.915   0.194  15.690  0.7313 -0.3565 -0.1118
 7407TIP3    H143712   2.938   0.251  15.617 -0.8134 -0.7623 -0.9788
 7407TIP3    H243713   2.960   0.111  15.670  2.5365  0.3295  0.8714
 7408TIP3   OH243714   3.297   5.212   2.925  0.7272 -0.2285 -0.4061
 7408TIP3    H143715   3.270   5.225   2.834 -1.1165 -0.0573  0.1279
 7408TIP3    H243716   3.324   5.120   2.930  0.9810 -0.1982 -1.1489
 7409TIP3   OH243717   2.061   4.134   3.269 -0.0145  0.4076  0.2367
 7409TIP3    H143718   2.071   4.227   3.288  0.5010  0.1990  1.0343
 7409TIP3    H243719   1.966   4.121   3.260 -0.0243  1.2258 -1.1048
 7410TIP3   OH243720   1.155   2.504  12.899 -0.0331 -0.0275 -0.1826
 7410TIP3    H143721   1.185   2.431  12.846  1.5117  2.0408 -2.3643
 7410TIP3    H243722   1.095   2.465  12.963 -0.1670 -2.9826 -1.9588
 7411TIP3   OH243723   5.728   3.499  15.175  0.0737  0.5664  0.6188
 7411TIP3    H143724   5.752   3.467  15.262  1.4980  0.4814  0.2298
 7411TIP3    H243725   5.634   3.483  15.167  0.3115 -1.4060  1.3162
 7412TIP3   OH243726   4.331   5.185   4.948  0.2476 -0.3227 -0.0911
 7412TIP3    H143727   4.336   5.220   4.859  0.1009  0.2469  0.1227
 7412TIP3    H243728   4.378   5.102   4.944 -1.1405 -1.1023 -1.0891
 7413TIP3   OH243729   0.327   2.073  12.655 -0.0362 -0.3880 -0.2237
 7413TIP3    H143730   0.384   2.010  12.609  1.5837 -0.4705  1.7444
 7413TIP3    H243731   0.251   2.021  12.682  0.4330 -1.0683 -0.1913
 7414TIP3   OH243732   0.854   1.634   5.855  0.3508  0.6768 -0.4335
 7414TIP3    H143733   0.935   1.652   5.902  0.3442  3.0602 -1.1927
 7414TIP3    H243734   0.784   1.661   5.915  0.1053 -0.8613  0.0108
 7415TIP3   OH243735   4.052   2.541  10.472  0.2045 -0.7158 -0.5026
 7415TIP3    H143736   3.963   2.574  10.480  0.7777  0.9276 -0.4721
 7415TIP3    H243737   4.046   2.449  10.496 -1.4117 -0.5353 -0.1163
 7416TIP3   OH243738   5.486   5.114  12.847  0.1097 -0.3324  0.3503
 7416TIP3    H143739   5.406   5.062  12.845  0.3626 -0.8780  2.3518
 7416TIP3    H243740   5.532   5.091  12.766 -0.6711 -1.7867  0.2930
 7417TIP3   OH243741   4.121   2.844  11.473  0.0765 -0.5171 -0.0337
 7417TIP3    H143742   4.211   2.814  11.466  0.3132 -0.1840  1.2159
 7417TIP3    H243743   4.094   2.817  11.561 -0.7361  0.1724 -0.0619
 7418TIP3   OH243744   2.895   4.368   1.558  0.1120  0.0462 -0.3398
 7418TIP3    H143745   2.900   4.359   1.462 -0.3969 -1.3310 -0.2515
 7418TIP3    H243746   2.803   4.354   1.579 -0.1279  2.0614  0.2313
 7419TIP3   OH243747   5.149   3.181  15.010 -0.2379  0.4451 -0.6748
 7419TIP3    H143748   5.113   3.188  15.099  1.8867  1.9529  0.1474
 7419TIP3    H243749   5.230   3.131  15.021 -0.7804 -0.8351 -2.0882
 7420TIP3   OH243750   4.436   4.749   5.068  0.0085 -0.5388 -0.8558
 7420TIP3    H143751   4.457   4.656   5.064 -0.9583 -0.8508  0.4111
 7420TIP3    H243752   4.345   4.752   5.100 -1.0281  0.7735 -3.5532
 7421TIP3   OH243753   1.435   6.148  14.688  0.6421  0.5207  0.1604
 7421TIP3    H143754   1.445   6.144  14.593  0.0252 -0.6548  0.1272
 7421TIP3    H243755   1.453   6.059  14.718  0.3386  0.7593  1.0885
 7422TIP3   OH243756   1.879   0.816  13.853  0.8885 -0.4690 -0.0215
 7422TIP3    H143757   1.793   0.817  13.810  0.6049 -0.2949  0.5506
 7422TIP3    H243758   1.860   0.829  13.946  1.5746  0.1630  0.0365
 7423TIP3   OH243759   2.466   2.138  16.152  0.3559 -0.9464 -0.4218
 7423TIP3    H143760   2.390   2.194  16.172  1.0069 -0.9293  2.4907
 7423TIP3    H243761   2.540   2.182  16.194  1.5826 -2.1447 -1.2278
 7424TIP3   OH243762   2.267   4.272   1.586 -0.2735 -0.1494  0.5747
 7424TIP3    H143763   2.228   4.312   1.664 -0.3987  0.6052  0.1308
 7424TIP3    H243764   2.361   4.274   1.603 -0.3295 -0.4831  0.9404
 7425TIP3   OH243765   0.940   0.752  14.830  0.7746  0.2745 -0.1708
 7425TIP3    H143766   0.845   0.764  14.836  0.8652  0.4828  0.9477
 7425TIP3    H243767   0.954   0.660  14.850  0.7985  0.1971 -0.5336
 7426TIP3   OH243768   5.325   1.164  13.928 -0.0131  0.2268  0.5750
 7426TIP3    H143769   5.396   1.102  13.942 -0.4314 -0.4859 -0.3739
 7426TIP3    H243770   5.259   1.140  13.993 -0.2363 -0.4275  0.1162
 7427TIP3   OH243771   0.281   5.219   1.177 -0.4080  0.4177  0.2797
 7427TIP3    H143772   0.302   5.291   1.236 -0.4255  1.2070 -0.6585
 7427TIP3    H243773   0.266   5.144   1.236  1.1272  0.7741  1.1854
 7428TIP3   OH243774   5.890   4.073   1.684 -0.3324  0.2777  0.3437
 7428TIP3    H143775   5.943   4.041   1.612 -1.4009 -0.8450  0.0082
 7428TIP3    H243776   5.949   4.074   1.759  0.3222 -0.3475 -0.1486
 7429TIP3   OH243777   4.767   4.420  11.508 -0.1961  0.6076 -0.2704
 7429TIP3    H143778   4.675   4.397  11.524 -0.2408 -1.1287 -2.4311
 7429TIP3    H243779   4.790   4.371  11.429  2.4586  1.4153 -0.0982
 7430TIP3   OH243780   3.914   2.707   4.196  0.4723  0.5309 -0.1613
 7430TIP3    H143781   4.006   2.682   4.204  0.4740  0.1402 -1.1746
 7430TIP3    H243782   3.872   2.632   4.154 -0.5106  0.3361  1.0996
 7431TIP3   OH243783   5.272   1.019   1.725  0.3647 -0.3347 -0.1116
 7431TIP3    H143784   5.305   0.930   1.710  0.5116 -0.4147  0.6499
 7431TIP3    H243785   5.327   1.074   1.669 -1.0276 -0.9089 -2.1437
 7432TIP3   OH243786   0.046   0.499  13.400  0.0104  0.4230  0.2259
 7432TIP3    H143787   0.137   0.473  13.413  0.2197  0.4397 -1.1198
 7432TIP3    H243788  -0.005   0.431  13.444  0.6488  0.3527  0.8932
 7433TIP3   OH243789   1.013   1.640   0.584  0.1670  0.6461 -0.1185
 7433TIP3    H143790   1.067   1.623   0.661 -0.5577  0.3802  0.3435
 7433TIP3    H243791   0.991   1.553   0.550  1.0418  0.7669 -1.0392
 7434TIP3   OH243792   1.067   1.940   4.199  0.1283 -0.2224 -0.6389
 7434TIP3    H143793   1.000   1.887   4.243  0.5957 -1.0110 -0.8523
 7434TIP3    H243794   1.021   2.019   4.172 -0.6201 -0.5693 -0.4166
 7435TIP3   OH243795   3.943   1.551   1.412 -0.0819  0.1981 -0.1041
 7435TIP3    H143796   4.016   1.561   1.474 -1.0799  1.8108  0.8799
 7435TIP3    H243797   3.966   1.473   1.361  1.6793 -0.1068  1.0513
 7436TIP3   OH243798   4.773   1.044   6.142 -0.4093  0.2371  0.3477
 7436TIP3    H143799   4.707   1.113   6.130 -0.4486  0.0474 -0.6401
 7436TIP3    H243800   4.846   1.071   6.087  0.3745  0.4646  1.4730
 7437TIP3   OH243801   1.957   5.971   1.627  0.0660  0.4424 -0.4765
 7437TIP3    H143802   2.024   6.028   1.589  1.1103 -0.5448 -0.1706
 7437TIP3    H243803   1.910   6.026   1.689  0.6998  1.1119 -0.5869
 7438TIP3   OH243804   1.789   2.361   0.934 -0.3675  0.2653  0.2318
 7438TIP3    H143805   1.828   2.369   0.847 -0.4832  0.9071  0.2339
 7438TIP3    H243806   1.773   2.268   0.945 -1.1072  0.2605 -0.7701
 7439TIP3   OH243807   6.604   4.968  12.674 -0.3755  0.5053 -0.3427
 7439TIP3    H143808   6.672   4.908  12.645 -1.9823 -1.2842 -0.5922
 7439TIP3    H243809   6.628   4.991  12.763  0.0755 -0.8693 -0.0890
 7440TIP3   OH243810   4.493   1.123   3.722 -0.2129  0.0851  0.3153
 7440TIP3    H143811   4.450   1.209   3.726  0.2422  0.3722 -0.5954
 7440TIP3    H243812   4.421   1.061   3.713 -0.4892  0.5015 -0.4830
 7441TIP3   OH243813   4.632   5.859  14.330  0.4893 -0.8084 -0.2919
 7441TIP3    H143814   4.593   5.788  14.279  0.2892 -0.2023 -1.0026
 7441TIP3    H243815   4.581   5.936  14.306  0.0125 -0.6055  1.2878
 7442TIP3   OH243816   3.322   3.289  14.780  0.6989  0.0181  0.3473
 7442TIP3    H143817   3.286   3.231  14.713  1.3616 -0.0584  0.0452
 7442TIP3    H243818   3.261   3.363  14.783  0.3024 -0.2968  0.1351
 7443TIP3   OH243819   3.266   4.837   3.328 -0.3034 -0.4626  0.0099
 7443TIP3    H143820   3.207   4.823   3.402  1.4207  0.9016  1.7503
 7443TIP3    H243821   3.348   4.796   3.355  0.1622 -0.5458 -1.4615
 7444TIP3   OH243822   1.383   3.524   3.238  0.2500  0.3287 -0.3754
 7444TIP3    H143823   1.439   3.487   3.306  1.0947 -1.4687 -1.9836
 7444TIP3    H243824   1.443   3.553   3.170 -0.6737  0.2784 -1.2351
 7445TIP3   OH243825   3.019   0.279   4.029  0.1830 -0.2218  0.0417
 7445TIP3    H143826   2.998   0.186   4.016 -0.7203  0.2078 -2.0120
 7445TIP3    H243827   3.084   0.298   3.961 -0.1382  0.8137  0.0186
 7446TIP3   OH243828   4.474   3.511   1.611 -0.6748 -0.3079  0.1371
 7446TIP3    H143829   4.545   3.549   1.664  0.0362 -0.0718 -0.9620
 7446TIP3    H243830   4.445   3.435   1.662 -1.5607  1.1838  1.9791
 7447TIP3   OH243831   2.632   4.383  15.297 -0.2353 -0.0422  0.0380
 7447TIP3    H143832   2.591   4.302  15.266  0.5721 -0.1628 -0.7693
 7447TIP3    H243833   2.723   4.377  15.267 -0.6082  2.0174 -1.7742
 7448TIP3   OH243834   0.113   5.851  12.435  0.2282 -0.1182  0.0490
 7448TIP3    H143835   0.191   5.837  12.381 -0.5134  0.1160 -1.1168
 7448TIP3    H243836   0.112   5.946  12.451  1.0393 -0.3165  1.4301
 7449TIP3   OH243837   3.292   0.845   0.741  0.4984  0.3221 -0.2842
 7449TIP3    H143838   3.318   0.768   0.691  2.3874  0.4664  0.3796
 7449TIP3    H243839   3.248   0.809   0.818 -0.0273 -0.0056 -0.7270
 7450TIP3   OH243840   1.502   1.224   2.161  0.5346  0.5492  0.1266
 7450TIP3    H143841   1.412   1.207   2.190  0.5974  0.5993  0.3525
 7450TIP3    H243842   1.551   1.146   2.190  0.2444 -0.2534 -1.4574
 7451TIP3   OH243843   0.968   1.296   4.019 -0.2467 -0.0894  0.5535
 7451TIP3    H143844   0.910   1.220   4.021 -0.0190 -0.3243 -0.8417
 7451TIP3    H243845   1.022   1.288   4.099 -0.2854 -1.3402  0.4669
 7452TIP3   OH243846   2.329   1.628  16.219 -0.2418 -0.0966 -0.1385
 7452TIP3    H143847   2.369   1.714  16.201  1.3734 -0.7800  0.0102
 7452TIP3    H243848   2.240   1.649  16.246 -0.0550  1.5082 -0.6346
 7453TIP3   OH243849   0.640   3.494  12.916 -0.0128 -0.0721 -0.2559
 7453TIP3    H143850   0.607   3.411  12.951  0.2286 -0.5492 -1.1396
 7453TIP3    H243851   0.570   3.526  12.859  0.3546 -0.2409 -0.8063
 7454TIP3   OH243852   5.667   0.872  13.282 -0.1103  0.6755 -0.4952
 7454TIP3    H143853   5.735   0.915  13.231 -0.3890  1.7975  0.0549
 7454TIP3    H243854   5.599   0.851  13.218  0.3636  0.3236 -0.8973
 7455TIP3   OH243855   0.125   2.935  12.868 -0.4477 -0.3998 -0.3941
 7455TIP3    H143856   0.210   2.890  12.873 -0.0958  0.2828 -0.1968
 7455TIP3    H243857   0.102   2.931  12.775 -0.3757 -0.9129 -0.3932
 7456TIP3   OH243858   6.643   4.444   5.017 -0.0676  0.1921 -0.2615
 7456TIP3    H143859   6.599   4.410   5.095  0.5638  0.7057  0.3398
 7456TIP3    H243860   6.593   4.409   4.944  0.2283 -1.5947  0.3227
 7457TIP3   OH243861   6.154   6.345   3.164 -0.8143 -0.4024 -0.0189
 7457TIP3    H143862   6.207   6.287   3.109 -1.1109  0.1961 -0.9643
 7457TIP3    H243863   6.064   6.315   3.150 -0.9939  0.4247 -0.7118
 7458TIP3   OH243864   2.198   2.165   0.756  0.1190  0.2721  0.4152
 7458TIP3    H143865   2.208   2.073   0.732  0.1016 -0.0424  1.5864
 7458TIP3    H243866   2.257   2.179   0.829  0.8840  1.4709 -0.3803
 7459TIP3   OH243867   0.259   0.374  12.354 -0.2664 -0.8910 -0.3092
 7459TIP3    H143868   0.242   0.433  12.427  0.5243 -1.0198 -0.0069
 7459TIP3    H243869   0.214   0.293  12.377 -2.2701 -0.1028 -1.2277
 7460TIP3   OH243870   2.791   4.793  12.824  0.3321  0.6467 -0.0853
 7460TIP3    H143871   2.861   4.840  12.869  0.6586  0.4612 -0.4002
 7460TIP3    H243872   2.831   4.711  12.796 -0.6466 -0.5743  1.8682
 7461TIP3   OH243873   3.186   2.524  12.114 -0.0782 -0.3806  0.3936
 7461TIP3    H143874   3.132   2.603  12.117 -0.5111 -0.5773 -1.3387
 7461TIP3    H243875   3.276   2.556  12.110 -0.1203 -0.0309  1.6515
 7462TIP3   OH243876   4.566   5.762   2.482 -0.1252 -0.5385 -0.2322
 7462TIP3    H143877   4.646   5.728   2.522  0.2728  1.9292  1.3204
 7462TIP3    H243878   4.510   5.785   2.556 -1.1513  0.2708 -1.2123
 7463TIP3   OH243879   1.363   0.505   3.033 -0.1002  0.0991 -0.3547
 7463TIP3    H143880   1.286   0.463   2.994 -0.2190  0.3120 -0.3486
 7463TIP3    H243881   1.399   0.439   3.093 -0.1025 -0.1122 -0.5817
 7464TIP3   OH243882   1.039   6.740  13.790  0.0289 -0.2629 -0.5377
 7464TIP3    H143883   1.048   6.803  13.861 -1.6694 -0.2193 -0.3148
 7464TIP3    H243884   0.964   6.772  13.739 -0.7016 -1.9400 -0.5658
 7465TIP3   OH243885   0.075   5.926   1.478  0.5743 -0.0398  0.2641
 7465TIP3    H143886  -0.014   5.891   1.481  0.8924 -1.0820 -1.2547
 7465TIP3    H243887   0.069   6.012   1.520 -1.2251  0.1081 -0.2239
 7466TIP3   OH243888   6.085   3.197  15.548 -0.5842 -0.2545  0.3256
 7466TIP3    H143889   6.110   3.150  15.628  0.8349 -0.9904 -0.5244
 7466TIP3    H243890   6.129   3.282  15.556 -1.4503  0.1582  0.8808
 7467TIP3   OH243891   5.929   0.233  12.685 -0.0150 -0.3325  0.5116
 7467TIP3    H143892   5.989   0.248  12.611 -1.1784 -0.0566 -0.3972
 7467TIP3    H243893   5.957   0.148  12.720  0.1868 -0.7591 -0.6225
 7468TIP3   OH243894   5.162   4.688   2.264 -0.6896  0.0397 -0.0412
 7468TIP3    H143895   5.230   4.715   2.326 -0.8992 -0.3275  0.3556
 7468TIP3    H243896   5.097   4.758   2.268 -0.6687  0.0517  0.1054
 7469TIP3   OH243897   0.442   1.069   4.972 -0.0519  0.1996 -0.4008
 7469TIP3    H143898   0.417   1.152   5.014 -1.4678 -1.7494  3.0041
 7469TIP3    H243899   0.383   1.061   4.897 -1.6756  1.1154  0.7294
 7470TIP3   OH243900   5.414   6.288  14.016  0.3514 -0.0966 -0.5588
 7470TIP3    H143901   5.323   6.289  13.988  0.2732  0.0746 -0.3001
 7470TIP3    H243902   5.412   6.318  14.107  0.2829 -3.0457  0.5338
 7471TIP3   OH243903   4.226   3.734  12.154  0.2803 -0.2064 -0.3621
 7471TIP3    H143904   4.137   3.762  12.134 -0.1629  0.3501  2.0267
 7471TIP3    H243905   4.216   3.666  12.220  1.6263  0.4773  0.6000
 7472TIP3   OH243906   1.294   0.284  14.083  0.7233 -0.6060 -0.1302
 7472TIP3    H143907   1.340   0.365  14.061  1.5396 -1.2054 -0.6822
 7472TIP3    H243908   1.240   0.307  14.159  1.4457  0.2776  0.1311
 7473TIP3   OH243909   0.452   6.440   5.203  0.5213 -0.5916  0.6067
 7473TIP3    H143910   0.409   6.515   5.162  1.7132  0.0503  0.4801
 7473TIP3    H243911   0.499   6.397   5.132  2.5915  0.5209  1.2159
 7474TIP3   OH243912   0.092   4.679  16.123  0.8421 -0.0104  0.0481
 7474TIP3    H143913   0.123   4.710  16.209 -0.0032 -0.6628  0.6078
 7474TIP3    H243914   0.161   4.622  16.092  0.9550 -0.1379  0.5175
 7475TIP3   OH243915   4.589   3.697  11.684 -0.2007 -0.8294 -0.2867
 7475TIP3    H143916   4.677   3.665  11.703  0.1916  0.7067  0.5940
 7475TIP3    H243917   4.596   3.792  11.688 -1.6864 -0.6461 -1.2107
 7476TIP3   OH243918   3.527   5.323   3.672  0.7298 -0.0519  0.3120
 7476TIP3    H143919   3.591   5.381   3.714  0.6309  0.5643 -0.3642
 7476TIP3    H243920   3.523   5.354   3.581 -0.9386  0.2795  0.4631
 7477TIP3   OH243921   3.977   6.307   3.120  0.0578  0.2832  0.3523
 7477TIP3    H143922   3.900   6.327   3.067  0.7579 -0.7130 -1.1171
 7477TIP3    H243923   4.007   6.393   3.150 -0.3910  0.9034 -0.8586
 7478TIP3   OH243924   6.300   5.401  12.012  0.6170 -0.4222  0.4307
 7478TIP3    H143925   6.315   5.326  12.069  3.2113 -0.0301  0.3973
 7478TIP3    H243926   6.313   5.477  12.068  0.1591 -0.0122 -0.0073
 7479TIP3   OH243927   4.101   6.191  11.590 -0.2045 -0.0365  0.0428
 7479TIP3    H143928   4.153   6.114  11.565  1.0534  1.2109 -1.3150
 7479TIP3    H243929   4.084   6.236  11.508 -0.6216  1.3275  0.8512
 7480TIP3   OH243930   4.121   0.554  16.711 -0.4683 -0.2350  0.2874
 7480TIP3    H143931   4.089   0.591  16.793  0.7105 -0.8422  1.0420
 7480TIP3    H243932   4.076   0.469  16.705 -0.9164  0.0125  0.0463
 7481TIP3   OH243933   3.447   3.511   0.619  0.6354 -0.1442  0.0368
 7481TIP3    H143934   3.362   3.485   0.653  0.7547 -2.4622 -1.2072
 7481TIP3    H243935   3.509   3.489   0.688  0.4540 -0.7592  0.0044
 7482TIP3   OH243936   1.360   1.402  10.853  0.1740 -0.0217 -0.2662
 7482TIP3    H143937   1.396   1.360  10.774 -0.7314 -0.9028 -0.2284
 7482TIP3    H243938   1.394   1.492  10.849  0.0992 -0.0224 -1.6958
 7483TIP3   OH243939   3.385   1.452   6.523  0.0041  0.1491  0.3937
 7483TIP3    H143940   3.403   1.467   6.430  2.3301 -0.2203  0.7287
 7483TIP3    H243941   3.376   1.357   6.531  0.6996  0.0964  0.6536
 7484TIP3   OH243942   3.038   6.697   2.519  0.0306  0.3002 -0.5388
 7484TIP3    H143943   2.943   6.692   2.517  0.0405  0.1705 -1.1628
 7484TIP3    H243944   3.061   6.735   2.434  0.5272  0.4486 -0.3407
 7485TIP3   OH243945   0.131   2.114   2.341 -0.2239  0.3965  0.3493
 7485TIP3    H143946   0.080   2.042   2.377  1.0510 -1.4273 -1.2348
 7485TIP3    H243947   0.211   2.072   2.308  0.4014  2.4806 -0.9833
 7486TIP3   OH243948   6.124   2.768  11.574  0.0603 -0.1122 -0.1361
 7486TIP3    H143949   6.076   2.766  11.491  1.1041  0.6137 -0.7803
 7486TIP3    H243950   6.213   2.791  11.550  0.4016  0.0659  1.1971
 7487TIP3   OH243951   0.597   2.893   6.595  0.5240 -0.0321  1.1869
 7487TIP3    H143952   0.579   2.839   6.673  0.1995  0.5475  1.5241
 7487TIP3    H243953   0.689   2.916   6.603  0.3202  0.6148  1.7906
 7488TIP3   OH243954   3.214   3.760  11.858 -0.7387  0.8302 -0.2140
 7488TIP3    H143955   3.157   3.704  11.911  0.3086  0.6036  0.7133
 7488TIP3    H243956   3.210   3.846  11.902 -0.0967  0.7173  0.0792
 7489TIP3   OH243957   3.633   0.866   3.838 -0.3170  0.4355 -0.2165
 7489TIP3    H143958   3.646   0.804   3.766  1.0871  2.0275 -1.4267
 7489TIP3    H243959   3.538   0.873   3.847 -0.5093 -0.3779 -1.3976
 7490TIP3   OH243960   6.251   2.028   2.787 -0.0612  0.4378  0.0841
 7490TIP3    H143961   6.250   1.933   2.800 -1.0427  0.6270  1.6611
 7490TIP3    H243962   6.328   2.044   2.732  0.3079 -1.2334  0.0629
 7491TIP3   OH243963   1.033   1.399  16.131  0.0771  0.4577 -0.2376
 7491TIP3    H143964   0.962   1.418  16.069 -1.0260 -0.3251  0.7280
 7491TIP3    H243965   1.064   1.485  16.160 -0.3865  0.8147 -0.7827
 7492TIP3   OH243966   2.415   5.040  11.348  0.0348 -0.2370  0.2655
 7492TIP3    H143967   2.351   5.008  11.411  1.0144 -0.3552  1.2383
 7492TIP3    H243968   2.472   5.098  11.399  0.1249  0.6486 -0.7891
 7493TIP3   OH243969   1.808   5.699  12.200  0.2549  0.4841  0.6789
 7493TIP3    H143970   1.763   5.779  12.172 -0.2935 -0.4794 -1.3609
 7493TIP3    H243971   1.900   5.715  12.181  0.2831  1.0081  1.2426
 7494TIP3   OH243972   1.869   5.620  13.737 -0.1168 -0.4844  0.1514
 7494TIP3    H143973   1.774   5.605  13.740  0.1075 -2.0181  0.3687
 7494TIP3    H243974   1.888   5.667  13.819 -0.5853 -0.7785  0.4296
 7495TIP3   OH243975   4.002   0.674   2.367 -0.4353  0.1726 -0.0758
 7495TIP3    H143976   3.964   0.690   2.453  0.3418 -0.7970  0.4717
 7495TIP3    H243977   3.955   0.597   2.334 -0.2468  0.1234 -0.2289
 7496TIP3   OH243978   3.800   1.463  10.538 -0.0582  0.2322 -0.4144
 7496TIP3    H143979   3.849   1.416  10.470 -0.0965 -0.9960  0.3559
 7496TIP3    H243980   3.729   1.403  10.561 -0.3727  0.8741  0.3009
 7497TIP3   OH243981   6.714   4.236   5.646  0.7406  0.2600  0.3924
 7497TIP3    H143982   6.755   4.157   5.610  0.2021  0.2979 -0.3409
 7497TIP3    H243983   6.776   4.268   5.711  0.4213 -1.4517  1.6157
 7498TIP3   OH243984   4.403   3.376  14.605  0.5120  1.1597 -0.5304
 7498TIP3    H143985   4.379   3.393  14.514  2.1771  0.6752 -1.1140
 7498TIP3    H243986   4.333   3.414  14.657 -1.6131 -0.4574 -2.0550
 7499TIP3   OH243987   2.374   4.734   5.046 -0.0085 -0.5543 -0.3043
 7499TIP3    H143988   2.430   4.688   4.983  1.2408 -0.6709  0.8381
 7499TIP3    H243989   2.362   4.670   5.117 -2.4725 -0.9132 -0.9464
 7500TIP3   OH243990   2.605   3.748  16.874  0.2214 -0.5157 -0.5276
 7500TIP3    H143991   2.515   3.781  16.873  0.6775  1.0730  2.0760
 7500TIP3    H243992   2.655   3.811  16.823  0.3257  0.3391  0.5967
 7501TIP3   OH243993   6.567   1.267   5.658 -0.3499  0.2081  0.0665
 7501TIP3    H143994   6.628   1.235   5.591 -0.6450  0.5418 -0.3619
 7501TIP3    H243995   6.564   1.362   5.644 -1.7768  0.0867 -0.6026
 7502TIP3   OH243996   5.659   6.504  14.165  0.0636  0.5598 -0.0511
 7502TIP3    H143997   5.647   6.560  14.241 -1.3835  0.6090 -0.2974
 7502TIP3    H243998   5.644   6.415  14.197 -0.2260  0.5493 -0.2131
 7503TIP3   OH243999   3.658   5.293  16.940 -0.0136  0.2870 -0.0288
 7503TIP3    H144000   3.692   5.279  16.852 -1.1020  1.7851 -0.7368
 7503TIP3    H244001   3.732   5.326  16.990  0.4950 -0.1137 -0.5079
 7504TIP3   OH244002   5.255   5.993   6.131  0.2779 -0.4768  0.6607
 7504TIP3    H144003   5.163   6.012   6.149 -0.4701  0.1542 -2.9670
 7504TIP3    H244004   5.304   6.053   6.188 -1.6431  0.7943  1.0644
 7505TIP3   OH244005   0.979   5.181  13.075  0.6071 -0.1806  0.6357
 7505TIP3    H144006   1.029   5.255  13.040 -0.9811  0.1202 -1.1754
 7505TIP3    H244007   0.986   5.113  13.008 -0.2536 -0.6538  1.0089
 7506TIP3   OH244008   3.699   4.726  16.818  0.0410 -0.1994  0.0102
 7506TIP3    H144009   3.622   4.743  16.871 -0.1593 -0.6654 -0.1222
 7506TIP3    H244010   3.691   4.786  16.744 -0.6966 -0.8874 -0.4966
 7507TIP3   OH244011   6.012   3.700   1.617  0.4827 -0.9629 -0.0013
 7507TIP3    H144012   6.060   3.635   1.669 -1.7912 -3.4662 -0.7767
 7507TIP3    H244013   5.921   3.688   1.643 -0.0545  2.0888 -0.1323
 7508TIP3   OH244014   1.506   1.219  15.948 -0.8929 -0.0867 -0.0758
 7508TIP3    H144015   1.568   1.240  16.017 -0.5431 -0.2875 -0.3267
 7508TIP3    H244016   1.431   1.276  15.965  0.4505  2.1914 -1.3541
 7509TIP3   OH244017   1.183   1.750   0.320 -0.3192  0.0998 -0.7957
 7509TIP3    H144018   1.096   1.715   0.343 -0.7159  1.3140 -0.4054
 7509TIP3    H244019   1.220   1.683   0.262 -0.6442 -1.4412  0.6774
 7510TIP3   OH244020   3.379   3.436  15.310 -0.2475  0.3187 -0.1897
 7510TIP3    H144021   3.398   3.467  15.399  0.3588  0.0245 -0.2088
 7510TIP3    H244022   3.427   3.353  15.303  0.0091  0.5249 -0.9173
 7511TIP3   OH244023   0.227   2.279   3.020 -0.7472 -0.1512  0.3228
 7511TIP3    H144024   0.151   2.303   2.968 -0.1639  2.2250  0.4867
 7511TIP3    H244025   0.292   2.347   3.002  0.3248 -0.5486  2.3293
 7512TIP3   OH244026   0.267   1.952  16.217  0.5466 -0.3178  0.2332
 7512TIP3    H144027   0.200   1.887  16.194  1.9072 -2.0888  1.0569
 7512TIP3    H244028   0.221   2.012  16.276 -0.5262 -1.0426  0.1768
 7513TIP3   OH244029   3.136   5.317   3.117  0.0024 -0.3423 -0.1044
 7513TIP3    H144030   3.176   5.294   3.033 -0.3030 -0.5990 -0.1808
 7513TIP3    H244031   3.145   5.238   3.170  2.7688  0.6590  1.1211
 7514TIP3   OH244032   2.861   4.852  17.001  0.1854  0.0655 -0.0785
 7514TIP3    H144033   2.807   4.773  17.006 -1.8158  1.2460 -1.4693
 7514TIP3    H244034   2.951   4.819  16.990 -0.3879 -1.9755  0.8835
 7515TIP3   OH244035   4.614   6.278   4.266 -0.4836 -0.1926 -0.1239
 7515TIP3    H144036   4.642   6.350   4.322 -1.9455 -0.1100  0.5247
 7515TIP3    H244037   4.697   6.238   4.237  0.3232  0.5054  1.1066
 7516TIP3   OH244038   3.443   5.276  12.296 -0.7637 -0.4729  0.2948
 7516TIP3    H144039   3.449   5.181  12.304 -3.6295 -0.6275  1.7188
 7516TIP3    H244040   3.384   5.291  12.222 -0.7994  0.1901  0.4453
 7517TIP3   OH244041   2.162   6.487  15.839 -0.3492  0.4828  0.5691
 7517TIP3    H144042   2.173   6.554  15.773  1.1540 -1.3045 -1.1291
 7517TIP3    H244043   2.086   6.437  15.811  0.4371 -0.4310 -0.0036
 7518TIP3   OH244044   3.505   0.427  13.804  0.0684  0.1998  0.2231
 7518TIP3    H144045   3.574   0.451  13.741  0.3788 -1.2280 -0.0135
 7518TIP3    H244046   3.480   0.510  13.845  1.0285  0.9226 -0.6079
 7519TIP3   OH244047   2.559   3.344  15.270  0.5934 -0.0183 -0.3268
 7519TIP3    H144048   2.568   3.439  15.258 -1.5009  0.3622  0.7821
 7519TIP3    H244049   2.474   3.323  15.233  0.3082 -1.1830  0.9398
 7520TIP3   OH244050   1.095   3.488   6.024  0.1550  0.0914 -0.2931
 7520TIP3    H144051   1.115   3.472   6.116 -0.7143  1.1253  0.0935
 7520TIP3    H244052   1.149   3.425   5.976 -0.1659 -1.1773  0.9601
 7521TIP3   OH244053   4.958   5.289   4.031  0.1286 -0.0221 -0.2162
 7521TIP3    H144054   4.908   5.215   4.065  0.7219 -0.5493 -0.4694
 7521TIP3    H244055   4.944   5.286   3.936  3.5275 -2.4794 -0.8468
 7522TIP3   OH244056   4.953   3.912  14.065  0.0864  0.0459 -0.0352
 7522TIP3    H144057   5.023   3.878  14.120 -0.8261  0.2878  1.3352
 7522TIP3    H244058   4.925   3.838  14.011  0.6715 -0.3301  0.1785
 7523TIP3   OH244059   1.730   3.713   6.237  0.3370 -0.2400 -0.1462
 7523TIP3    H144060   1.768   3.646   6.180  1.6151  1.8856 -1.9347
 7523TIP3    H244061   1.803   3.742   6.292  0.4315  1.3329 -1.0649
 7524TIP3   OH244062   0.314   2.854  15.607  0.1158  0.0401 -0.0128
 7524TIP3    H144063   0.233   2.900  15.629  0.1600  1.1971 -2.0699
 7524TIP3    H244064   0.286   2.778  15.555  0.3491  0.8269 -1.3310
 7525TIP3   OH244065   3.156   0.694   5.698  0.1636 -0.5778  0.2858
 7525TIP3    H144066   3.100   0.692   5.620 -1.3575  0.2091  1.3055
 7525TIP3    H244067   3.186   0.604   5.707 -0.4787 -0.9040 -0.6192
 7526TIP3   OH244068   4.320   4.387   4.769  0.0030 -0.0706  0.1827
 7526TIP3    H144069   4.297   4.470   4.727 -0.4239 -0.5526 -0.5487
 7526TIP3    H244070   4.391   4.353   4.715  1.2485  0.5357  1.3712
 7527TIP3   OH244071   5.014   0.599  14.774  0.1192 -0.0604 -0.6408
 7527TIP3    H144072   4.931   0.643  14.791  0.6240  0.4241  0.7014
 7527TIP3    H244073   5.003   0.512  14.811 -0.0876 -0.2959 -1.2485
 7528TIP3   OH244074   3.547   2.999  16.697  0.0849 -0.2832 -0.1602
 7528TIP3    H144075   3.552   2.941  16.621  1.6956  1.0950 -1.1784
 7528TIP3    H244076   3.592   2.951  16.767  0.6268 -0.6414 -0.7380
 7529TIP3   OH244077   2.040   2.626   5.194 -0.2068 -0.2172 -0.2772
 7529TIP3    H144078   2.053   2.706   5.144 -0.7203  0.1650  0.1755
 7529TIP3    H244079   2.019   2.560   5.129 -0.5306  0.1930 -0.5987
 7530TIP3   OH244080   6.349   4.554   1.479 -0.1331 -0.4586 -0.0110
 7530TIP3    H144081   6.256   4.535   1.469 -0.2308 -1.3211  1.9953
 7530TIP3    H244082   6.355   4.649   1.478 -0.8990 -0.4144 -1.0896
 7531TIP3   OH244083   6.254   0.947   4.776 -0.0363 -0.0854  0.0063
 7531TIP3    H144084   6.169   0.958   4.820  0.6196  1.0913  1.0568
 7531TIP3    H244085   6.296   1.032   4.785  0.3596  0.0364 -2.5218
 7532TIP3   OH244086   6.771   2.353  13.805  0.8016 -0.1219  0.0064
 7532TIP3    H144087   6.818   2.426  13.844 -2.8635  2.0097  0.9397
 7532TIP3    H244088   6.727   2.311  13.879 -1.0025 -0.1495 -1.0241
 7533TIP3   OH244089   0.626   1.338   3.155 -0.1816 -0.0272  0.4662
 7533TIP3    H144090   0.578   1.270   3.107  0.2323  0.4593 -0.6760
 7533TIP3    H244091   0.569   1.415   3.152  0.1980  0.2461  0.0081
 7534TIP3   OH244092   6.819   4.262  16.998  0.2671  0.0751 -0.1767
 7534TIP3    H144093   6.723   4.261  16.994  0.2666  1.2449 -1.0956
 7534TIP3    H244094   6.842   4.355  16.993  1.4662 -0.2364 -0.9735
 7535TIP3   OH244095   3.413   3.830   4.594  0.0862  0.1517  0.7134
 7535TIP3    H144096   3.358   3.799   4.666 -0.2547 -1.1595 -0.0818
 7535TIP3    H244097   3.366   3.805   4.515 -0.0495  2.4552 -0.0345
 7536TIP3   OH244098   6.595   1.819  14.770 -0.3494 -0.0446  0.2577
 7536TIP3    H144099   6.525   1.856  14.824  0.2135  1.5393 -0.0391
 7536TIP3    H244100   6.655   1.892  14.756  0.6611 -1.0157 -0.6460
 7537TIP3   OH244101   2.973   2.691  12.846 -0.2222 -0.0192  0.0600
 7537TIP3    H144102   2.929   2.607  12.837 -0.5801  0.3557 -1.9957
 7537TIP3    H244103   2.917   2.741  12.906  0.2066 -1.3327  1.6252
 7538TIP3   OH244104   0.084   5.177  13.024  0.1777 -0.6598  0.1762
 7538TIP3    H144105   0.141   5.193  13.100  0.1124  0.7272 -0.0403
 7538TIP3    H244106   0.143   5.151  12.954  0.3817 -0.6621  0.3496
 7539TIP3   OH244107   3.440   1.072   4.865 -0.8131 -0.0307  0.1762
 7539TIP3    H144108   3.428   0.983   4.898 -0.6225 -0.2815 -0.4325
 7539TIP3    H244109   3.535   1.084   4.862 -0.8301  0.5659  1.2295
 7540TIP3   OH244110   6.751   3.151  14.801 -0.6717  0.3530  0.2572
 7540TIP3    H144111   6.821   3.087  14.816  0.1595  1.1848  0.0533
 7540TIP3    H244112   6.716   3.129  14.715  0.2846  0.7698 -0.2506
 7541TIP3   OH244113   5.391   1.608  12.309 -0.0494 -0.2905 -0.3481
 7541TIP3    H144114   5.486   1.605  12.320  0.0103 -1.3735 -1.0895
 7541TIP3    H244115   5.359   1.527  12.348 -0.5684 -0.4341 -1.0511
 7542TIP3   OH244116   1.988   4.066   2.730 -0.6143  0.2464 -0.2232
 7542TIP3    H144117   1.994   4.095   2.821  1.3089 -0.6723 -0.0060
 7542TIP3    H244118   1.953   3.977   2.736  2.6341 -1.1637  0.0113
 7543TIP3   OH244119   2.729   1.612  16.943 -0.0623 -0.2313  0.3196
 7543TIP3    H144120   2.794   1.652  17.000 -1.1076  1.2308  0.5687
 7543TIP3    H244121   2.774   1.601  16.859  0.4714  0.9104  0.4398
 7544TIP3   OH244122   6.601   0.841   4.697  0.2252  0.6122  0.0028
 7544TIP3    H144123   6.560   0.928   4.691 -1.4420 -0.1003  0.4261
 7544TIP3    H244124   6.577   0.798   4.615  1.5072  0.7178 -0.4440
 7545TIP3   OH244125   3.269   2.655  13.784 -0.0023  0.0508  0.0812
 7545TIP3    H144126   3.221   2.676  13.704  0.0658  0.1802  0.0757
 7545TIP3    H244127   3.296   2.739  13.819 -0.5653  0.0270  0.5697
 7546TIP3   OH244128   1.251   5.792   4.088 -0.1886 -0.0314  0.1749
 7546TIP3    H144129   1.231   5.832   4.004  0.7192  1.1483  0.4973
 7546TIP3    H244130   1.325   5.842   4.122  0.0873 -1.1095  1.2370
 7547TIP3   OH244131   1.775   3.380  14.305  0.2073  0.1393 -0.3245
 7547TIP3    H144132   1.722   3.443  14.257 -0.4247  0.4101  0.7004
 7547TIP3    H244133   1.712   3.322  14.347  0.7728 -1.0389 -1.0378
 7548TIP3   OH244134   6.147   4.363   3.909 -0.7963 -0.5206 -0.1735
 7548TIP3    H144135   6.176   4.442   3.954 -1.0232  0.3721 -1.5187
 7548TIP3    H244136   6.097   4.314   3.974  0.8996 -0.4789  1.2292
 7549TIP3   OH244137   4.821   2.739  16.734  0.1284  0.0888 -0.0084
 7549TIP3    H144138   4.863   2.674  16.678 -1.3974 -1.1420  0.1679
 7549TIP3    H244139   4.880   2.748  16.809  0.3394 -1.1908  0.0008
 7550TIP3   OH244140   3.082   0.776  11.687  0.2142 -0.3328  1.2806
 7550TIP3    H144141   2.994   0.760  11.652  0.9375 -2.1258  0.1445
 7550TIP3    H244142   3.090   0.871  11.688 -0.0848 -0.0742 -3.0232
 7551TIP3   OH244143   4.875   2.412   1.311 -0.0918  0.1960  0.2677
 7551TIP3    H144144   4.932   2.458   1.250 -1.1898  0.3639 -0.6591
 7551TIP3    H244145   4.904   2.321   1.306  1.6036  0.6046  1.5606
 7552TIP3   OH244146   3.918   2.923   3.452  0.3792  0.2606 -0.7018
 7552TIP3    H144147   3.843   2.948   3.399 -0.5321  1.9649  1.2517
 7552TIP3    H244148   3.883   2.860   3.515  0.4931  1.2720  0.3987
 7553TIP3   OH244149   3.944   1.007  15.415 -0.2036 -0.6676 -0.1390
 7553TIP3    H144150   4.022   1.062  15.417 -0.2067 -0.6892  0.9172
 7553TIP3    H244151   3.977   0.919  15.399 -0.0157 -0.6714  0.2732
 7554TIP3   OH244152   0.553   3.373   0.127 -0.0306 -0.2203  0.5390
 7554TIP3    H144153   0.482   3.376   0.064 -1.6617 -1.1873  2.2340
 7554TIP3    H244154   0.540   3.450   0.182  0.1438 -0.4579  0.9226
 7555TIP3   OH244155   2.253   2.028  13.422 -0.3672  0.4935 -0.3352
 7555TIP3    H144156   2.190   1.959  13.400 -1.0250  0.6295  1.0289
 7555TIP3    H244157   2.200   2.096  13.464  0.5866  0.8888  0.2599
 7556TIP3   OH244158   1.533   4.848   0.622 -0.9272 -0.8310 -0.3690
 7556TIP3    H144159   1.447   4.861   0.663 -0.6509  0.5958 -0.2142
 7556TIP3    H244160   1.533   4.908   0.548 -0.4127 -1.5309 -0.9541
 7557TIP3   OH244161   6.164   4.113   2.394 -0.3617  0.1266  0.2022
 7557TIP3    H144162   6.257   4.095   2.404 -0.4333 -0.9159 -0.7307
 7557TIP3    H244163   6.123   4.067   2.467 -0.1445  0.7727  0.7443
 7558TIP3   OH244164   4.528   0.902   0.654  0.1881 -1.0164  0.1480
 7558TIP3    H144165   4.606   0.940   0.613  1.4613 -1.9882  1.5365
 7558TIP3    H244166   4.529   0.810   0.628 -1.9947 -0.5596 -1.9047
 7559TIP3   OH244167   5.941   3.352  14.445  0.0980  0.1935 -0.2906
 7559TIP3    H144168   5.932   3.280  14.383 -0.0379  0.1414 -0.2087
 7559TIP3    H244169   5.912   3.317  14.528  0.4853  0.1991 -0.1502
 7560TIP3   OH244170   5.239   2.407  13.888 -0.2062 -0.2648 -0.3179
 7560TIP3    H144171   5.213   2.499  13.877  1.0520  0.1634  0.0509
 7560TIP3    H244172   5.156   2.359  13.890 -0.8815  0.8209 -0.8299
 7561TIP3   OH244173   4.918   5.268   5.024 -0.1436 -0.2795  0.3753
 7561TIP3    H144174   4.996   5.278   5.078 -0.0614  0.1467  0.1825
 7561TIP3    H244175   4.850   5.241   5.085  0.3839 -1.6618  0.3864
 7562TIP3   OH244176   6.562   6.558  14.145  0.2467  0.5958 -0.5312
 7562TIP3    H144177   6.582   6.591  14.057 -0.1860 -0.2108 -0.9498
 7562TIP3    H244178   6.522   6.632  14.191  1.4118  1.3390 -0.6638
 7563TIP3   OH244179   4.815   6.144  16.525 -0.1078  0.0492 -0.1423
 7563TIP3    H144180   4.789   6.099  16.606  0.4673  0.5490  0.3257
 7563TIP3    H244181   4.899   6.105  16.501 -0.4995 -0.4330 -0.7710
 7564TIP3   OH244182   2.710   5.258   2.299  1.3313  0.1130 -0.1715
 7564TIP3    H144183   2.748   5.175   2.270  3.1165  1.1667 -0.9870
 7564TIP3    H244184   2.683   5.241   2.389  1.5804 -1.3722 -0.3430
 7565TIP3   OH244185   2.259   0.573   3.188  0.1032  0.5196 -0.0080
 7565TIP3    H144186   2.169   0.586   3.160 -0.1525 -0.4420  0.3415
 7565TIP3    H244187   2.306   0.552   3.107 -0.0618  0.6196 -0.1306
 7566TIP3   OH244188   5.363   0.177   4.173  0.1455 -0.4461  0.1953
 7566TIP3    H144189   5.392   0.217   4.091  0.1442  2.3681  1.4402
 7566TIP3    H244190   5.381   0.084   4.162 -0.4911 -0.2796 -3.2136
 7567TIP3   OH244191   4.968   4.687   5.850  0.3337 -0.5753  0.2025
 7567TIP3    H144192   5.017   4.757   5.894  1.0830 -0.6342 -0.5204
 7567TIP3    H244193   4.877   4.710   5.865  0.4391 -1.8098  3.7976
 7568TIP3   OH244194   3.524   1.698  16.458  0.3230 -0.3328 -0.7625
 7568TIP3    H144195   3.487   1.683  16.545 -0.1422  0.6686 -0.7696
 7568TIP3    H244196   3.452   1.678  16.398  0.2869  0.0800 -0.8580
 7569TIP3   OH244197   5.223   5.180  14.832  0.0999  0.3440 -0.6018
 7569TIP3    H144198   5.184   5.116  14.772 -0.2271  0.1166 -0.1519
 7569TIP3    H244199   5.298   5.135  14.870 -0.1152  0.2368 -0.3039
 7570TIP3   OH244200   3.009   4.311  17.225  0.3927  0.4299 -0.2561
 7570TIP3    H144201   3.037   4.224  17.252 -0.1513  0.2945 -0.1267
 7570TIP3    H244202   2.914   4.304  17.214  0.2058  1.2454  0.6928
 7571TIP3   OH244203   1.927   6.040  14.313  0.0547  0.5903 -0.0988
 7571TIP3    H144204   2.005   5.992  14.342  0.3072  1.6998  1.1921
 7571TIP3    H244205   1.920   6.022  14.219  0.3083 -1.6692  0.2677
 7572TIP3   OH244206   4.676   2.075  16.066 -0.0844 -0.5961  0.0462
 7572TIP3    H144207   4.612   2.068  15.994  0.7013  0.9777 -0.8618
 7572TIP3    H244208   4.642   2.145  16.121 -0.5424 -1.6211  1.0912
 7573TIP3   OH244209   6.283   3.983   0.400  0.0270 -0.3352 -0.0723
 7573TIP3    H144210   6.306   4.076   0.403  1.1083 -0.6103  1.9774
 7573TIP3    H244211   6.202   3.977   0.449 -2.3523 -0.0023 -3.6064
 7574TIP3   OH244212   5.470   3.301   4.023 -0.1372  0.1877  0.6716
 7574TIP3    H144213   5.521   3.223   4.043 -1.9269 -0.6997  2.1073
 7574TIP3    H244214   5.454   3.296   3.928 -1.2296 -1.8900  0.9087
 7575TIP3   OH244215   3.895   2.972   4.584  0.2959 -0.0791 -0.6107
 7575TIP3    H144216   3.953   2.921   4.640  2.5318  0.4974 -2.2719
 7575TIP3    H244217   3.890   2.922   4.502 -1.0695  0.2054 -0.7265
 7576TIP3   OH244218   1.158   5.966   0.555  0.1302  0.1732 -0.1175
 7576TIP3    H144219   1.094   6.036   0.547  0.0721  0.6663  3.1091
 7576TIP3    H244220   1.242   6.012   0.564  0.4271 -0.2849 -0.5494
 7577TIP3   OH244221   6.601   0.418  15.706  0.8529  0.2952  0.3212
 7577TIP3    H144222   6.617   0.372  15.624  0.4579  1.3350 -0.3476
 7577TIP3    H244223   6.590   0.510  15.681  1.5429  0.7567  1.6233
 7578TIP3   OH244224   0.900   5.600   2.073  0.4396 -0.0193 -0.2165
 7578TIP3    H144225   0.930   5.521   2.117  1.5777  0.8362  0.5884
 7578TIP3    H244226   0.809   5.611   2.103  0.6588 -0.3703  0.5905
 7579TIP3   OH244227   1.870   5.066   4.137  0.4004 -0.0149 -0.0736
 7579TIP3    H144228   1.887   5.143   4.082  0.7389 -0.1855 -0.2129
 7579TIP3    H244229   1.838   5.000   4.075 -1.7004  0.5821  0.3101
 7580TIP3   OH244230   6.723   3.753   3.815  0.2306  0.0526  0.1422
 7580TIP3    H144231   6.757   3.677   3.863  1.4315  1.1614  1.1234
 7580TIP3    H244232   6.641   3.774   3.860  0.6118  0.1930  0.7842
 7581TIP3   OH244233   5.407   1.987  16.947  0.5087 -0.3100  0.6454
 7581TIP3    H144234   5.498   1.967  16.968  0.2313 -2.7357 -0.1926
 7581TIP3    H244235   5.411   2.075  16.908  2.3435  0.0031  1.4196
 7582TIP3   OH244236   0.241   4.564   3.315  0.1185  0.6776  0.6150
 7582TIP3    H144237   0.223   4.470   3.307  0.8318  0.5438  0.5580
 7582TIP3    H244238   0.193   4.591   3.394 -1.5586  0.6489 -0.3518
 7583TIP3   OH244239   1.311   6.397  11.417  0.1025  0.1272  0.2266
 7583TIP3    H144240   1.324   6.356  11.331 -0.7269  0.1856  0.0621
 7583TIP3    H244241   1.340   6.487  11.405 -0.2681  0.2098 -0.0751
 7584TIP3   OH244242   2.832   3.942   4.481 -0.4286  0.0290  0.8020
 7584TIP3    H144243   2.762   3.910   4.424  0.2333  0.1003 -0.0711
 7584TIP3    H244244   2.788   3.964   4.563 -1.2112 -1.2342  0.7415
 7585TIP3   OH244245   2.318   5.685   0.205 -0.1584 -0.0884 -0.0421
 7585TIP3    H144246   2.234   5.701   0.248  0.4360  1.0001  0.7872
 7585TIP3    H244247   2.376   5.659   0.277  0.5687  0.5941 -0.3764
 7586TIP3   OH244248   1.493   2.352  12.612  0.4050  0.1764  0.1141
 7586TIP3    H144249   1.405   2.331  12.580  0.2058 -0.1245  0.8497
 7586TIP3    H244250   1.529   2.268  12.639  0.3042  0.5162  1.3485
 7587TIP3   OH244251   1.246   2.454   5.655 -0.2798 -0.0137  0.1328
 7587TIP3    H144252   1.319   2.514   5.669 -2.1322  2.2074  0.9202
 7587TIP3    H244253   1.240   2.445   5.560  0.1372  0.9316  0.0072
 7588TIP3   OH244254   5.414   6.676   6.024 -0.3450 -0.5203  0.5710
 7588TIP3    H144255   5.389   6.760   6.062 -0.5766 -0.0459 -0.5993
 7588TIP3    H244256   5.336   6.648   5.975  0.5235 -0.2706 -0.9888
 7589TIP3   OH244257   0.735   3.181   3.890  0.4131  0.3450  0.2623
 7589TIP3    H144258   0.736   3.216   3.979 -0.6523  0.8887  0.0702
 7589TIP3    H244259   0.644   3.187   3.863  0.6059 -0.4930 -0.6080
 7590TIP3   OH244260   5.783   2.561   6.182  0.0008 -0.2865 -0.5626
 7590TIP3    H144261   5.784   2.639   6.238 -0.0733 -0.4176 -0.3775
 7590TIP3    H244262   5.690   2.543   6.168  0.0240  0.2091 -1.3777
 7591TIP3   OH244263   6.588   5.066  13.977 -0.4155  0.6346  0.2619
 7591TIP3    H144264   6.589   4.974  14.005 -1.1833  0.6902  0.5007
 7591TIP3    H244265   6.680   5.088  13.962 -0.3260 -0.6920 -1.4859
 7592TIP3   OH244266   3.530   4.717   2.476 -0.0835 -0.4910  0.3371
 7592TIP3    H144267   3.484   4.710   2.393  1.5010 -0.6060 -0.5607
 7592TIP3    H244268   3.612   4.762   2.456  0.4626 -0.7646  1.7710
 7593TIP3   OH244269   1.764   4.706   2.011  0.4634  0.2457 -0.0160
 7593TIP3    H144270   1.719   4.698   1.927  0.9248  0.5899 -0.2963
 7593TIP3    H244271   1.857   4.694   1.990  0.4596 -1.2347  0.6695
 7594TIP3   OH244272   3.495   6.564  12.687  0.0100  0.5913 -0.8366
 7594TIP3    H144273   3.547   6.629  12.734 -0.1874  0.0766  0.1229
 7594TIP3    H244274   3.412   6.608  12.669 -0.3271  0.4564  0.2856
 7595TIP3   OH244275   0.326   0.924   2.609  0.5196  1.2881 -0.3557
 7595TIP3    H144276   0.297   0.988   2.674  0.9002  1.2684 -0.1583
 7595TIP3    H244277   0.415   0.902   2.636 -0.0103 -0.2182  0.2935
 7596TIP3   OH244278   2.950   4.429   0.221  0.6810  0.3956  0.1680
 7596TIP3    H144279   3.008   4.441   0.146  1.9959  0.9978  1.2298
 7596TIP3    H244280   2.961   4.337   0.245  0.5475  0.2973 -0.1402
 7597TIP3   OH244281   1.488   2.173  14.809 -0.0424  0.0859  0.6230
 7597TIP3    H144282   1.478   2.081  14.834  1.7069 -0.2413  0.2411
 7597TIP3    H244283   1.462   2.176  14.717 -0.8628  0.1561  0.8442
 7598TIP3   OH244284   4.280   2.634   5.647  0.3063  0.1968  0.3553
 7598TIP3    H144285   4.220   2.561   5.659 -0.5838  0.5404 -1.7424
 7598TIP3    H244286   4.307   2.629   5.556  1.3620  1.6535  0.5452
 7599TIP3   OH244287   2.175   5.876  11.470  0.3083  0.0235  0.0462
 7599TIP3    H144288   2.172   5.793  11.423  1.5465 -0.3917  0.6366
 7599TIP3    H244289   2.250   5.922  11.432  2.0419 -0.7843  2.2281
 7600TIP3   OH244290   6.565   4.993  11.163 -0.6928  1.0387 -0.1520
 7600TIP3    H144291   6.563   5.017  11.255 -1.3704 -1.0906  0.4371
 7600TIP3    H244292   6.656   5.009  11.136  0.1961 -0.7176  1.6098
 7601TIP3   OH244293   0.645   3.053   0.533 -0.2820  0.0485 -0.7728
 7601TIP3    H144294   0.691   3.013   0.460 -1.0247  2.8849 -2.9966
 7601TIP3    H244295   0.665   3.147   0.526 -1.7037  0.6555  1.7171
 7602TIP3   OH244296   6.269   3.536  14.810  0.1584  0.1266 -0.4138
 7602TIP3    H144297   6.333   3.465  14.810 -1.0080 -1.1975  3.3409
 7602TIP3    H244298   6.184   3.492  14.810 -0.6524  1.6203 -0.4938
 7603TIP3   OH244299   0.151   6.639  15.627 -0.9684 -0.5397 -0.3320
 7603TIP3    H144300   0.161   6.717  15.682 -0.4516  0.4770 -1.7980
 7603TIP3    H244301   0.058   6.618  15.633 -0.8347 -0.8025  1.3360
 7604TIP3   OH244302   0.627   0.447  10.848 -0.4140 -0.4381  0.7002
 7604TIP3    H144303   0.566   0.520  10.837  1.7608  1.3294 -0.4283
 7604TIP3    H244304   0.690   0.457  10.777  0.3025 -3.1236  0.8463
 7605TIP3   OH244305   4.760   3.966  13.180  0.1574  0.2670 -0.1050
 7605TIP3    H144306   4.670   3.963  13.212  0.9049 -0.8571  2.0646
 7605TIP3    H244307   4.809   3.907  13.237  2.5639  1.9179 -0.2745
 7606TIP3   OH244308   2.998   1.939   2.496 -0.0120 -0.0028  0.5162
 7606TIP3    H144309   3.094   1.945   2.491  0.1713 -1.8448  0.8208
 7606TIP3    H244310   2.967   2.029   2.487  1.7535  0.6458  0.5398
 7607TIP3   OH244311   6.453   5.816  10.749  0.5224 -0.1685 -0.4422
 7607TIP3    H144312   6.387   5.868  10.703  0.3204  0.1731  0.2303
 7607TIP3    H244313   6.488   5.874  10.816 -2.0631 -1.7924  2.5864
 7608TIP3   OH244314   4.744   1.685   5.950 -0.6728 -0.4332  0.3600
 7608TIP3    H144315   4.655   1.652   5.955 -0.3160 -1.6073 -0.7125
 7608TIP3    H244316   4.734   1.779   5.933 -1.6860 -0.3898  1.1084
 7609TIP3   OH244317   1.582   0.597   2.308 -0.2178  0.0224 -0.3266
 7609TIP3    H144318   1.617   0.681   2.338 -0.3911  0.4478 -1.2815
 7609TIP3    H244319   1.491   0.596   2.340 -0.9991  1.2984 -2.3213
 7610TIP3   OH244320   2.101   2.552  11.300 -0.0396 -0.0552  0.0200
 7610TIP3    H144321   2.163   2.619  11.273 -0.0272  0.0144  0.2233
 7610TIP3    H244322   2.136   2.519  11.383  0.6795 -1.2354 -0.7130
 7611TIP3   OH244323   0.340   0.995  16.031 -0.0013  0.6045 -0.3767
 7611TIP3    H144324   0.403   0.952  15.973  0.6627 -0.9216  1.3738
 7611TIP3    H244325   0.257   0.951  16.013  0.4100 -0.5776  0.4805
 7612TIP3   OH244326   5.872   3.451   3.591 -0.4528  0.1367 -0.3212
 7612TIP3    H144327   5.924   3.464   3.511 -0.8035  1.5381 -0.3517
 7612TIP3    H244328   5.922   3.497   3.659 -0.0707 -1.1829  0.3312
 7613TIP3   OH244329   2.322   2.220   4.938 -0.2733  0.0432 -0.6284
 7613TIP3    H144330   2.410   2.186   4.951  0.4262  1.7746 -0.5911
 7613TIP3    H244331   2.323   2.255   4.848 -0.0488  2.4314  0.2372
 7614TIP3   OH244332   3.595   4.747   6.644  0.0678  0.3967 -0.2802
 7614TIP3    H144333   3.684   4.756   6.610 -0.0075  0.3312 -0.4961
 7614TIP3    H244334   3.556   4.679   6.590  0.3689 -0.6568  0.7894
 7615TIP3   OH244335   2.588   4.709   2.199 -0.1473 -0.1905  0.2380
 7615TIP3    H144336   2.665   4.729   2.252 -0.2975  0.1503  0.3299
 7615TIP3    H244337   2.613   4.631   2.149  0.5844  0.4255 -0.3978
 7616TIP3   OH244338   1.279   4.734  11.294  0.5938  0.1737 -0.1214
 7616TIP3    H144339   1.235   4.760  11.213  0.2793  0.8349  0.2594
 7616TIP3    H244340   1.330   4.656  11.270  1.7045  1.2255 -1.3278
 7617TIP3   OH244341   2.561   3.838   4.090  0.4646 -0.2788  0.2409
 7617TIP3    H144342   2.525   3.916   4.048  2.0844  1.9909  2.7174
 7617TIP3    H244343   2.618   3.799   4.024  1.1333  1.8073 -0.5132
 7618TIP3   OH244344   4.915   5.929  13.541  0.4503 -0.8323 -0.3111
 7618TIP3    H144345   4.980   5.993  13.571 -1.7765  1.1097  0.6820
 7618TIP3    H244346   4.872   5.971  13.466 -0.7367 -1.3538  0.0501
 7619TIP3   OH244347   3.715   0.176   4.221  0.4547  0.4577 -0.3884
 7619TIP3    H144348   3.739   0.084   4.211 -1.2340  0.0978 -1.7715
 7619TIP3    H244349   3.628   0.173   4.260  1.9266  1.6482  3.3382
 7620TIP3   OH244350   5.727   1.705   3.315  0.4936  0.4928  0.3720
 7620TIP3    H144351   5.748   1.795   3.337 -1.2710  1.0254  0.0407
 7620TIP3    H244352   5.701   1.708   3.223  0.0258 -0.2861  0.4698
 7621TIP3   OH244353   1.872   0.421  11.833 -0.3603 -0.0129  0.2091
 7621TIP3    H144354   1.945   0.365  11.807 -0.1529 -0.0809  0.9042
 7621TIP3    H244355   1.879   0.497  11.776 -1.7167 -1.4411 -2.0199
 7622TIP3   OH244356   1.820   1.648  12.951  0.3286  0.1505 -0.0935
 7622TIP3    H144357   1.741   1.593  12.958  0.4957 -0.0323  0.3746
 7622TIP3    H244358   1.893   1.587  12.963  0.5951  0.1229 -1.6406
 7623TIP3   OH244359   2.269   0.525  16.295 -0.0202  0.1728  0.0676
 7623TIP3    H144360   2.197   0.586  16.279 -0.3640 -0.0787  0.6038
 7623TIP3    H244361   2.343   0.560  16.245 -0.5879  0.2847 -0.7056
 7624TIP3   OH244362   1.275   1.897   1.990  0.2344 -0.0895  0.9436
 7624TIP3    H144363   1.345   1.833   1.973 -2.5970 -3.4850  0.8706
 7624TIP3    H244364   1.239   1.917   1.903  0.6905  1.1836  1.0294
 7625TIP3   OH244365   4.671   2.264   3.577  0.0774 -0.1974 -0.1901
 7625TIP3    H144366   4.666   2.251   3.671 -1.8541 -0.9449 -0.3653
 7625TIP3    H244367   4.726   2.342   3.566 -0.3122  0.3548  1.5729
 7626TIP3   OH244368   0.843   5.984  13.089  0.0296  0.0456  0.4952
 7626TIP3    H144369   0.878   6.071  13.109  0.2993 -0.0120  0.2797
 7626TIP3    H244370   0.921   5.930  13.076 -0.1225 -0.3603  1.1784
 7627TIP3   OH244371   0.354   4.344   6.163  0.4476 -0.3502 -0.0255
 7627TIP3    H144372   0.442   4.308   6.167  0.9303  0.6322 -1.2315
 7627TIP3    H244373   0.359   4.415   6.099 -0.5662  1.6304  1.9443
 7628TIP3   OH244374   3.919   6.714   2.346  0.7167  0.0298 -0.1322
 7628TIP3    H144375   3.944   6.621   2.345  1.7198  0.2380  1.5278
 7628TIP3    H244376   3.996   6.760   2.315  0.5839  0.3787  0.0507
 7629TIP3   OH244377   4.553   2.747   2.629 -0.3258 -0.0815 -0.4092
 7629TIP3    H144378   4.498   2.819   2.599 -0.1856 -0.2864 -1.1893
 7629TIP3    H244379   4.642   2.777   2.612 -0.1414  0.4822  1.3665
 7630TIP3   OH244380   6.222   5.222  15.671  0.0681 -0.4563  0.0424
 7630TIP3    H144381   6.278   5.272  15.730 -0.5362  0.2709  0.0144
 7630TIP3    H244382   6.133   5.249  15.694 -0.1552  1.1567 -2.3301
 7631TIP3   OH244383   2.397   2.087  14.546  0.3148  0.2452 -0.1929
 7631TIP3    H144384   2.451   2.121  14.617 -0.7981 -0.4209  1.0226
 7631TIP3    H244385   2.459   2.071  14.475  1.4475  1.0334  0.5704
 7632TIP3   OH244386   0.723   6.787  13.336  0.4412  0.4368  0.9719
 7632TIP3    H144387   0.659   6.722  13.306  2.7023 -1.6349  0.2255
 7632TIP3    H244388   0.685   6.871  13.312 -0.5262 -0.8272 -2.6634
 7633TIP3   OH244389   4.149   5.634  12.736 -0.3264  0.4984  0.2348
 7633TIP3    H144390   4.067   5.620  12.782 -0.7618  2.2421  0.0632
 7633TIP3    H244391   4.206   5.563  12.767 -2.1692 -1.3719 -0.4379
 7634TIP3   OH244392   1.495   0.109  12.231  0.2209  0.4262 -0.0037
 7634TIP3    H144393   1.536   0.077  12.151 -0.3906  1.1181 -0.6105
 7634TIP3    H244394   1.528   0.052  12.300  0.4598 -0.4159 -0.8039
 7635TIP3   OH244395   1.006   4.281   3.641 -0.1277  0.4781 -0.3946
 7635TIP3    H144396   1.033   4.190   3.655 -1.6493  0.2986  1.7753
 7635TIP3    H244397   0.967   4.280   3.553 -1.0789 -1.2236 -0.0036
 7636TIP3   OH244398   0.429   0.079   0.491  0.2058 -0.5059 -0.3793
 7636TIP3    H144399   0.337   0.059   0.476 -0.1201  0.0774  0.7095
 7636TIP3    H244400   0.475  -0.003   0.475 -0.5425 -0.8861 -0.6173
 7637TIP3   OH244401   6.353   1.409   4.887 -0.3211  0.2150  0.5459
 7637TIP3    H144402   6.413   1.477   4.919 -0.9419  0.4247  1.2949
 7637TIP3    H244403   6.274   1.456   4.861  0.1543  0.0464 -1.3412
 7638TIP3   OH244404   0.592   3.241   6.137 -0.3671  0.2114  0.3584
 7638TIP3    H144405   0.512   3.221   6.187 -0.0107 -0.7459  0.5735
 7638TIP3    H244406   0.655   3.268   6.204 -1.1022  3.1228 -0.0090
 7639TIP3   OH244407   4.490   0.292   0.131 -0.4193  0.0121  0.4729
 7639TIP3    H144408   4.399   0.261   0.131 -0.2291 -0.7143  2.2733
 7639TIP3    H244409   4.539   0.222   0.087 -0.6959  0.3146 -0.3283
 7640TIP3   OH244410   4.125   3.628  11.157 -0.4936  0.2200  0.1005
 7640TIP3    H144411   4.049   3.571  11.144 -2.1340  2.0285  1.2860
 7640TIP3    H244412   4.200   3.571  11.140 -2.0753 -1.5176 -1.6274
 7641TIP3   OH244413   1.967   6.492   5.879 -0.9022 -0.7577  0.3087
 7641TIP3    H144414   1.897   6.557   5.876 -1.3719 -1.2781 -0.1250
 7641TIP3    H244415   1.994   6.490   5.971 -0.8223  0.1074  0.3069
 7642TIP3   OH244416   2.993   5.154  14.754 -0.1105  0.1378  0.4252
 7642TIP3    H144417   2.935   5.143  14.829 -0.7776 -2.1266 -0.3512
 7642TIP3    H244418   3.057   5.083  14.761  0.2372  0.3054 -0.7742
 7643TIP3   OH244419   2.827   3.787  13.934  0.6348 -0.2195  0.2241
 7643TIP3    H144420   2.869   3.805  13.850 -1.2236  0.1577 -0.6824
 7643TIP3    H244421   2.769   3.862  13.949  0.2930 -0.6906  1.4232
 7644TIP3   OH244422   1.849   1.940   5.225  0.4163 -0.4758  0.0710
 7644TIP3    H144423   1.881   1.871   5.167  0.0128 -1.3172  0.8229
 7644TIP3    H244424   1.771   1.903   5.267  0.5475  0.1995  0.9558
 7645TIP3   OH244425   3.506   3.371   2.667  0.2286 -0.5285  0.1334
 7645TIP3    H144426   3.511   3.379   2.762 -1.5285 -0.7347  0.2712
 7645TIP3    H244427   3.483   3.279   2.652 -2.5601  0.1607 -0.3018
 7646TIP3   OH244428   5.824   2.498   1.098  0.2954  0.0941  0.6005
 7646TIP3    H144429   5.773   2.438   1.043  0.8503 -1.6589  1.9017
 7646TIP3    H244430   5.761   2.532   1.162 -0.1156  1.3182 -0.3968
 7647TIP3   OH244431   5.013   0.148   2.612  0.2487 -0.1520 -0.6372
 7647TIP3    H144432   5.085   0.090   2.589  0.2390 -0.0572 -0.9170
 7647TIP3    H244433   4.946   0.129   2.546 -0.4965 -1.1583  0.3699
 7648TIP3   OH244434   3.624   3.246   1.629 -0.0045  0.1450  0.1552
 7648TIP3    H144435   3.675   3.326   1.640  0.3530  0.0421 -0.6588
 7648TIP3    H244436   3.533   3.273   1.640  0.0531  0.8383 -0.9030
 7649TIP3   OH244437   0.693   3.406  15.458  0.1263  0.3292  0.6279
 7649TIP3    H144438   0.784   3.380  15.450  0.2619  1.0634 -0.3852
 7649TIP3    H244439   0.661   3.357  15.534  1.7821  1.2627  2.0026
 7650TIP3   OH244440   0.642   2.012   4.904  0.1915 -0.0011  0.1253
 7650TIP3    H144441   0.673   1.922   4.895  0.2430 -0.2497  2.2418
 7650TIP3    H244442   0.623   2.022   4.998 -3.3375  1.0533 -0.5835
 7651TIP3   OH244443   2.473   6.478   1.452  0.1251 -0.0126  0.3762
 7651TIP3    H144444   2.435   6.499   1.367 -1.2924 -2.3783  0.3277
 7651TIP3    H244445   2.541   6.544   1.465 -0.7100  1.3999 -1.8202
 7652TIP3   OH244446   6.733   5.468  11.070  0.1127 -0.2953 -0.1204
 7652TIP3    H144447   6.801   5.533  11.052  0.0788  0.7322  2.9440
 7652TIP3    H244448   6.763   5.389  11.026  1.8692  0.8635 -1.1279
 7653TIP3   OH244449   2.697   6.477  11.729 -0.1957  0.2128  0.2543
 7653TIP3    H144450   2.719   6.569  11.737 -0.2604  0.3755 -1.1731
 7653TIP3    H244451   2.619   6.466  11.784  0.0898  0.8846  0.8113
 7654TIP3   OH244452   2.955   0.960   0.842 -0.4430 -0.6686 -0.1870
 7654TIP3    H144453   2.861   0.941   0.845 -0.4120 -0.9993 -0.9887
 7654TIP3    H244454   2.966   1.010   0.761 -0.1645  0.7875  0.7105
 7655TIP3   OH244455   4.102   0.157  13.537  0.1392 -0.3335  0.5648
 7655TIP3    H144456   4.072   0.121  13.454 -0.4875  0.5193  0.4024
 7655TIP3    H244457   4.021   0.187  13.580  0.7117  2.1924  0.0501
 7656TIP3   OH244458   5.583   4.876  13.815 -0.0233 -0.0235  0.6627
 7656TIP3    H144459   5.624   4.957  13.845 -0.3604 -0.7354  3.2948
 7656TIP3    H244460   5.656   4.824  13.780  0.3500  0.9702 -0.1042
 7657TIP3   OH244461   6.123   3.866   3.639 -0.4792 -0.6297 -0.3240
 7657TIP3    H144462   6.104   3.939   3.580 -0.7863  0.7140  1.3736
 7657TIP3    H244463   6.170   3.802   3.584  1.0912  1.4366 -1.5319
 7658TIP3   OH244464   2.718   5.508   2.153 -0.5323  0.1808  0.4690
 7658TIP3    H144465   2.774   5.456   2.095  0.0524  1.7226 -0.4075
 7658TIP3    H244466   2.629   5.492   2.121 -0.1975  1.2777 -1.1371
 7659TIP3   OH244467   5.079   3.599  12.864 -0.0968  0.5642  0.7115
 7659TIP3    H144468   5.028   3.643  12.932 -0.5807 -0.9746  1.3926
 7659TIP3    H244469   5.092   3.511  12.898  0.7057  0.1212 -0.6766
 7660TIP3   OH244470   3.325   2.348  14.853 -0.2069  0.3650  0.3581
 7660TIP3    H144471   3.411   2.311  14.833 -0.0129  1.6846 -1.5588
 7660TIP3    H244472   3.263   2.279  14.832  0.2873  0.1601 -0.4481
 7661TIP3   OH244473   1.515   6.002   4.286 -0.8468  0.6706 -0.5963
 7661TIP3    H144474   1.546   5.927   4.337 -0.7306  0.8924 -0.3415
 7661TIP3    H244475   1.449   6.043   4.342  1.0994  2.4509  0.5323
 7662TIP3   OH244476   1.884   0.192  14.609 -0.3374  0.0189 -0.1421
 7662TIP3    H144477   1.915   0.173  14.697 -0.5492 -1.0718 -0.2897
 7662TIP3    H244478   1.789   0.199  14.618 -0.1551  3.5115  0.3429
 7663TIP3   OH244479   4.807   3.874  12.200  0.2967 -0.3047 -0.1630
 7663TIP3    H144480   4.856   3.956  12.195  0.8117 -0.4425  1.7879
 7663TIP3    H244481   4.716   3.900  12.190  0.5843  0.1891 -1.8752
 7664TIP3   OH244482   0.052   2.932   3.312  0.4729 -0.2531 -0.0305
 7664TIP3    H144483   0.041   3.027   3.310 -0.9831 -0.3942  0.2387
 7664TIP3    H244484   0.048   2.905   3.220  1.1319 -0.0382 -0.1257
 7665TIP3   OH244485   2.250   3.733   3.411 -0.4232 -0.7132 -0.1114
 7665TIP3    H144486   2.208   3.673   3.472  0.5355 -1.4776 -0.1860
 7665TIP3    H244487   2.221   3.820   3.440 -0.6955 -1.1166  0.8696
 7666TIP3   OH244488   3.067   4.952   2.897  0.0312  0.2960  0.4588
 7666TIP3    H144489   3.072   4.938   2.992  1.5580  1.3692  0.5612
 7666TIP3    H244490   3.067   4.863   2.860  2.4487 -0.1646  1.3627
 7667TIP3   OH244491   3.873   2.236  15.019 -0.1466 -0.1593  0.6147
 7667TIP3    H144492   3.889   2.142  15.027  2.7196 -0.0198 -1.8163
 7667TIP3    H244493   3.912   2.274  15.098  1.0804 -0.8539  0.3643
 7668TIP3   OH244494   2.085   6.461  11.284 -0.0573 -0.1627  0.0815
 7668TIP3    H144495   2.124   6.524  11.223  0.3220 -2.1981 -1.9370
 7668TIP3    H244496   2.001   6.500  11.309  0.1580  1.1452 -1.1040
 7669TIP3   OH244497   3.655   6.232  13.431 -0.0519  0.4963  0.8699
 7669TIP3    H144498   3.682   6.306  13.376 -1.0251 -0.1895 -0.5934
 7669TIP3    H244499   3.737   6.194  13.462  0.5008  1.4337  0.6058
 7670TIP3   OH244500   1.223   2.857   5.840  0.3931 -0.2614  0.5407
 7670TIP3    H144501   1.269   2.861   5.924  0.7501 -2.1181  0.4570
 7670TIP3    H244502   1.173   2.776   5.844 -0.0027 -0.1039 -0.8473
 7671TIP3   OH244503   3.411   1.156   3.804  0.5550  0.2567 -0.2069
 7671TIP3    H144504   3.422   1.142   3.898 -2.2026 -0.8702  0.0275
 7671TIP3    H244505   3.381   1.072   3.770 -1.8334  1.4974 -1.4512
 7672TIP3   OH244506   4.278   6.643   5.742  0.2487 -0.0132  0.3074
 7672TIP3    H144507   4.252   6.563   5.697  2.1620  0.2868 -1.4476
 7672TIP3    H244508   4.368   6.628   5.769  0.2326  1.1056  1.0474
 7673TIP3   OH244509   5.201   0.894   2.564 -0.6583  0.7480 -0.4231
 7673TIP3    H144510   5.114   0.933   2.555 -1.1773 -0.4888 -0.8882
 7673TIP3    H244511   5.229   0.920   2.652 -1.5557  1.0419 -0.2075
 7674TIP3   OH244512   4.319   2.181   2.118 -0.2249 -0.6079  0.0518
 7674TIP3    H144513   4.408   2.151   2.097 -0.4260 -1.4875  0.4296
 7674TIP3    H244514   4.323   2.275   2.105  0.1907 -0.8518 -2.0972
 7675TIP3   OH244515   2.079   1.379   2.474  0.2963 -0.1386 -0.5524
 7675TIP3    H144516   2.024   1.337   2.407  0.2877 -0.0203 -0.6198
 7675TIP3    H244517   2.028   1.373   2.555 -1.6541  3.4761 -1.2983
 7676TIP3   OH244518   2.779   3.076  15.542 -0.2187  0.0255  0.8448
 7676TIP3    H144519   2.738   3.078  15.629  0.5246  1.0483  1.1832
 7676TIP3    H244520   2.827   3.158  15.536  0.5322 -0.4693 -0.1593
 7677TIP3   OH244521   2.278   1.622  11.232 -0.4770 -0.5661  0.0861
 7677TIP3    H144522   2.334   1.594  11.304 -1.3823 -0.2074  0.9360
 7677TIP3    H244523   2.339   1.659  11.168  0.2115  0.6886  1.4010
 7678TIP3   OH244524   2.756   6.186   5.015 -0.5932 -0.4067 -0.4624
 7678TIP3    H144525   2.666   6.165   5.037 -0.4346 -2.5003 -1.5488
 7678TIP3    H244526   2.805   6.105   5.032  1.1490  0.7525  0.3735
 7679TIP3   OH244527   0.248   3.881  14.753  0.3092 -0.6517 -0.5138
 7679TIP3    H144528   0.292   3.898  14.836 -0.9045 -1.6112  0.3609
 7679TIP3    H244529   0.292   3.803  14.719  0.5538 -0.4820 -0.5884
 7680TIP3   OH244530   3.664   4.196   4.954 -0.0247 -0.3558 -0.7151
 7680TIP3    H144531   3.746   4.233   4.923  0.5294 -2.0990 -1.4584
 7680TIP3    H244532   3.637   4.135   4.885 -2.1369  0.4108 -0.6594
 7681TIP3   OH244533   4.938   5.480  13.484  0.0949 -0.0693  0.0890
 7681TIP3    H144534   4.876   5.541  13.525  0.7594  0.7716 -0.1144
 7681TIP3    H244535   5.002   5.537  13.442  0.9323 -0.9223  0.1853
 7682TIP3   OH244536   1.778   2.460   3.859 -0.5874 -0.1361  0.6526
 7682TIP3    H144537   1.744   2.419   3.939  1.9919 -0.0353  1.9023
 7682TIP3    H244538   1.775   2.554   3.878 -1.3659 -0.0264  0.0082
 7683TIP3   OH244539   6.316   5.388  15.891 -0.0471  0.0325 -0.1351
 7683TIP3    H144540   6.232   5.431  15.876 -0.7925 -1.7370 -1.3175
 7683TIP3    H244541   6.315   5.364  15.983 -1.7812 -1.7302 -0.5386
 7684TIP3   OH244542   0.853   2.936   6.675  0.3968  0.1885  0.2600
 7684TIP3    H144543   0.869   2.851   6.635 -1.2405  0.1805 -0.4410
 7684TIP3    H244544   0.858   2.919   6.769 -1.1371 -0.9964  0.1745
 7685TIP3   OH244545   3.504   6.502   5.632 -0.2092 -0.4374 -0.0475
 7685TIP3    H144546   3.498   6.550   5.715 -2.4171  0.3673 -0.6028
 7685TIP3    H244547   3.417   6.509   5.594  1.3644  1.8395 -3.8899
 7686TIP3   OH244548   6.403   0.546   0.786 -0.0357 -0.3845 -0.7507
 7686TIP3    H144549   6.447   0.631   0.784  1.2700 -1.0536 -1.5292
 7686TIP3    H244550   6.473   0.482   0.795 -0.8281 -1.4886 -1.9769
 7687TIP3   OH244551   5.269   1.092   2.306  0.4012  0.1658 -0.6125
 7687TIP3    H144552   5.323   1.114   2.382  0.5773 -0.8489 -0.4218
 7687TIP3    H244553   5.282   0.998   2.295 -1.4857 -0.1441 -0.4543
 7688TIP3   OH244554   4.281   2.630  10.583 -0.3737  0.0400  0.2007
 7688TIP3    H144555   4.338   2.670  10.517 -0.3896 -0.9571 -0.4359
 7688TIP3    H244556   4.198   2.614  10.538 -0.3985 -0.6206  0.4555
 7689TIP3   OH244557   6.207   0.661  16.049 -0.5915 -0.1795 -0.7452
 7689TIP3    H144558   6.226   0.568  16.055 -0.7340 -0.4129 -2.9967
 7689TIP3    H244559   6.290   0.705  16.065 -1.0382 -0.4714  3.1658
 7690TIP3   OH244560   1.276   6.699   1.715  0.3963  0.5596  0.3012
 7690TIP3    H144561   1.293   6.748   1.795  1.0845 -0.3786  0.7530
 7690TIP3    H244562   1.218   6.628   1.744 -0.2011  0.8140 -0.2479
 7691TIP3   OH244563   5.052   1.570   2.623  0.5821 -0.6265  0.0154
 7691TIP3    H144564   4.993   1.499   2.646 -0.9295  0.5066 -0.1500
 7691TIP3    H244565   5.074   1.555   2.531  3.6210 -3.0899  0.9962
 7692TIP3   OH244566   4.888   5.493  11.505 -0.2304 -0.3102 -0.6115
 7692TIP3    H144567   4.974   5.513  11.468 -0.6241  0.3750 -1.1816
 7692TIP3    H244568   4.907   5.449  11.588  0.6757  0.4174 -0.4180
 7693TIP3   OH244569   5.672   2.461   1.532  0.3608  0.2811 -0.1961
 7693TIP3    H144570   5.647   2.553   1.532  2.2142  0.8537 -2.1974
 7693TIP3    H244571   5.643   2.428   1.447  1.6794 -0.3773 -0.4151
 7694TIP3   OH244572   6.312   5.397  11.189 -0.0678 -0.7263  0.4009
 7694TIP3    H144573   6.227   5.433  11.166 -0.0155 -1.6683 -1.4522
 7694TIP3    H244574   6.366   5.473  11.210 -0.8778  0.0100 -0.1304
 7695TIP3   OH244575   2.989   5.917  13.899 -0.4249  0.4718  0.5277
 7695TIP3    H144576   3.059   5.901  13.963  0.3020  1.3906 -0.0084
 7695TIP3    H244577   2.978   6.012  13.900 -1.0191  0.4130 -0.0840
 7696TIP3   OH244578   4.112   2.050  13.712  0.2424 -0.3884  0.5436
 7696TIP3    H144579   4.053   2.110  13.666  0.4457  0.0367  0.8402
 7696TIP3    H244580   4.168   2.107  13.764  1.7684 -0.6780 -0.6958
 7697TIP3   OH244581   1.616   6.137   2.686 -0.4174  0.1935  0.4382
 7697TIP3    H144582   1.605   6.119   2.592 -1.0623 -0.5297  0.6476
 7697TIP3    H244583   1.706   6.112   2.705  0.1059  1.4684 -0.2357
 7698TIP3   OH244584   6.407   5.045  11.945  0.0836  0.2240 -0.0197
 7698TIP3    H144585   6.412   5.079  12.035  0.6806  1.1992 -0.4126
 7698TIP3    H244586   6.497   5.022  11.923  0.0095  0.3978 -0.5190
 7699TIP3   OH244587   4.714   6.662  16.274  0.0611  0.0704  0.3959
 7699TIP3    H144588   4.649   6.695  16.336 -0.6060 -1.4578  0.5671
 7699TIP3    H244589   4.754   6.587  16.319 -1.8555 -2.3735 -1.6772
 7700TIP3   OH244590   5.969   1.361   2.480 -0.3392  0.2071  0.1863
 7700TIP3    H144591   6.012   1.370   2.395  0.5519  0.5660  0.6626
 7700TIP3    H244592   5.918   1.441   2.491 -0.7692 -0.0136 -0.1762
 7701TIP3   OH244593   3.924   1.588  13.126 -0.2095 -0.3361 -0.4004
 7701TIP3    H144594   4.014   1.562  13.106 -0.1346  0.4193 -1.0821
 7701TIP3    H244595   3.912   1.671  13.081  0.6661  2.7746  4.3430
 7702TIP3   OH244596   5.708   0.341  12.127 -0.0646  0.7980  0.1075
 7702TIP3    H144597   5.666   0.268  12.173  1.8764  0.6652  1.8097
 7702TIP3    H244598   5.720   0.309  12.038  0.0210 -0.6637  0.6143
 7703TIP3   OH244599   1.513   6.367  16.646 -0.4265 -0.0287  0.0379
 7703TIP3    H144600   1.566   6.338  16.720 -1.0826 -1.2884  0.0343
 7703TIP3    H244601   1.535   6.307  16.575  1.1479  1.9181 -1.2524
 7704TIP3   OH244602   2.051   2.765   2.097 -0.0578 -0.2528 -0.0643
 7704TIP3    H144603   2.009   2.682   2.074 -0.3782 -0.1327  0.0751
 7704TIP3    H244604   2.119   2.777   2.031  1.2793 -1.5717  0.9790
 7705TIP3   OH244605   5.577   4.823   4.871  0.0262  0.0307 -0.2153
 7705TIP3    H144606   5.645   4.768   4.832 -0.4826 -1.5400  1.0151
 7705TIP3    H244607   5.495   4.789   4.834 -0.3676 -0.7185  1.2384
 7706TIP3   OH244608   3.718   4.174   2.450  0.2399 -0.2323  0.9876
 7706TIP3    H144609   3.645   4.158   2.389  0.7107 -0.9648  0.5991
 7706TIP3    H244610   3.788   4.118   2.418  0.9755  0.4482  1.3734
 7707TIP3   OH244611   3.113   2.669  16.145  0.2385  0.1673 -0.3026
 7707TIP3    H144612   3.097   2.609  16.217 -0.4860 -1.3656 -1.6633
 7707TIP3    H244613   3.034   2.724  16.141 -1.1365 -1.7250 -1.6846
 7708TIP3   OH244614   2.201   6.490  12.827  0.1438  0.3484  0.4770
 7708TIP3    H144615   2.158   6.474  12.911 -1.9008 -0.7829 -0.7004
 7708TIP3    H244616   2.149   6.559  12.786  0.1205 -0.2463 -0.5256
 7709TIP3   OH244617   0.364   3.688   4.659  0.6981 -0.2528 -0.2559
 7709TIP3    H144618   0.431   3.630   4.695  1.3495  0.0561 -0.9573
 7709TIP3    H244619   0.285   3.634   4.655  0.6732 -0.3805  1.3627
 7710TIP3   OH244620   6.071   6.791  16.772  0.2410 -0.3602  0.4653
 7710TIP3    H144621   6.021   6.796  16.691 -0.3836 -1.1874  0.7813
 7710TIP3    H244622   6.057   6.875  16.815 -0.3130 -0.3214  0.2160
 7711TIP3   OH244623   2.311   0.853  11.608 -0.0122  0.0166  0.2968
 7711TIP3    H144624   2.317   0.757  11.604 -1.2134 -0.0678 -2.8499
 7711TIP3    H244625   2.217   0.871  11.611  0.1819  1.0789  0.2394
 7712TIP3   OH244626   6.395   1.085   1.074 -0.1023  0.2629 -0.4513
 7712TIP3    H144627   6.400   0.991   1.091 -1.7092  0.1643 -0.3551
 7712TIP3    H244628   6.386   1.124   1.160  1.2490  0.5816 -0.4393
 7713TIP3   OH244629   6.498   5.672   6.311 -0.4383 -0.5625  0.5633
 7713TIP3    H144630   6.414   5.626   6.320  0.2382 -1.9813 -0.1759
 7713TIP3    H244631   6.559   5.621   6.363  0.0447  0.3497  0.9225
 7714TIP3   OH244632   1.513   2.201   5.955  0.3691 -0.6017 -0.5420
 7714TIP3    H144633   1.593   2.160   5.989  1.6735  1.0322 -1.4965
 7714TIP3    H244634   1.533   2.218   5.862  0.4887  3.2790  0.0319
 7715TIP3   OH244635   5.293   0.922  12.120  0.0224  0.4826 -0.2113
 7715TIP3    H144636   5.332   1.003  12.153  2.0279  0.0550 -1.3474
 7715TIP3    H244637   5.331   0.853  12.175  1.7148 -0.0280 -1.9109
 7716TIP3   OH244638   4.212   0.530   1.527  0.1678  0.0901  0.3091
 7716TIP3    H144639   4.207   0.493   1.439  3.2044  1.9631 -0.7587
 7716TIP3    H244640   4.303   0.520   1.553 -0.1844  1.5628  2.3760
 7717TIP3   OH244641   3.351   0.077  15.392  0.0604  0.4833 -0.1785
 7717TIP3    H144642   3.280   0.015  15.375  1.1713 -1.3090  1.2849
 7717TIP3    H244643   3.414   0.027  15.445  0.7177  3.0692  1.6506
 7718TIP3   OH244644   3.329   5.151  16.429 -0.1907 -0.1986 -0.0439
 7718TIP3    H144645   3.346   5.175  16.520 -3.9296 -1.4430  1.1878
 7718TIP3    H244646   3.338   5.056  16.427 -2.4306 -0.4521 -0.2748
 7719TIP3   OH244647   5.065   5.714  12.186  0.0266 -0.3797  0.1254
 7719TIP3    H144648   4.989   5.765  12.214  1.3721  1.3503  0.8612
 7719TIP3    H244649   5.089   5.662  12.263  0.2346 -0.0729  0.2719
 7720TIP3   OH244650   4.166   5.884   3.145 -0.0350  0.5779 -0.1872
 7720TIP3    H144651   4.242   5.935   3.119  0.3764 -0.2921 -0.7567
 7720TIP3    H244652   4.154   5.905   3.238 -0.8339  2.8543 -0.7418
 7721TIP3   OH244653   0.043   0.295   4.906 -0.2997  0.6684  0.6816
 7721TIP3    H144654   0.037   0.315   4.999 -2.0537 -0.2977  0.8138
 7721TIP3    H244655  -0.040   0.325   4.869 -1.2179 -2.1677  0.1387
 7722TIP3   OH244656   1.295   1.511   4.612  0.0022 -0.9266 -0.1565
 7722TIP3    H144657   1.342   1.470   4.540 -0.5159  0.4261 -1.3009
 7722TIP3    H244658   1.362   1.563   4.657 -0.1953  0.3928 -1.3273
 7723TIP3   OH244659   4.873   0.369   6.143  0.3700 -0.2814  0.1389
 7723TIP3    H144660   4.830   0.304   6.088 -0.0457 -0.8700  1.1318
 7723TIP3    H244661   4.966   0.361   6.121  0.1373  0.1014 -1.0810
 7724TIP3   OH244662   2.706   5.991  14.094 -0.4499 -0.7597 -0.3486
 7724TIP3    H144663   2.763   6.068  14.104 -0.8179 -0.6614  1.1880
 7724TIP3    H244664   2.718   5.965  14.003  0.5905  0.4089 -0.5807
 7725TIP3   OH244665   1.183   4.771  14.027 -0.3218 -0.3128 -0.2085
 7725TIP3    H144666   1.166   4.677  14.025 -1.3173 -0.1387 -1.3836
 7725TIP3    H244667   1.255   4.781  14.089  0.3151 -1.9324 -0.6275
 7726TIP3   OH244668   4.764   3.465   0.621  0.2338  0.2714  0.2287
 7726TIP3    H144669   4.798   3.532   0.680  2.4735 -0.3575 -0.2196
 7726TIP3    H244670   4.725   3.513   0.549 -0.7603  1.0517  1.2654
 7727TIP3   OH244671   2.881   3.354   6.132 -0.3907 -0.0553 -0.3900
 7727TIP3    H144672   2.949   3.319   6.190  0.3081  0.0167 -1.1524
 7727TIP3    H244673   2.801   3.308   6.159  0.0342 -0.4378  0.2488
 7728TIP3   OH244674   5.022   0.066  16.463 -0.3765  0.3611  0.0367
 7728TIP3    H144675   4.952   0.096  16.522  0.9547  0.2033  1.7694
 7728TIP3    H244676   5.026  -0.029  16.477  1.3703  0.5900  1.3712
 7729TIP3   OH244677   6.581   2.830  16.948  0.1864  0.3462  0.5886
 7729TIP3    H144678   6.634   2.806  17.023 -0.9320  0.2640  1.3816
 7729TIP3    H244679   6.517   2.759  16.940  0.0857  0.5115 -0.2475
 7730TIP3   OH244680   6.307   3.695   4.056  0.2126 -0.2485  0.0365
 7730TIP3    H144681   6.332   3.668   3.968  0.5517  1.0340 -0.2848
 7730TIP3    H244682   6.233   3.639   4.078 -2.5557  1.9660 -2.7082
 7731TIP3   OH244683   6.427   3.746  12.366  0.4347 -0.3211 -0.1824
 7731TIP3    H144684   6.519   3.761  12.389  0.0247 -0.3754  1.6232
 7731TIP3    H244685   6.415   3.652  12.375 -0.0034 -0.2112  0.5142
 7732TIP3   OH244686   4.872   3.204  16.920 -0.2566 -0.4054 -0.2503
 7732TIP3    H144687   4.830   3.275  16.872 -0.7177  1.1427  2.2808
 7732TIP3    H244688   4.873   3.131  16.858 -3.5645  0.5102 -1.5991
 7733TIP3   OH244689   6.780   3.466   1.889 -0.6313 -0.3230  0.0700
 7733TIP3    H144690   6.695   3.476   1.933 -0.5149  2.7583 -0.1743
 7733TIP3    H244691   6.759   3.471   1.796 -0.3130 -1.0662 -0.0429
 7734TIP3   OH244692   5.516   1.335   2.416 -0.3606  0.8951 -0.3164
 7734TIP3    H144693   5.554   1.277   2.350 -1.4386  1.9686 -1.9353
 7734TIP3    H244694   5.559   1.308   2.498  1.6989  0.1402 -1.5529
 7735TIP3   OH244695   3.451   6.074  12.049  0.6157  0.6907 -0.9480
 7735TIP3    H144696   3.375   6.049  11.996  0.9514  1.5494 -1.8773
 7735TIP3    H244697   3.456   6.008  12.118 -0.4605  0.1388 -1.3826
 7736TIP3   OH244698   2.836   2.782  11.876  0.0428  0.0548  0.3854
 7736TIP3    H144699   2.753   2.736  11.890 -1.2514  2.7158  2.4695
 7736TIP3    H244700   2.846   2.784  11.780 -0.9754 -2.4407  0.1609
 7737TIP3   OH244701   5.777   6.215   4.159 -0.6049  0.2589  0.3801
 7737TIP3    H144702   5.735   6.207   4.074 -0.9884  0.1579  0.5783
 7737TIP3    H244703   5.820   6.301   4.157 -0.5380  0.2174  0.0537
 7738TIP3   OH244704   2.477   1.837   4.456 -0.4348  0.2114 -0.2047
 7738TIP3    H144705   2.556   1.825   4.404  0.9115  1.2520  1.4649
 7738TIP3    H244706   2.423   1.898   4.405  0.0303 -0.1647 -1.1638
 7739TIP3   OH244707   6.617   2.766  16.414  0.0044 -0.1969  0.0460
 7739TIP3    H144708   6.691   2.818  16.445 -0.0587  0.1681 -0.3999
 7739TIP3    H244709   6.543   2.795  16.467 -0.2085  0.7795 -0.7493
 7740TIP3   OH244710   2.800   0.355  17.043  0.6937 -0.1752 -0.0482
 7740TIP3    H144711   2.746   0.405  17.105  0.3575 -0.5374 -0.0486
 7740TIP3    H244712   2.827   0.420  16.978  0.8983  0.1719  0.3755
 7741TIP3   OH244713   1.517   5.955  12.651  0.1474  0.4344  0.1125
 7741TIP3    H144714   1.593   5.966  12.594 -0.5111  0.5146 -0.7734
 7741TIP3    H244715   1.472   5.878  12.616  0.5597 -0.4830  1.5000
 7742TIP3   OH244716   6.467   4.724  11.261 -0.0988  0.1363  0.2171
 7742TIP3    H144717   6.550   4.708  11.306 -0.0154  1.8878  0.7388
 7742TIP3    H244718   6.476   4.811  11.223 -1.9166  0.6249  0.7843
 7743TIP3   OH244719   5.665   0.773   1.656 -0.1378 -0.0523 -0.3134
 7743TIP3    H144720   5.578   0.790   1.620 -0.6552 -0.2054  0.8052
 7743TIP3    H244721   5.667   0.679   1.672  0.3634 -0.1001 -0.6624
 7744TIP3   OH244722   1.947   3.814   2.560 -0.2151 -0.6427 -0.3907
 7744TIP3    H144723   1.978   3.741   2.615  0.5509 -1.1157 -1.4140
 7744TIP3    H244724   1.999   3.807   2.480 -0.2895  0.9101 -0.5943
 7745TIP3   OH244725   3.672   5.913   0.927 -0.0474 -0.0139 -0.1864
 7745TIP3    H144726   3.720   5.955   0.856  0.7731  1.7527  1.3405
 7745TIP3    H244727   3.662   5.981   0.993 -4.3633 -0.3600 -0.1857
 7746TIP3   OH244728   4.354   2.336   5.237  0.2149 -0.7277  0.0093
 7746TIP3    H144729   4.352   2.342   5.333  0.7658  0.8902 -0.0424
 7746TIP3    H244730   4.441   2.300   5.218  0.7939  0.5556  0.1001
 7747TIP3   OH244731   0.826   6.628  14.875 -0.6277 -0.1269  0.2957
 7747TIP3    H144732   0.808   6.536  14.895  0.2406 -0.0815  1.3353
 7747TIP3    H244733   0.762   6.650  14.807  0.2570 -1.9786 -1.2475
 7748TIP3   OH244734   5.449   2.925   4.347 -0.1505  0.0156  0.2857
 7748TIP3    H144735   5.496   2.857   4.395 -0.1337 -0.1031  0.0997
 7748TIP3    H244736   5.486   2.923   4.259 -0.9512 -0.5248 -0.0464
 7749TIP3   OH244737   0.975   0.490  10.905 -0.4245  0.0509 -1.1077
 7749TIP3    H144738   0.983   0.503  10.810 -1.7330 -0.6823 -1.3403
 7749TIP3    H244739   1.057   0.446  10.929  0.5017  1.4205 -1.6539
 7750TIP3   OH244740   1.314   4.305   4.129 -0.1881  0.2297 -0.0612
 7750TIP3    H144741   1.294   4.312   4.223 -0.9209 -0.3549 -0.1593
 7750TIP3    H244742   1.344   4.392   4.104  1.0325  0.1179  0.9439
 7751TIP3   OH244743   0.104   6.822   0.048 -0.1064 -0.2503  0.0626
 7751TIP3    H144744   0.042   6.894   0.041  0.7119  0.7494  2.2647
 7751TIP3    H244745   0.096   6.792   0.139  0.8982 -1.7277 -0.2983
 7752TIP3   OH244746   2.226   5.359  15.137  0.5170  0.0404  0.3452
 7752TIP3    H144747   2.172   5.371  15.215 -0.1639  0.0242 -0.1141
 7752TIP3    H244748   2.297   5.422  15.146  0.6446 -0.2122  1.1505
 7753TIP3   OH244749   2.250   1.315  13.354  0.3415 -0.1289 -0.2841
 7753TIP3    H144750   2.268   1.225  13.327 -0.8868 -0.4305 -0.1485
 7753TIP3    H244751   2.268   1.367  13.275 -1.1641 -0.7665 -1.0797
 7754TIP3   OH244752   0.308   4.427   2.560  0.2574  0.2056  0.1419
 7754TIP3    H144753   0.368   4.366   2.516  0.9938  0.6786  0.4597
 7754TIP3    H244754   0.296   4.389   2.647  1.6288  1.0566  0.7472
 7755TIP3   OH244755   4.942   6.393  14.269 -0.1918 -0.3369 -0.2794
 7755TIP3    H144756   4.991   6.321  14.310 -0.2234 -0.3493 -0.2626
 7755TIP3    H244757   4.870   6.410  14.330 -0.2234 -0.3367 -0.3167
 7756TIP3   OH244758   3.066   1.398   3.536 -0.4919  0.1095 -0.1639
 7756TIP3    H144759   3.072   1.364   3.447  2.3175 -0.7294  0.2404
 7756TIP3    H244760   3.091   1.490   3.528 -1.1201  0.2622 -0.3589
 7757TIP3   OH244761   6.234   0.103  12.310  0.3104 -0.1682  0.3609
 7757TIP3    H144762   6.179   0.154  12.369  0.4754  1.5754 -0.9045
 7757TIP3    H244763   6.229   0.150  12.226 -0.6496 -3.0046 -1.3116
 7758TIP3   OH244764   4.702   5.415  16.651  0.0335 -0.0121  0.2707
 7758TIP3    H144765   4.690   5.322  16.631  1.3763 -0.5562  1.7408
 7758TIP3    H244766   4.767   5.416  16.721 -0.2583  2.0303  0.5809
 7759TIP3   OH244767   1.737   5.136   5.665  0.0748  0.0753 -0.1832
 7759TIP3    H144768   1.795   5.064   5.687 -1.0337 -0.4274  1.2737
 7759TIP3    H244769   1.674   5.098   5.603 -0.8936 -0.4248  1.0706
 7760TIP3   OH244770   6.280   2.642   3.327 -0.0421 -0.5545  0.1414
 7760TIP3    H144771   6.368   2.616   3.353  0.0207 -0.1762  0.3144
 7760TIP3    H244772   6.246   2.567   3.279 -0.0083 -1.0996  0.9598
 7761TIP3   OH244773   1.972   2.084   0.041  0.5486  0.1124 -0.0058
 7761TIP3    H144774   2.067   2.074   0.040  0.6162  0.7068  0.4585
 7761TIP3    H244775   1.950   2.103   0.132  0.1069  1.1154 -0.3049
 7762TIP3   OH244776   2.793   4.474  14.569  0.1296 -0.3138  0.1492
 7762TIP3    H144777   2.723   4.522  14.525  0.3092  0.1291  0.3360
 7762TIP3    H244778   2.750   4.433  14.644  0.4537  1.7515  1.5363
 7763TIP3   OH244779   6.341   0.567   4.306  0.0126 -0.0770 -0.5577
 7763TIP3    H144780   6.299   0.489   4.343  0.5862 -0.2986 -0.3638
 7763TIP3    H244781   6.348   0.549   4.212  0.2469 -0.3109 -0.4968
 7764TIP3   OH244782   6.080   5.744   0.819  0.3292  0.2811  0.1030
 7764TIP3    H144783   6.061   5.749   0.725  0.6551  0.7831  0.0582
 7764TIP3    H244784   6.059   5.654   0.843 -0.7339  0.4222 -0.2373
 7765TIP3   OH244785   3.022   3.844  12.971  0.0331  0.2363  0.0083
 7765TIP3    H144786   2.967   3.847  12.893  0.5577  0.1661 -0.3722
 7765TIP3    H244787   2.989   3.770  13.021  0.6192 -0.6415 -0.8595
 7766TIP3   OH244788   1.971   5.352   5.640 -0.3194  0.4880  0.2569
 7766TIP3    H144789   1.914   5.304   5.579 -1.1951  1.1350  0.5412
 7766TIP3    H244790   1.945   5.443   5.631 -0.2072  0.6394  1.3244
 7767TIP3   OH244791   1.448   0.906  16.138 -0.0535 -0.6449 -0.3566
 7767TIP3    H144792   1.499   0.826  16.122 -0.1815 -0.8620  0.3027
 7767TIP3    H244793   1.357   0.877  16.140 -0.0143 -0.7670  1.4537
 7768TIP3   OH244794   6.664   2.675  16.152 -0.0160 -0.1895 -0.3015
 7768TIP3    H144795   6.732   2.612  16.176 -0.6444 -0.5227  0.6595
 7768TIP3    H244796   6.629   2.706  16.235 -0.3330  0.7615 -0.7746
 7769TIP3   OH244797   3.921   1.179   2.646 -0.1776 -0.3935 -0.3180
 7769TIP3    H144798   3.897   1.230   2.568  1.4206  0.2400 -0.4280
 7769TIP3    H244799   4.004   1.216   2.674 -0.2490 -1.2675  1.1337
 7770TIP3   OH244800   2.564   1.618   6.703 -0.5304  0.0400 -0.8226
 7770TIP3    H144801   2.491   1.648   6.757  0.7868  0.8350  0.5942
 7770TIP3    H244802   2.637   1.676   6.726  0.9645 -1.6225 -1.1166
 7771TIP3   OH244803   3.824   2.315  11.988  0.5375 -0.1064  0.6624
 7771TIP3    H144804   3.886   2.382  11.959 -1.1370  1.7152  1.0826
 7771TIP3    H244805   3.850   2.295  12.078  1.6468 -0.8231  0.2157
 7772TIP3   OH244806   3.740   1.910  15.284  0.7254 -0.2218  0.6108
 7772TIP3    H144807   3.755   1.913  15.379  2.1673  1.9231  0.3831
 7772TIP3    H244808   3.822   1.940  15.246  0.4151 -1.6987 -1.3906
 7773TIP3   OH244809   3.579   4.406   4.399 -0.2510  0.8376 -0.4145
 7773TIP3    H144810   3.636   4.432   4.327 -1.7222  1.6951 -1.3335
 7773TIP3    H244811   3.581   4.310   4.398  0.7485  0.8554 -0.7500
 7774TIP3   OH244812   4.707   6.423  14.427  0.1084 -0.7000 -0.0469
 7774TIP3    H144813   4.671   6.407  14.515 -0.1841 -0.5996 -0.1477
 7774TIP3    H244814   4.673   6.510  14.404  1.0004 -0.2830  0.1567
 7775TIP3   OH244815   2.427   2.483   1.413 -0.5572 -0.1387  0.1403
 7775TIP3    H144816   2.504   2.432   1.439 -0.3799  0.1697  0.2338
 7775TIP3    H244817   2.463   2.556   1.363 -0.6737  0.6796  1.1963
 7776TIP3   OH244818   6.173   4.292   1.326 -0.1989  0.0133 -0.3958
 7776TIP3    H144819   6.102   4.328   1.273  1.3616  0.0407 -2.6341
 7776TIP3    H244820   6.249   4.346   1.303  1.1669 -1.7886 -0.2817
 7777TIP3   OH244821   0.317   4.246  11.668 -0.0008 -0.1680 -0.0595
 7777TIP3    H144822   0.242   4.274  11.615 -2.4453 -1.7818  2.2409
 7777TIP3    H244823   0.372   4.197  11.607 -1.1285  0.5289 -1.7320
 7778TIP3   OH244824   4.832   2.776  11.286  0.0433 -0.5400  0.5583
 7778TIP3    H144825   4.898   2.719  11.327  0.2106 -0.9544 -0.2646
 7778TIP3    H244826   4.881   2.852  11.256  0.1172 -0.7331  0.1728
 7779TIP3   OH244827   2.221   6.532  15.390  0.2134  0.0134  0.7614
 7779TIP3    H144828   2.310   6.505  15.412 -0.0800 -0.1770  1.7146
 7779TIP3    H244829   2.228   6.561  15.298  1.5005  1.0702  1.1449
 7780TIP3   OH244830   4.378   3.176  14.933  0.1569 -0.9591  0.2356
 7780TIP3    H144831   4.450   3.230  14.901  0.9274 -1.6691  0.7177
 7780TIP3    H244832   4.305   3.196  14.875  0.4374  0.5272  0.3574
 7781TIP3   OH244833   2.425   3.832   6.662 -0.2006 -0.1762 -0.0797
 7781TIP3    H144834   2.493   3.767   6.677 -0.5234 -0.5833 -0.3493
 7781TIP3    H244835   2.352   3.803   6.717  0.3072  1.0229  1.3025
 7782TIP3   OH244836   5.555   1.804  16.611 -0.7180 -0.4506 -0.1613
 7782TIP3    H144837   5.573   1.898  16.601 -0.0453 -0.5547  0.0088
 7782TIP3    H244838   5.473   1.790  16.565  0.2314 -0.1694 -2.0357
 7783TIP3   OH244839   5.773   1.742  14.968  0.5607  0.2510  0.2813
 7783TIP3    H144840   5.831   1.718  15.040  1.6152  4.9902  1.4047
 7783TIP3    H244841   5.820   1.715  14.889  1.5327 -1.0538  1.2688
 7784TIP3   OH244842   4.129   0.201   5.115 -0.4031  0.1572  0.7320
 7784TIP3    H144843   4.168   0.140   5.177 -0.4050  0.3484  0.9212
 7784TIP3    H244844   4.135   0.287   5.158  2.0487  0.7611 -0.6017
 7785TIP3   OH244845   5.317   3.547  16.367 -0.0862  0.1610 -0.0381
 7785TIP3    H144846   5.268   3.575  16.444 -1.6221 -2.1954 -0.0455
 7785TIP3    H244847   5.269   3.583  16.292 -1.6301 -1.6732 -0.0188
 7786TIP3   OH244848   0.524   0.725  15.271 -0.3933  0.2649  0.1311
 7786TIP3    H144849   0.515   0.647  15.327  0.2482 -0.6850 -1.0384
 7786TIP3    H244850   0.617   0.746  15.274 -0.7956  2.0759  1.7949
 7787TIP3   OH244851   3.213   1.019  12.359  0.6126  0.3451  0.1808
 7787TIP3    H144852   3.245   0.936  12.323 -1.2199 -1.0754  1.5974
 7787TIP3    H244853   3.290   1.058  12.402  1.8993  0.2454 -1.9092
 7788TIP3   OH244854   0.769   2.367   3.510 -0.3414 -0.0300  0.3769
 7788TIP3    H144855   0.726   2.288   3.475  4.0699 -3.6707  2.1448
 7788TIP3    H244856   0.729   2.379   3.597 -1.2735 -0.0450 -0.0329
 7789TIP3   OH244857   2.679   5.776   3.811 -0.6983  0.8493  0.2035
 7789TIP3    H144858   2.738   5.827   3.866  0.2035 -0.7896  0.8350
 7789TIP3    H244859   2.732   5.701   3.782 -2.5338 -0.8569  1.0277
 7790TIP3   OH244860   5.330   3.121  12.182  0.1308  0.4378 -0.4715
 7790TIP3    H144861   5.353   3.049  12.241 -0.9366 -1.1591 -1.8986
 7790TIP3    H244862   5.378   3.196  12.216 -0.5257 -0.3398  2.4999
 7791TIP3   OH244863   0.495   2.167   0.661  0.1063  0.2907  0.4820
 7791TIP3    H144864   0.493   2.246   0.715  3.2106  0.3115  0.7339
 7791TIP3    H244865   0.524   2.197   0.575  0.3222 -0.4223  0.2992
 7792TIP3   OH244866   0.620   6.004   6.343 -0.2620 -0.6844  0.0861
 7792TIP3    H144867   0.658   5.919   6.364 -2.1525 -1.1446  2.0486
 7792TIP3    H244868   0.528   5.995   6.366 -0.9075  1.3338 -1.4652
 7793TIP3   OH244869   0.381   1.357   4.425  0.4045 -0.1071 -0.1241
 7793TIP3    H144870   0.374   1.374   4.518 -0.4677  1.2711 -0.4143
 7793TIP3    H244871   0.366   1.263   4.416 -1.7026  0.0894  0.9107
 7794TIP3   OH244872   3.791   4.928   3.478 -0.4601  0.9723  0.1102
 7794TIP3    H144873   3.763   4.839   3.454  1.6690  0.1043  0.6021
 7794TIP3    H244874   3.817   4.920   3.570  1.6515  1.5908 -0.4030
 7795TIP3   OH244875   0.152   5.899  16.322  0.0503 -0.3591  0.1562
 7795TIP3    H144876   0.147   5.865  16.411  0.9682 -0.7437  0.0633
 7795TIP3    H244877   0.071   5.868  16.280  0.4630 -1.7260  0.3240
 7796TIP3   OH244878   3.548   1.194  13.900  0.0204 -0.2645 -0.1029
 7796TIP3    H144879   3.559   1.164  13.810  0.5519 -1.2328  0.2691
 7796TIP3    H244880   3.472   1.251  13.897 -0.8101 -1.3739 -0.9092
 7797TIP3   OH244881   2.000   0.838   4.013 -0.1180 -0.0633  0.2240
 7797TIP3    H144882   2.014   0.836   3.918 -1.4022  1.0083 -0.0123
 7797TIP3    H244883   2.008   0.931   4.036 -1.0484 -0.1485  0.9458
 7798TIP3   OH244884   3.146   1.736   5.073  0.3203 -0.1401  0.2153
 7798TIP3    H144885   3.094   1.734   5.154 -0.0043  1.0968  0.0605
 7798TIP3    H244886   3.135   1.649   5.035 -1.2063 -0.0867  0.4687
 7799TIP3   OH244887   2.923   2.943  13.698  0.2617  0.3434 -0.1070
 7799TIP3    H144888   3.002   2.996  13.708  0.7059  0.2585 -2.4472
 7799TIP3    H244889   2.852   3.006  13.697  0.4905  0.6085  0.1811
 7800TIP3   OH244890   6.781   3.356   6.146 -0.2054 -0.3262 -0.5198
 7800TIP3    H144891   6.712   3.300   6.180  0.0088 -0.6037 -0.5397
 7800TIP3    H244892   6.861   3.325   6.188 -0.2127  0.5434  0.1521
 7801TIP3   OH244893   4.328   4.047   2.572 -0.8151 -0.7100  0.4090
 7801TIP3    H144894   4.234   4.046   2.589 -0.5698 -2.1002  1.9792
 7801TIP3    H244895   4.367   4.069   2.657  0.2871 -0.5572 -0.1256
 7802TIP3   OH244896   1.328   5.472  12.140 -0.5078 -0.6229 -0.3523
 7802TIP3    H144897   1.264   5.411  12.177 -1.8111  1.2505  0.6249
 7802TIP3    H244898   1.282   5.515  12.068  0.6768 -1.3347 -1.5955
 7803TIP3   OH244899   6.461   4.178  14.729 -0.0477  0.8752  0.5335
 7803TIP3    H144900   6.382   4.217  14.767  0.6997  1.1682  1.8289
 7803TIP3    H244901   6.534   4.223  14.773  0.9207  2.0265 -2.0100
 7804TIP3   OH244902   4.196   2.591  12.844  0.3289  0.2721 -0.4627
 7804TIP3    H144903   4.276   2.631  12.812  0.4275  1.8500  1.5276
 7804TIP3    H244904   4.133   2.663  12.847 -0.9055 -0.7381 -1.1067
 7805TIP3   OH244905   3.390   1.445  11.739  0.4145 -0.0227 -0.5947
 7805TIP3    H144906   3.410   1.357  11.705 -0.6427  0.0149 -1.3838
 7805TIP3    H244907   3.348   1.490  11.665  2.5953  1.8056 -0.8057
 7806TIP3   OH244908   6.611   0.325   5.800 -0.5207  0.2464 -0.1921
 7806TIP3    H144909   6.516   0.323   5.788 -0.5901  2.2418 -0.3943
 7806TIP3    H244910   6.647   0.330   5.711 -0.1836 -0.9026 -0.1365
 7807TIP3   OH244911   5.557   3.796   2.999 -0.2353 -0.0543 -0.0726
 7807TIP3    H144912   5.539   3.850   2.922  1.6909  2.4372  1.0741
 7807TIP3    H244913   5.471   3.786   3.041 -1.1395 -0.5787 -1.9168
 7808TIP3   OH244914   3.583   2.788  13.094 -0.4247 -0.2047  0.2249
 7808TIP3    H144915   3.611   2.756  13.180 -0.4416 -0.6551  0.0650
 7808TIP3    H244916   3.640   2.744  13.032 -0.8553 -0.3942 -0.0413
 7809TIP3   OH244917   3.663   6.369   2.893  0.2950 -0.2423 -0.9759
 7809TIP3    H144918   3.611   6.325   2.826 -3.0288  0.0663  1.1797
 7809TIP3    H244919   3.665   6.308   2.966 -3.7732  2.4637  1.7898
 7810TIP3   OH244920   6.389   0.302  13.037 -0.8827 -0.0034 -0.4838
 7810TIP3    H144921   6.428   0.218  13.061 -0.4182 -0.0022 -1.2147
 7810TIP3    H244922   6.448   0.367  13.075 -0.8670 -0.0054 -0.5053
 7811TIP3   OH244923   6.102   4.034  14.648 -0.2121  0.1141 -0.1164
 7811TIP3    H144924   6.187   3.995  14.629 -0.4999 -2.3771  2.8844
 7811TIP3    H244925   6.070   4.066  14.564  1.7782 -2.8149 -2.1703
 7812TIP3   OH244926   2.748   5.521   0.925 -0.5419  0.5085 -0.6214
 7812TIP3    H144927   2.687   5.524   0.852 -0.9223  1.9693 -0.2679
 7812TIP3    H244928   2.804   5.597   0.914  0.8593 -0.4703 -0.5953
 7813TIP3   OH244929   4.259   2.552   1.654  0.0862  0.5587 -0.4868
 7813TIP3    H144930   4.340   2.518   1.692  0.6856 -0.4100 -2.4822
 7813TIP3    H244931   4.189   2.505   1.699  0.7031  0.1420  0.0501
 7814TIP3   OH244932   1.754   1.047  15.921 -0.5340 -0.3388  0.3233
 7814TIP3    H144933   1.679   1.106  15.934 -0.3999 -0.3486  1.2380
 7814TIP3    H244934   1.826   1.089  15.968  0.4279  0.3516 -1.6451
 7815TIP3   OH244935   5.647   6.782  15.060  0.4107 -0.2708  0.2237
 7815TIP3    H144936   5.691   6.740  14.986  0.9706  0.3428  0.1986
 7815TIP3    H244937   5.608   6.709  15.109 -0.1958 -0.6622 -0.8060
 7816TIP3   OH244938   2.267   5.917  14.873 -0.1734  0.1809  0.1414
 7816TIP3    H144939   2.190   5.889  14.922 -0.7711 -0.0106 -0.8767
 7816TIP3    H244940   2.236   5.928  14.783  0.8977  0.5012 -0.2096
 7817TIP3   OH244941   6.247   4.510   0.173  0.1861  0.7146 -0.2743
 7817TIP3    H144942   6.203   4.577   0.224 -0.1904 -0.4984  1.0659
 7817TIP3    H244943   6.183   4.484   0.107  0.5508  2.0544 -1.1828
 7818TIP3   OH244944   5.810   5.742  14.576  0.1720  0.3190 -0.0904
 7818TIP3    H144945   5.749   5.758  14.648  0.1898 -0.0871  0.0173
 7818TIP3    H244946   5.756   5.709  14.504  0.4436 -1.7054  0.5544
 7819TIP3   OH244947   6.762   4.753  12.069 -0.2827 -0.1541  0.0395
 7819TIP3    H144948   6.754   4.775  12.162 -2.3496  1.1771 -0.3924
 7819TIP3    H244949   6.767   4.838  12.024  0.1253 -0.7601 -1.0923
 7820TIP3   OH244950   6.017   2.251  11.313  0.8049 -0.1260  0.3610
 7820TIP3    H144951   5.969   2.210  11.385  0.3926 -4.1730 -1.9281
 7820TIP3    H244952   5.950   2.272  11.248  1.5285  0.0441 -0.3494
 7821TIP3   OH244953   1.654   0.502  14.323  0.4882  0.1797  0.4000
 7821TIP3    H144954   1.749   0.495  14.331  0.4249  0.7145  1.7732
 7821TIP3    H244955   1.638   0.595  14.306  0.1444  0.3045  1.3602
 7822TIP3   OH244956   6.713   3.612   1.415  0.5931 -0.4666  0.1635
 7822TIP3    H144957   6.786   3.568   1.372 -0.3836 -1.7628 -0.2451
 7822TIP3    H244958   6.723   3.704   1.392  1.5570 -0.7654 -0.6669
 7823TIP3   OH244959   6.498   5.454  14.239  0.1182 -0.1830 -1.1399
 7823TIP3    H144960   6.419   5.421  14.281  0.5494 -0.5857 -0.6353
 7823TIP3    H244961   6.564   5.386  14.255  1.0301  0.8945 -0.1042
 7824TIP3   OH244962   4.523   0.598   3.741  0.0812  0.3419 -0.6210
 7824TIP3    H144963   4.532   0.643   3.657  1.2751  2.5041  0.5756
 7824TIP3    H244964   4.429   0.604   3.761 -0.3208 -0.7062 -1.9939
 7825TIP3   OH244965   4.171   1.147  14.487  0.3313  0.7283  0.1223
 7825TIP3    H144966   4.089   1.101  14.504  0.1605  0.0170 -2.2214
 7825TIP3    H244967   4.144   1.235  14.460  0.4280  0.9599  0.7786
 7826TIP3   OH244968   5.578   1.017  11.592  0.3152 -0.8438  0.1981
 7826TIP3    H144969   5.563   1.110  11.604  1.7518 -0.5979  0.2366
 7826TIP3    H244970   5.612   0.987  11.676 -0.0172 -1.3939  0.1467
 7827TIP3   OH244971   0.350   3.862   5.320 -0.5968  0.0952  0.0791
 7827TIP3    H144972   0.444   3.869   5.335 -0.5240 -0.4926 -0.0819
 7827TIP3    H244973   0.327   3.775   5.353 -1.0177  0.0954 -0.2133
 7828TIP3   OH244974   3.391   3.736   5.772  0.3759 -0.0452  0.2531
 7828TIP3    H144975   3.451   3.689   5.714  1.2925  0.8353  0.4454
 7828TIP3    H244976   3.418   3.711   5.861 -0.6792 -0.9795  0.3299
 7829TIP3   OH244977   2.750   1.982   4.131 -0.3952 -0.2909  0.5113
 7829TIP3    H144978   2.798   1.934   4.063  1.9063  0.2613  1.6418
 7829TIP3    H244979   2.707   1.914   4.182 -2.3665 -0.7039 -1.5732
 7830TIP3   OH244980   2.082   1.985   1.654 -0.9918  0.1071  0.1614
 7830TIP3    H144981   2.133   1.975   1.734 -0.9875 -0.4593  0.0914
 7830TIP3    H244982   2.015   2.049   1.676 -1.4979 -0.6488  0.8711
 7831TIP3   OH244983   1.004   0.852   4.721  0.2413 -0.1463 -0.5046
 7831TIP3    H144984   0.949   0.801   4.661  1.6448 -0.2213 -1.7976
 7831TIP3    H244985   1.050   0.787   4.774 -1.3491 -0.0716  1.0521
 7832TIP3   OH244986   3.751   0.045   5.899 -0.5553 -0.1978  0.3624
 7832TIP3    H144987   3.668   0.091   5.885 -0.8999 -0.6567  0.8738
 7832TIP3    H244988   3.774   0.063   5.990  1.1812  1.9691 -0.4129
 7833TIP3   OH244989   5.210   5.447  15.331  0.2470  0.7917 -0.5855
 7833TIP3    H144990   5.147   5.381  15.302  0.2101 -0.4215  1.9903
 7833TIP3    H244991   5.166   5.530  15.316 -2.2231 -0.0253  1.4440
 7834TIP3   OH244992   4.308   0.345   3.738  0.7108 -0.5898 -0.4044
 7834TIP3    H144993   4.279   0.422   3.787  2.6682 -0.6518  0.9695
 7834TIP3    H244994   4.249   0.340   3.663 -2.2046 -0.2604  1.7164
 7835TIP3   OH244995   3.692   1.999  12.862  0.2051 -0.1283 -0.1328
 7835TIP3    H144996   3.640   2.045  12.928 -0.2742 -1.0160  0.1310
 7835TIP3    H244997   3.762   2.060  12.839 -1.3800  1.3974 -1.0788
 7836TIP3   OH244998   2.271   5.137  16.006  0.0446  0.3197  0.0023
 7836TIP3    H144999   2.241   5.181  16.085 -0.7084 -1.6054  0.8555
 7836TIP3    H245000   2.233   5.187  15.934 -1.9445  0.2700  0.9543
 7837TIP3   OH245001   0.659   5.381   3.057 -0.6018  0.3347  0.0211
 7837TIP3    H145002   0.705   5.308   3.100 -2.8980 -0.6946  0.8919
 7837TIP3    H245003   0.670   5.455   3.116  2.8491  1.2265 -1.4670
 7838TIP3   OH245004   1.420   0.098   2.835 -0.4090 -0.4637  0.3406
 7838TIP3    H145005   1.328   0.106   2.856 -0.6888 -2.7402  0.1989
 7838TIP3    H245006   1.450   0.021   2.883  1.2425 -0.1811 -0.1564
 7839TIP3   OH245007   0.659   0.107   2.723 -0.0904  0.7872 -0.5646
 7839TIP3    H145008   0.620   0.155   2.796  0.1007  0.2764 -0.1175
 7839TIP3    H245009   0.590   0.103   2.657 -0.1133  1.6548 -0.6067
 7840TIP3   OH245010   5.123   4.401   3.543 -0.2458  0.2847  0.1545
 7840TIP3    H145011   5.195   4.359   3.591  0.6457  1.7194  0.1115
 7840TIP3    H245012   5.155   4.406   3.453 -1.0424 -0.4461 -0.1796
 7841TIP3   OH245013   5.773   4.791  14.377 -0.0784  0.3957  0.0020
 7841TIP3    H145014   5.748   4.787  14.285 -0.1644  1.1967 -0.0177
 7841TIP3    H245015   5.733   4.872  14.410  0.6033  0.5304  0.5350
 7842TIP3   OH245016   5.480   3.682   1.483  0.0323  0.1805 -0.0676
 7842TIP3    H145017   5.576   3.683   1.484  0.0276  0.9050  0.5679
 7842TIP3    H245018   5.455   3.684   1.575 -0.5911 -0.0208 -0.2305
 7843TIP3   OH245019   6.054   0.621   0.913 -0.0516  0.1794  0.2944
 7843TIP3    H145020   6.094   0.542   0.877  1.0230  0.3024  1.1970
 7843TIP3    H245021   6.119   0.690   0.898 -1.0906  0.9772 -0.7407
 7844TIP3   OH245022   1.019   4.776   3.163 -0.0847 -0.4829  0.3923
 7844TIP3    H145023   1.074   4.759   3.240  0.8791 -0.6289 -0.3132
 7844TIP3    H245024   1.053   4.717   3.095 -2.0364 -1.6426  0.3236
 7845TIP3   OH245025   1.859   2.492  13.811 -0.1187 -0.1640 -0.0253
 7845TIP3    H145026   1.802   2.554  13.858 -1.8996 -2.0752  0.5206
 7845TIP3    H245027   1.865   2.527  13.723 -0.9166  0.8875  0.3105
 7846TIP3   OH245028   2.494   0.148  16.215 -0.1701  0.4492 -0.4343
 7846TIP3    H145029   2.449   0.188  16.290 -0.3733  0.0997 -0.3666
 7846TIP3    H245030   2.575   0.197  16.207 -0.6853  1.2805 -0.7311
 7847TIP3   OH245031   5.899   0.599  16.362 -0.1665 -0.3379 -0.5310
 7847TIP3    H145032   5.830   0.577  16.300  0.0535 -1.6805 -0.3318
 7847TIP3    H245033   5.911   0.520  16.414  2.2504 -0.5355 -1.2519
 7848TIP3   OH245034   1.851   6.651  12.969 -0.4753  0.3489  0.0532
 7848TIP3    H145035   1.869   6.587  12.900  1.1495 -0.1931  0.9142
 7848TIP3    H245036   1.913   6.722  12.951  0.2402  0.0225  1.1502
 7849TIP3   OH245037   1.793   5.635  11.891  0.5532  0.3006 -0.0860
 7849TIP3    H145038   1.808   5.541  11.895 -0.9294  0.0618  0.3261
 7849TIP3    H245039   1.877   5.674  11.918  1.1991 -0.8780 -0.3166
 7850TIP3   OH245040   3.249   5.929  16.166 -0.2767  0.0053  0.7690
 7850TIP3    H145041   3.308   6.001  16.188  0.7063 -0.9326  1.3384
 7850TIP3    H245042   3.249   5.874  16.244  0.2393 -1.4115 -0.1812
 7851TIP3   OH245043   1.478   0.301  10.298  0.0367 -0.0562  0.0664
 7851TIP3    H145044   1.402   0.242  10.306  0.2764 -0.2418  1.0990
 7851TIP3    H245045   1.475   0.354  10.378  1.3685 -0.5198  0.4442
 7852TIP3   OH245046   0.042   2.861   3.054 -0.5044 -0.2876 -0.0145
 7852TIP3    H145047   0.023   2.941   3.005 -0.5154  1.0291  2.0254
 7852TIP3    H245048  -0.045   2.823   3.071 -0.5852 -0.0967  0.0081
 7853TIP3   OH245049   1.100   2.516   4.553  0.3736  0.7768 -0.1499
 7853TIP3    H145050   1.005   2.503   4.560  0.6431 -1.3756  0.2838
 7853TIP3    H245051   1.127   2.456   4.483  1.4214  1.3645 -0.2667
 7854TIP3   OH245052   3.281   1.158  13.010 -0.2645  0.7876  0.0079
 7854TIP3    H145053   3.339   1.214  12.958  0.5963  1.3323  1.4536
 7854TIP3    H245054   3.219   1.121  12.948  1.3585  0.5594 -1.5452
 7855TIP3   OH245055   0.699   0.126  15.853 -0.3958 -0.2940 -0.0570
 7855TIP3    H145056   0.755   0.201  15.875 -0.8347  0.3890 -1.1594
 7855TIP3    H245057   0.717   0.110  15.760  0.3625 -2.1553  0.3697
 7856TIP3   OH245058   0.214   5.124   0.680 -0.3552  0.1196 -0.1371
 7856TIP3    H145059   0.255   5.210   0.686  1.4490 -0.7512  0.8445
 7856TIP3    H245060   0.228   5.085   0.767 -0.6181 -1.3886 -0.7448
 7857TIP3   OH245061   0.825   5.696   1.346  0.0566  0.7286 -0.1166
 7857TIP3    H145062   0.913   5.729   1.325  0.1464  0.3953 -0.2649
 7857TIP3    H245063   0.837   5.652   1.430 -0.0115  0.8582 -0.0393
 7858TIP3   OH245064   5.465   6.791  16.935 -0.1812 -0.4229  0.3424
 7858TIP3    H145065   5.559   6.777  16.925 -0.2377 -0.7079  0.2085
 7858TIP3    H245066   5.458   6.848  17.012  0.2551  1.9282 -1.2550
 7859TIP3   OH245067   3.721   5.878  12.403 -0.1843  0.4914  0.2710
 7859TIP3    H145068   3.648   5.902  12.459 -0.7536 -0.0847 -0.2220
 7859TIP3    H245069   3.688   5.888  12.314  0.3327  0.2147  0.0415
 7860TIP3   OH245070   4.891   5.537   4.689  0.0564  0.5545  0.0531
 7860TIP3    H145071   4.835   5.573   4.757  0.5655 -0.1384  0.8451
 7860TIP3    H245072   4.833   5.483   4.636 -0.4114  1.3632 -0.2847
 7861TIP3   OH245073   4.113   4.686   1.031  0.7905  0.0878  0.2066
 7861TIP3    H145074   4.146   4.604   0.994  0.0824 -0.2892  0.4065
 7861TIP3    H245075   4.059   4.724   0.962 -0.1285 -0.3720  0.6669
 7862TIP3   OH245076   6.562   0.882   3.047 -0.2803 -0.8316  0.1764
 7862TIP3    H145077   6.593   0.899   2.958  1.4098 -3.2736  0.1896
 7862TIP3    H245078   6.641   0.889   3.101 -1.2063  0.2029  1.4632
 7863TIP3   OH245079   0.962   4.359   2.543  0.7552 -0.4312  0.3657
 7863TIP3    H145080   1.000   4.283   2.497  0.5161 -0.2484 -0.1346
 7863TIP3    H245081   1.028   4.382   2.608  1.0423 -0.7750  0.2016
 7864TIP3   OH245082   3.969   2.175   2.614  0.0366  0.3037 -0.0232
 7864TIP3    H145083   3.986   2.087   2.646  1.1238  0.0746 -1.1287
 7864TIP3    H245084   3.934   2.223   2.689 -0.6248 -1.0767  0.5720
 7865TIP3   OH245085   0.667   0.807  15.665 -0.8640 -0.5312  0.9706
 7865TIP3    H145086   0.762   0.820  15.671 -0.9971  1.7771 -0.4280
 7865TIP3    H245087   0.656   0.740  15.598 -0.2250 -0.5917  0.9192
 7866TIP3   OH245088   6.453   1.335   5.192 -0.3987 -0.1263 -0.4094
 7866TIP3    H145089   6.386   1.403   5.198 -0.7330 -0.3671 -1.2545
 7866TIP3    H245090   6.481   1.336   5.101  0.5871 -0.1992 -0.1208
 7867TIP3   OH245091   5.254   5.907   2.457  0.6346 -0.5074 -0.2579
 7867TIP3    H145092   5.194   5.938   2.390  0.9102  1.1585  0.2116
 7867TIP3    H245093   5.197   5.870   2.525  0.3730 -2.7043 -1.5576
 7868TIP3   OH245094   6.093   1.710   0.705  0.1279  0.2099  0.1691
 7868TIP3    H145095   6.180   1.749   0.719  0.3462  0.2584 -1.1233
 7868TIP3    H245096   6.041   1.782   0.670 -0.7944  0.4830  2.0113
 7869TIP3   OH245097   3.162   3.484   1.134 -0.3786 -0.4163  0.0985
 7869TIP3    H145098   3.204   3.566   1.109 -1.1500 -0.1420 -0.2976
 7869TIP3    H245099   3.217   3.416   1.093 -0.9848 -0.0172 -1.4219
 7870TIP3   OH245100   0.293   0.511  12.595 -0.0809  0.0189  0.0299
 7870TIP3    H145101   0.366   0.459  12.627 -0.9609  0.4685  3.1007
 7870TIP3    H245102   0.262   0.559  12.672 -2.6700  0.9662 -1.4716
 7871TIP3   OH245103   5.481   0.869   3.572  0.2439  0.2441  0.3823
 7871TIP3    H145104   5.552   0.910   3.620  0.8264 -2.1152  1.6848
 7871TIP3    H245105   5.512   0.780   3.554 -1.2211  0.0604 -1.6421
 7872TIP3   OH245106   6.444   2.958  14.559  0.5838  0.3041 -0.2069
 7872TIP3    H145107   6.353   2.964  14.585  0.8603  0.5289  0.7503
 7872TIP3    H245108   6.448   2.882  14.500 -0.4040  0.9398 -1.1267
 7873TIP3   OH245109   5.952   3.186  16.870  0.5251 -0.0616  0.4568
 7873TIP3    H145110   5.998   3.103  16.858 -0.2968 -0.2257 -2.1596
 7873TIP3    H245111   5.962   3.231  16.786 -0.5992  1.6928  1.2105
 7874TIP3   OH245112   0.337   1.477  14.437 -0.5767 -0.1144  0.2690
 7874TIP3    H145113   0.400   1.406  14.430  1.1326  1.3219  0.3813
 7874TIP3    H245114   0.389   1.553  14.461 -1.8518  1.8598 -2.6402
 7875TIP3   OH245115   2.661   1.356  15.439 -0.1699 -0.2397  0.5751
 7875TIP3    H145116   2.623   1.277  15.478  0.2829 -0.5149  0.4663
 7875TIP3    H245117   2.597   1.385  15.375 -0.2149 -0.6725  0.4253
 7876TIP3   OH245118   6.491   4.752   1.272  0.5051 -0.5570 -0.5398
 7876TIP3    H145119   6.406   4.794   1.291 -0.0186 -1.9887  0.4754
 7876TIP3    H245120   6.472   4.689   1.203  0.6046 -1.2669  0.0662
 7877TIP3   OH245121   2.809   1.980  15.789 -0.3063  0.3661 -0.8385
 7877TIP3    H145122   2.739   2.045  15.791 -2.5194 -1.7033 -3.0992
 7877TIP3    H245123   2.832   1.973  15.697  2.7185  0.6671 -0.2036
 7878TIP3   OH245124   0.818   6.418   2.531  0.4003 -0.1270 -0.0070
 7878TIP3    H145125   0.801   6.399   2.438  3.2097  1.7543 -1.0683
 7878TIP3    H245126   0.789   6.508   2.542  0.1275 -0.3269  0.9564
 7879TIP3   OH245127   3.189   0.243  16.441 -0.3763 -0.1980  1.1195
 7879TIP3    H145128   3.244   0.189  16.386  0.0555  0.1873  1.1648
 7879TIP3    H245129   3.129   0.286  16.380  0.6121  0.8342  0.8435
 7880TIP3   OH245130   5.910   6.447   5.186  0.2960 -0.0655 -0.0144
 7880TIP3    H145131   5.839   6.436   5.249 -0.4739  0.3350 -0.7719
 7880TIP3    H245132   5.899   6.537   5.154  0.3732 -0.4017 -1.0392
 7881TIP3   OH245133   0.330   4.771  14.122 -0.2056  0.1217 -0.1129
 7881TIP3    H145134   0.326   4.676  14.128 -0.4925  0.1368 -0.0248
 7881TIP3    H245135   0.396   4.797  14.186  0.8822 -0.1057 -1.1069
 7882TIP3   OH245136   3.623   4.108  11.701  0.4497 -0.1373  0.2519
 7882TIP3    H145137   3.567   4.052  11.754 -1.5845  2.1711  0.7145
 7882TIP3    H245138   3.595   4.091  11.611 -0.6006  0.5417  0.4363
 7883TIP3   OH245139   1.675   6.507  12.500  0.0993  0.2229  0.0509
 7883TIP3    H145140   1.754   6.495  12.448 -1.1483  0.4166 -1.9980
 7883TIP3    H245141   1.661   6.422  12.542  1.8434  0.4488  1.1892
 7884TIP3   OH245142   0.955   1.592  16.840 -0.0516 -0.9308 -0.0047
 7884TIP3    H145143   1.030   1.549  16.798  2.7736  3.4599 -0.1020
 7884TIP3    H245144   0.923   1.653  16.774 -0.8621  0.3549  1.5181
 7885TIP3   OH245145   6.421   2.706  14.352  0.5359  0.0972 -0.6370
 7885TIP3    H145146   6.482   2.741  14.287  0.2830  0.0567 -0.8979
 7885TIP3    H245147   6.339   2.754  14.336  0.4902  0.1230 -0.3175
 7886TIP3   OH245148   5.051   4.821   5.417  0.5573  0.2519  0.7469
 7886TIP3    H145149   5.022   4.900   5.372  0.8630 -0.2192 -0.2915
 7886TIP3    H245150   4.982   4.805   5.482 -0.6951  0.0915 -0.5606
 7887TIP3   OH245151   5.179   5.054  17.090 -0.1692 -0.2249  0.3462
 7887TIP3    H145152   5.267   5.091  17.088  0.2915 -1.1579  1.5252
 7887TIP3    H245153   5.165   5.020  17.002  1.9259 -2.7570  0.8424
 7888TIP3   OH245154   1.999   3.465  15.178  0.6588 -0.0344  0.3613
 7888TIP3    H145155   2.060   3.394  15.156 -0.6582 -0.7539 -1.1793
 7888TIP3    H245156   1.912   3.427  15.165 -0.1296  1.2405  1.6066
 7889TIP3   OH245157   0.959   3.161   6.919 -0.1116  0.2740 -0.1206
 7889TIP3    H145158   0.877   3.192   6.957  0.7360  0.8823  1.2742
 7889TIP3    H245159   1.007   3.123   6.993  0.2948 -1.3735 -1.1625
 7890TIP3   OH245160   5.143   6.206   0.471 -0.2032 -0.2202  0.0731
 7890TIP3    H145161   5.189   6.222   0.553 -1.1455  1.2603  0.3637
 7890TIP3    H245162   5.203   6.237   0.403 -0.7541  1.8566  0.4585
 7891TIP3   OH245163   3.902   3.093  14.524  0.0657  0.7510 -0.4029
 7891TIP3    H145164   3.941   3.171  14.564  0.4999 -0.6579  2.1255
 7891TIP3    H245165   3.842   3.060  14.591 -1.7948  0.1070 -2.3007
 7892TIP3   OH245166   4.750   4.100   2.014  0.8512  0.1171 -0.3258
 7892TIP3    H145167   4.787   4.030   2.067  0.4275  1.0115  1.1899
 7892TIP3    H245168   4.791   4.180   2.047  1.3255  0.6221 -2.0224
 7893TIP3   OH245169   6.461   3.030  13.418  0.2488  0.2501 -0.0044
 7893TIP3    H145170   6.456   3.017  13.512 -0.5841  0.6922  0.0212
 7893TIP3    H245171   6.506   2.952  13.385  1.3933  0.5326  0.8508
 7894TIP3   OH245172   6.029   1.600  10.838  0.2124 -0.4433  0.1833
 7894TIP3    H145173   6.052   1.693  10.829  0.5771 -0.7230 -2.9117
 7894TIP3    H245174   5.936   1.596  10.817  0.3155 -0.8248 -0.2126
 7895TIP3   OH245175   2.684   1.909  13.033 -0.7442  0.5774  0.2292
 7895TIP3    H145176   2.601   1.862  13.021 -0.3515 -0.0435 -0.0951
 7895TIP3    H245177   2.670   1.962  13.111 -1.6208  0.8635 -0.1064
 7896TIP3   OH245178   4.881   4.864  11.605  0.1404  0.3393  0.0121
 7896TIP3    H145179   4.791   4.883  11.630  1.2168  3.7674  1.8751
 7896TIP3    H245180   4.931   4.875  11.686  2.1800 -2.9133 -0.6160
 7897TIP3   OH245181   0.739   6.148  11.948 -0.3054 -0.0172 -0.0285
 7897TIP3    H145182   0.731   6.190  11.862  0.7275 -0.2414 -0.2416
 7897TIP3    H245183   0.757   6.220  12.008  1.1691 -0.1038 -0.3488
 7898TIP3   OH245184   0.554   4.830   6.474  0.4572  0.2962  0.3408
 7898TIP3    H145185   0.544   4.922   6.450  3.4354  0.6601  0.1534
 7898TIP3    H245186   0.565   4.785   6.390  2.2008  0.2924  0.5411
 7899TIP3   OH245187   0.819   3.456   4.855  0.2726  0.0297 -0.4241
 7899TIP3    H145188   0.854   3.514   4.923  1.3636 -1.4233  0.3172
 7899TIP3    H245189   0.848   3.494   4.772 -1.2733  1.9543 -0.1476
 7900TIP3   OH245190   2.562   5.716   4.646  0.4028  0.0282  0.2133
 7900TIP3    H145191   2.545   5.711   4.740 -0.9611 -0.1178 -0.0244
 7900TIP3    H245192   2.534   5.631   4.612 -1.6315  0.9915 -0.6828
 7901TIP3   OH245193   5.633   6.626   4.394 -0.8086  0.8576  0.4138
 7901TIP3    H145194   5.566   6.568   4.356 -0.2417  0.5984 -0.2105
 7901TIP3    H245195   5.679   6.661   4.318  0.2072  0.4997  0.8530
 7902TIP3   OH245196   4.970   5.259  12.074  0.0690 -0.0162  0.0172
 7902TIP3    H145197   5.045   5.199  12.068  0.9457  1.0589  0.0654
 7902TIP3    H245198   4.955   5.270  12.167  1.0112  1.1631  0.0513
 7903TIP3   OH245199   3.614   3.910   5.897 -0.1196  0.4620  0.3478
 7903TIP3    H145200   3.577   3.832   5.938  0.2144  0.6214  0.9680
 7903TIP3    H245201   3.552   3.980   5.917 -0.5718  0.3066 -0.4634
 7904TIP3   OH245202   4.860   6.113  12.740  0.4441  0.0082  0.0791
 7904TIP3    H145203   4.930   6.050  12.726 -1.4362 -1.9849 -1.0836
 7904TIP3    H245204   4.877   6.182  12.675  0.9510 -0.8066 -0.6796
 7905TIP3   OH245205   6.605   5.386   4.189  0.1020  0.5294 -0.4944
 7905TIP3    H145206   6.678   5.364   4.246 -0.2058  0.5351 -0.0913
 7905TIP3    H245207   6.532   5.400   4.249 -0.6005 -0.9019 -0.9792
 7906TIP3   OH245208   1.755   1.348   0.029 -0.4152  0.3322 -0.7326
 7906TIP3    H145209   1.773   1.431  -0.015 -2.7486  0.4434 -1.5960
 7906TIP3    H245210   1.664   1.355   0.057 -0.9572 -2.2919 -1.6397
 7907TIP3   OH245211   2.369   5.337  12.875  0.4561 -0.7199  0.4844
 7907TIP3    H145212   2.294   5.372  12.924 -1.1799 -2.7695 -0.4171
 7907TIP3    H245213   2.340   5.337  12.784  1.9203 -0.7155 -0.0045
 7908TIP3   OH245214   5.206   6.081   0.860 -0.4809 -0.1927 -0.1807
 7908TIP3    H145215   5.229   6.153   0.920 -0.3502 -0.4906  0.1260
 7908TIP3    H245216   5.201   6.123   0.774  0.5735 -0.0004 -0.1587
 7909TIP3   OH245217   1.287   4.140  15.179 -0.0978 -0.3582 -0.1039
 7909TIP3    H145218   1.279   4.102  15.267  0.4712  1.7990  0.9624
 7909TIP3    H245219   1.206   4.115  15.135 -0.6931 -0.9641  1.2643
 7910TIP3   OH245220   5.570   5.482  15.563  0.7123 -0.1493  0.6940
 7910TIP3    H145221   5.594   5.470  15.655  0.9371  1.1915  0.8298
 7910TIP3    H245222   5.648   5.520  15.523  0.1411  0.6018  0.2679
 7911TIP3   OH245223   2.748   0.886  13.024 -0.2563  0.4614  0.6768
 7911TIP3    H145224   2.794   0.940  12.959 -1.5151  0.3322 -0.3603
 7911TIP3    H245225   2.714   0.812  12.974  1.4449 -1.3773  2.0669
 7912TIP3   OH245226   4.785   2.773  10.668  1.1045  0.8784 -0.8178
 7912TIP3    H145227   4.694   2.772  10.638  1.0519  2.5648 -0.7985
 7912TIP3    H245228   4.836   2.777  10.588  1.3951 -3.2004 -1.0433
 7913TIP3   OH245229   0.384   4.659  15.842 -0.4486  0.9155 -0.9829
 7913TIP3    H145230   0.311   4.721  15.835 -0.2823  2.0409  3.7527
 7913TIP3    H245231   0.462   4.714  15.846  0.1367  0.0886 -0.8882
 7914TIP3   OH245232   4.308   0.657   4.198  0.0258 -0.1710  0.0365
 7914TIP3    H145233   4.370   0.649   4.126  0.6144  1.1195  0.3567
 7914TIP3    H245234   4.266   0.742   4.184 -1.6860 -1.0009 -0.1562
 7915TIP3   OH245235   6.556   5.476  14.948  0.3587  0.5390  0.4276
 7915TIP3    H145236   6.526   5.551  14.999  0.1363  0.5708  0.2484
 7915TIP3    H245237   6.609   5.425  15.010 -1.6713 -0.5733  1.3325
 7916TIP3   OH245238   2.838   4.442   4.150  0.3485  0.0101  0.0539
 7916TIP3    H145239   2.905   4.417   4.086  0.0729 -1.4782  0.3230
 7916TIP3    H245240   2.762   4.390   4.127 -0.2403  0.5718  0.6879
 7917TIP3   OH245241   5.758   3.811   4.834  0.1773  0.1122 -0.4682
 7917TIP3    H145242   5.802   3.787   4.915 -0.1539  0.2521 -0.2433
 7917TIP3    H245243   5.810   3.770   4.765  2.3411  2.5795 -0.4407
 7918TIP3   OH245244   1.262   5.417   3.505 -0.2218 -0.7318  0.6302
 7918TIP3    H145245   1.180   5.444   3.546  0.3653 -0.0425  1.3787
 7918TIP3    H245246   1.330   5.463   3.554  0.6338 -1.4668  0.1646
 7919TIP3   OH245247   6.097   5.020  14.361  0.1922  0.3455  0.3213
 7919TIP3    H145248   6.168   4.973  14.407  1.0993  1.3642 -0.0003
 7919TIP3    H245249   6.138   5.055  14.282 -1.2842 -1.1431 -1.1958
 7920TIP3   OH245250   1.308   5.695   4.763 -0.2317  0.0110  0.1054
 7920TIP3    H145251   1.319   5.661   4.674 -1.0169 -1.8450  0.6666
 7920TIP3    H245252   1.238   5.760   4.755  1.6604  2.0115 -1.0913
 7921TIP3   OH245253   6.274   5.913  13.687  0.3584  0.2745 -0.2013
 7921TIP3    H145254   6.308   5.963  13.613  0.4706  1.6628  0.7341
 7921TIP3    H245255   6.317   5.953  13.763 -1.4453  0.4020  0.7975
 7922TIP3   OH245256   0.585   5.226  11.806  0.0863 -0.2982 -0.5404
 7922TIP3    H145257   0.515   5.288  11.787  0.4148  0.4618  0.6241
 7922TIP3    H245258   0.543   5.155  11.854 -0.0526 -0.3311 -0.7101
 7923TIP3   OH245259   4.612   0.582  13.241 -0.3580 -0.2538  0.4772
 7923TIP3    H145260   4.695   0.545  13.268  0.2715  1.3676  0.8840
 7923TIP3    H245261   4.590   0.536  13.160  0.6130 -1.1353  0.6963
 7924TIP3   OH245262   5.020   4.188  12.626 -0.2565 -0.8115 -0.1620
 7924TIP3    H145263   5.058   4.271  12.598  0.8594 -1.5538 -0.9483
 7924TIP3    H245264   5.095   4.130  12.638 -0.9524 -1.4853  1.1847
 7925TIP3   OH245265   1.830   5.190  15.745  0.2862 -0.2272 -0.0115
 7925TIP3    H145266   1.860   5.100  15.748  1.3366 -0.0278 -2.3361
 7925TIP3    H245267   1.907   5.243  15.765 -0.1849  0.1855  0.7720
 7926TIP3   OH245268   3.752   3.067  14.264  0.0093 -0.4854  0.4244
 7926TIP3    H145269   3.775   2.979  14.232  0.5880  0.2678 -1.3401
 7926TIP3    H245270   3.756   3.059  14.359  0.1541 -2.3436  0.3063
 7927TIP3   OH245271   1.124   0.304  16.857  0.7203 -0.7225 -0.2041
 7927TIP3    H145272   1.166   0.389  16.846 -1.1935 -0.0092 -3.3784
 7927TIP3    H245273   1.031   0.321  16.840 -0.0153 -3.1460  0.9541
 7928TIP3   OH245274   6.752   5.536  13.729  0.1427  0.1568 -0.5862
 7928TIP3    H145275   6.705   5.589  13.792 -1.6702 -0.6116 -1.2412
 7928TIP3    H245276   6.807   5.478  13.782 -0.4017  0.3760  0.2312
 7929TIP3   OH245277   3.522   2.266   0.273  0.4836  0.0630 -0.1379
 7929TIP3    H145278   3.601   2.222   0.306  0.6871 -0.3209 -1.1107
 7929TIP3    H245279   3.541   2.359   0.283  1.3445 -0.0041 -0.9758
 7930TIP3   OH245280   5.142   4.224   4.155 -0.2339 -0.3322  0.3182
 7930TIP3    H145281   5.107   4.138   4.176 -0.0161 -0.4812  0.0750
 7930TIP3    H245282   5.234   4.208   4.132 -0.7290 -0.3714 -1.9269
 7931TIP3   OH245283   0.319   2.229   6.012 -0.1744 -0.1267  0.8245
 7931TIP3    H145284   0.280   2.304   5.966  0.6784 -1.0833 -1.6314
 7931TIP3    H245285   0.407   2.258   6.033  0.0830 -0.3235  0.0671
 7932TIP3   OH245286   6.655   1.733  11.532  0.1265  0.1042  0.4118
 7932TIP3    H145287   6.671   1.680  11.610  0.2732  0.1635  0.4226
 7932TIP3    H245288   6.721   1.703  11.469  0.0668  0.1190  0.3427
 7933TIP3   OH245289   6.032   5.080  13.727  0.3441 -0.3677 -0.4091
 7933TIP3    H145290   6.087   5.138  13.674 -0.0647 -0.3011 -0.7668
 7933TIP3    H245291   6.016   5.005  13.670  1.0319 -0.9319  0.1209
 7934TIP3   OH245292   5.364   0.307  14.729  0.1931 -0.3302  0.2689
 7934TIP3    H145293   5.302   0.318  14.656  1.7838 -0.2871 -1.1360
 7934TIP3    H245294   5.383   0.396  14.758 -1.6071 -0.3940  1.8291
 7935TIP3   OH245295   0.090   6.036   2.054  0.4343  0.7551  0.0899
 7935TIP3    H145296  -0.002   6.038   2.028  0.4850 -0.0200 -0.1848
 7935TIP3    H245297   0.129   6.111   2.010 -0.0441  1.0328  0.1295
 7936TIP3   OH245298   4.574   2.966  17.235  0.1729 -0.4692 -0.0773
 7936TIP3    H145299   4.638   2.967  17.306  0.2812  0.2330 -0.1775
 7936TIP3    H245300   4.556   2.873  17.220 -1.2675 -0.5988  2.1119
 7937TIP3   OH245301   2.834   0.350   4.354  0.0609  0.2102  0.0779
 7937TIP3    H145302   2.857   0.413   4.423 -0.3911  1.3891 -0.8243
 7937TIP3    H245303   2.823   0.403   4.275  0.6588 -1.1246 -0.9500
 7938TIP3   OH245304   1.915   4.571   1.377 -0.0715 -0.3946 -0.2452
 7938TIP3    H145305   1.899   4.581   1.284  1.4510 -0.5766 -0.5497
 7938TIP3    H245306   2.004   4.602   1.390  0.1124 -1.3372  0.9689
 7939TIP3   OH245307   1.443   5.713  11.609  0.1545 -0.1740 -0.3516
 7939TIP3    H145308   1.434   5.772  11.535 -1.8426  1.8506  1.3752
 7939TIP3    H245309   1.355   5.706  11.646  0.5293 -3.3383  0.2898
 7940TIP3   OH245310   1.395   3.957   2.246 -0.0100 -0.1619 -0.1807
 7940TIP3    H145311   1.462   3.968   2.314 -1.2528  0.8046  0.9642
 7940TIP3    H245312   1.442   3.964   2.163  1.2691  0.8028  0.5940
 7941TIP3   OH245313   6.679   3.507  14.391  0.2870  0.3299  0.0107
 7941TIP3    H145314   6.649   3.517  14.301  0.5770  0.4843 -0.0692
 7941TIP3    H245315   6.603   3.531  14.445 -0.2969 -0.9871 -0.1865
 7942TIP3   OH245316   4.534   5.440  12.264 -0.0421 -0.4826 -0.2456
 7942TIP3    H145317   4.590   5.460  12.339  2.0824  0.9814 -2.0997
 7942TIP3    H245318   4.448   5.471  12.290  1.0065  1.6447  0.9414
 7943TIP3   OH245319   6.789   3.549   5.183 -0.3461 -0.0085  0.3948
 7943TIP3    H145320   6.777   3.642   5.205  0.9805  0.6911 -1.5984
 7943TIP3    H245321   6.802   3.507   5.268 -0.1310  1.7563  1.2970
 7944TIP3   OH245322   1.159   6.435  14.370 -1.3017  0.5336 -0.4634
 7944TIP3    H145323   1.247   6.430  14.333 -0.1560  1.1114  1.9997
 7944TIP3    H245324   1.172   6.467  14.459 -3.8181 -1.2579  0.6665
 7945TIP3   OH245325   1.134   0.195  16.566  0.2438  0.4699 -0.0630
 7945TIP3    H145326   1.092   0.112  16.540 -2.5373  1.9469 -0.7231
 7945TIP3    H245327   1.137   0.191  16.661 -1.3244  0.1891  0.0139
 7946TIP3   OH245328   1.029   5.817   2.200 -0.3099 -0.4457  0.1482
 7946TIP3    H145329   0.946   5.778   2.227 -0.6459  0.7862  0.9769
 7946TIP3    H245330   1.094   5.747   2.212 -1.1158 -1.2051  0.1309
 7947TIP3   OH245331   2.775   0.102   5.049  0.2395 -0.1479 -0.1279
 7947TIP3    H145332   2.775   0.140   5.137 -0.1452 -1.2009  0.3547
 7947TIP3    H245333   2.859   0.129   5.011  0.0278  1.0619  0.2180
 7948TIP3   OH245334   3.417   2.731  15.495 -0.7100  0.1338 -0.1262
 7948TIP3    H145335   3.376   2.716  15.580  1.6668 -1.9033  0.8063
 7948TIP3    H245336   3.394   2.654  15.443 -0.6770  0.5121 -0.7134
 7949TIP3   OH245337   6.622   2.310   5.528 -0.1694  0.6834 -0.0142
 7949TIP3    H145338   6.646   2.334   5.617 -0.6366  2.0723 -0.2385
 7949TIP3    H245339   6.651   2.219   5.519  1.3883  1.0344  1.0061
 7950TIP3   OH245340   3.327   3.730  15.263 -0.1490 -0.4260  0.1825
 7950TIP3    H145341   3.397   3.685  15.216  0.6658  2.4854 -1.6508
 7950TIP3    H245342   3.371   3.772  15.337  0.0662  1.1775 -0.8143
 7951TIP3   OH245343   0.570   3.443   2.576  0.0851 -0.6621  0.5616
 7951TIP3    H145344   0.618   3.361   2.585  0.0811 -0.9977 -1.8511
 7951TIP3    H245345   0.533   3.440   2.487 -1.6157  1.0585  1.1420
 7952TIP3   OH245346   0.511   0.377   1.771  0.3948 -0.5447  0.1123
 7952TIP3    H145347   0.565   0.311   1.814 -0.2029 -1.8152 -1.0254
 7952TIP3    H245348   0.461   0.329   1.705 -1.9197  0.5810  0.9002
 7953TIP3   OH245349   2.714   3.619   4.916 -0.3895  0.1848 -0.9407
 7953TIP3    H145350   2.728   3.577   4.831  1.8042 -0.4963 -0.2921
 7953TIP3    H245351   2.775   3.693   4.918  1.3309 -1.1789  0.9008
 7954TIP3   OH245352   0.935   4.768  16.871 -0.0965  0.8156 -0.3991
 7954TIP3    H145353   0.938   4.820  16.952  0.4442  0.9357 -0.4891
 7954TIP3    H245354   1.011   4.710  16.877 -0.5103  0.2694 -0.4531
 7955TIP3   OH245355   2.971   2.150   4.230  0.4471  0.3467 -0.3384
 7955TIP3    H145356   2.881   2.174   4.211 -0.1697 -1.3074  0.3440
 7955TIP3    H245357   2.984   2.174   4.322  0.3822 -0.2937 -0.1585
 7956TIP3   OH245358   2.972   6.546   3.024  0.0488 -0.1095  0.0913
 7956TIP3    H145359   3.031   6.512   2.956  0.6948 -0.4734  0.8209
 7956TIP3    H245360   2.909   6.475   3.038 -1.5765  0.8599 -1.7982
 7957TIP3   OH245361   0.759   5.998   4.101  0.0019  0.4898  0.5055
 7957TIP3    H145362   0.762   6.093   4.095  0.5469  0.4197 -0.7413
 7957TIP3    H245363   0.833   5.975   4.157  0.4285  0.7605  0.0635
 7958TIP3   OH245364   1.672   3.772   5.119  0.0603  0.1728  0.1114
 7958TIP3    H145365   1.593   3.735   5.159  0.6466 -2.1008 -0.7027
 7958TIP3    H245366   1.743   3.714   5.147  1.2609  1.3794 -0.2998
 7959TIP3   OH245367   3.278   5.649  12.628 -0.4133  0.3406  0.4697
 7959TIP3    H145368   3.222   5.615  12.558  0.4050  0.1650 -0.1065
 7959TIP3    H245369   3.324   5.723  12.589 -1.8411  1.9082  1.5832
 7960TIP3   OH245370   2.535   1.043  12.994 -0.0246  0.2797 -0.2478
 7960TIP3    H145371   2.505   1.102  13.064 -1.0063  0.3348 -0.6914
 7960TIP3    H245372   2.594   0.982  13.038 -2.5441 -1.3004  1.2058
 7961TIP3   OH245373   4.836   4.568   6.201 -0.5761  0.3329  0.3619
 7961TIP3    H145374   4.849   4.657   6.169 -1.0173  0.0945 -0.5330
 7961TIP3    H245375   4.869   4.569   6.290  3.5677  0.2726 -0.9573
 7962TIP3   OH245376   0.387   2.183   2.145 -0.3254 -0.2657  0.5239
 7962TIP3    H145377   0.324   2.159   2.077 -1.2294  0.8517  0.9306
 7962TIP3    H245378   0.387   2.108   2.204 -2.5065  0.3100  1.3672
 7963TIP3   OH245379   0.644   6.540  15.077 -0.3464  0.4207 -0.3920
 7963TIP3    H145380   0.628   6.487  15.155  1.0957 -0.9097 -0.9493
 7963TIP3    H245381   0.684   6.480  15.015  0.5599  1.9699 -1.3680
 7964TIP3   OH245382   1.035   5.704  11.381  1.0055 -0.1076  0.1277
 7964TIP3    H145383   1.078   5.722  11.465 -0.2481  2.2733  0.3304
 7964TIP3    H245384   1.027   5.608  11.378  0.5893 -0.2296  2.9646
 7965TIP3   OH245385   1.587   4.437  17.178  0.7427  0.3618 -0.3678
 7965TIP3    H145386   1.511   4.470  17.225 -0.1952  0.1223 -1.6806
 7965TIP3    H245387   1.657   4.500  17.199  0.9184 -0.6946  2.7700
 7966TIP3   OH245388   4.612   5.294   4.768  0.2727  0.0877 -0.7618
 7966TIP3    H145389   4.683   5.229   4.774 -0.0388 -0.1293  1.9645
 7966TIP3    H245390   4.588   5.311   4.859 -3.4192 -0.0764 -1.5672
 7967TIP3   OH245391   6.807   1.385  12.390  0.0501  0.1166 -0.1503
 7967TIP3    H145392   6.870   1.313  12.399  1.9709  1.9308  2.2818
 7967TIP3    H245393   6.849   1.447  12.332 -0.6370  0.2488 -0.5150
 7968TIP3   OH245394   3.782   6.719   4.250  0.7406  0.1522  0.0339
 7968TIP3    H145395   3.799   6.636   4.206 -0.7978 -0.6572  0.8927
 7968TIP3    H245396   3.862   6.736   4.301  1.2287 -0.5628 -0.4740
 7969TIP3   OH245397   3.388   2.570  16.528  0.4130  0.7579 -0.3698
 7969TIP3    H145398   3.389   2.510  16.453 -2.6541 -0.0262  0.0472
 7969TIP3    H245399   3.402   2.513  16.604  0.6951  1.0861 -0.1769
 7970TIP3   OH245400   5.061   4.733  14.255  0.3118 -0.0543  0.1751
 7970TIP3    H145401   5.036   4.648  14.219 -0.4823 -0.7326  2.1877
 7970TIP3    H245402   5.149   4.718  14.291  1.3372  0.7663 -1.8200
 7971TIP3   OH245403   4.642   4.127  15.905 -0.0519 -0.4875 -0.5874
 7971TIP3    H145404   4.610   4.205  15.858  1.9034 -0.0344 -1.2480
 7971TIP3    H245405   4.695   4.081  15.840  1.7545 -0.4794  0.8210
 7972TIP3   OH245406   6.209   6.685  13.487  0.0717 -0.3888  0.1034
 7972TIP3    H145407   6.232   6.778  13.492 -0.6965 -0.1902  0.0703
 7972TIP3    H245408   6.151   6.671  13.563  0.3639 -0.8949  0.2390
 7973TIP3   OH245409   2.190   3.610   6.477 -0.2132 -0.3600 -0.1288
 7973TIP3    H145410   2.198   3.515   6.488 -0.4734 -0.3426  0.2609
 7973TIP3    H245411   2.096   3.625   6.467 -0.1021 -0.2224 -1.0407
 7974TIP3   OH245412   4.018   3.017   3.850  0.6677 -0.0448  0.3501
 7974TIP3    H145413   4.088   3.014   3.915  1.2801  2.0686 -0.1069
 7974TIP3    H245414   3.971   3.098   3.871 -1.4820 -1.2652  0.4554
 7975TIP3   OH245415   6.067   1.446   4.636  0.7583  0.3226  0.6777
 7975TIP3    H145416   6.012   1.367   4.633 -0.0163  0.8768 -0.2067
 7975TIP3    H245417   6.141   1.426   4.579  0.9662 -0.0424  1.0661
 7976TIP3   OH245418   3.653   0.370  15.935 -0.0933 -0.2560 -0.0325
 7976TIP3    H145419   3.727   0.375  15.995 -0.1992 -1.0236  0.1735
 7976TIP3    H245420   3.585   0.424  15.976 -0.5002 -1.5479  1.0489
 7977TIP3   OH245421   5.270   1.918  15.971  0.0485 -0.4359  0.5379
 7977TIP3    H145422   5.345   1.967  16.006  1.4965 -0.8280 -1.8126
 7977TIP3    H245423   5.269   1.837  16.023  1.9267 -0.8664 -0.0247
 7978TIP3   OH245424   2.338   0.027  14.745 -0.3245  0.2277  0.2655
 7978TIP3    H145425   2.260   0.067  14.785 -1.5550 -0.7692 -1.0094
 7978TIP3    H245426   2.333  -0.065  14.770  1.0306  0.3452  1.0132
 7979TIP3   OH245427   1.706   2.621  12.556  0.3683  0.0521  0.5234
 7979TIP3    H145428   1.652   2.549  12.588 -1.2959  2.0900  2.5806
 7979TIP3    H245429   1.680   2.632  12.465 -2.4902  0.6764  1.3171
 7980TIP3   OH245430   4.803   3.476   1.295 -0.4528  0.0183  0.0574
 7980TIP3    H145431   4.829   3.386   1.278 -0.2012 -0.1030  1.0199
 7980TIP3    H245432   4.709   3.471   1.311 -0.0508 -0.5238  2.7462
 7981TIP3   OH245433   3.925   3.907  14.165  0.2994 -0.2150 -0.0687
 7981TIP3    H145434   3.997   3.911  14.228 -0.1784 -1.0280  0.5619
 7981TIP3    H245435   3.960   3.948  14.086  1.4876 -0.6685  0.1936
 7982TIP3   OH245436   2.095   4.606   4.211 -0.4278 -0.3958 -0.4688
 7982TIP3    H145437   2.152   4.553   4.266  0.8143  0.7732 -0.5577
 7982TIP3    H245438   2.123   4.586   4.121 -1.2753 -1.0228 -0.5982
 7983TIP3   OH245439   4.709   4.607   5.687  0.2746 -0.4546  0.1919
 7983TIP3    H145440   4.735   4.699   5.694 -1.2842  0.2925 -2.3666
 7983TIP3    H245441   4.640   4.598   5.753  1.9758 -0.5199  2.0764
 7984TIP3   OH245442   0.060   2.222  12.459  0.6223  0.1046  0.7569
 7984TIP3    H145443   0.012   2.268  12.528 -1.5721 -0.9974  0.0599
 7984TIP3    H245444   0.054   2.130  12.483  0.4759 -0.2299 -0.5130
 7985TIP3   OH245445   3.087   3.276   5.182  0.3145  0.5142 -0.3568
 7985TIP3    H145446   3.007   3.303   5.228  0.5784 -0.3533  0.6498
 7985TIP3    H245447   3.056   3.247   5.096 -0.7086 -1.4751  0.6326
 7986TIP3   OH245448   5.953   1.123   4.938  0.1576  0.0818  0.4056
 7986TIP3    H145449   5.918   1.198   4.985  1.3415  0.9969 -0.1147
 7986TIP3    H245450   5.935   1.141   4.846  0.5470 -0.2180  0.2668
 7987TIP3   OH245451   6.050   0.361  11.782 -0.2850  0.0605 -0.2243
 7987TIP3    H145452   6.103   0.318  11.715 -1.5611 -0.0466 -1.1834
 7987TIP3    H245453   6.005   0.288  11.826 -0.2370  0.2068  0.0668
 7988TIP3   OH245454   0.634   6.293  15.652 -0.0050 -0.0929  0.1792
 7988TIP3    H145455   0.723   6.263  15.632 -0.2482 -1.3786  0.9865
 7988TIP3    H245456   0.645   6.386  15.673  0.9942  0.0096 -0.7160
 7989TIP3   OH245457   0.244   0.959   3.560 -0.3234  0.3570  0.0382
 7989TIP3    H145458   0.312   0.912   3.607  0.1630  1.7035  0.7308
 7989TIP3    H245459   0.191   0.890   3.519  0.4097 -0.7681  0.9271
 7990TIP3   OH245460   1.436   0.115  13.381 -0.0543  0.2548  0.4163
 7990TIP3    H145461   1.487   0.165  13.446  1.4028  1.1668 -1.3396
 7990TIP3    H245462   1.431   0.173  13.305  1.1152 -1.9518 -1.4885
 7991TIP3   OH245463   0.901   2.935  15.636  0.1228 -0.5515 -0.4931
 7991TIP3    H145464   0.861   2.862  15.683 -1.3422  0.4649 -0.0865
 7991TIP3    H245465   0.863   2.930  15.548 -1.3323  0.6972  0.0309
 7992TIP3   OH245466   1.241   4.741  16.996  0.0410 -0.4296 -0.0941
 7992TIP3    H145467   1.310   4.744  17.063  1.4707 -1.4946 -1.4356
 7992TIP3    H245468   1.162   4.718  17.044  0.0349  3.0159  1.8597
 7993TIP3   OH245469   0.852   1.207  16.488 -0.6150 -0.0268 -0.0047
 7993TIP3    H145470   0.862   1.181  16.397  0.0813 -2.0919  0.6031
 7993TIP3    H245471   0.917   1.155  16.535 -0.7543  1.2042  1.6466
 7994TIP3   OH245472   2.073   1.071   0.228  0.5730  0.2286  0.1993
 7994TIP3    H145473   2.109   1.158   0.211 -1.3435  0.7455 -1.6502
 7994TIP3    H245474   1.994   1.067   0.173 -1.8594 -1.0329  3.4961
 7995TIP3   OH245475   2.192   0.586   1.394  0.2914 -0.3003 -0.2201
 7995TIP3    H145476   2.161   0.498   1.412 -0.2109 -0.2986 -1.0214
 7995TIP3    H245477   2.172   0.600   1.301  1.2136  0.3108 -0.3395
 7996TIP3   OH245478   1.136   3.917  13.762  0.4963  0.4102  0.1237
 7996TIP3    H145479   1.083   3.911  13.841 -0.1028  0.7786 -0.2374
 7996TIP3    H245480   1.151   4.011  13.750  1.0972  0.3161  0.1362
 7997TIP3   OH245481   3.328   0.930   5.562  0.2820 -0.0518 -0.2286
 7997TIP3    H145482   3.411   0.957   5.602  0.1075 -1.8060  1.4946
 7997TIP3    H245483   3.263   0.945   5.631 -0.3631 -1.3394 -0.5330
 7998TIP3   OH245484   1.639   6.770  13.634 -0.7503  0.6781 -0.5537
 7998TIP3    H145485   1.731   6.756  13.610 -1.2246  0.0001 -2.1105
 7998TIP3    H245486   1.628   6.866  13.633  0.1462  0.8168  0.5995
 7999TIP3   OH245487   6.435   6.627   1.708  0.4916 -0.0946  0.0554
 7999TIP3    H145488   6.484   6.545   1.703 -1.1617 -1.1673  0.6347
 7999TIP3    H245489   6.417   6.639   1.801  0.2094  0.6312 -0.0862
 8000TIP3   OH245490   3.223   0.794   4.424 -0.5141 -0.7469  0.6896
 8000TIP3    H145491   3.150   0.779   4.485  1.0740 -0.6801  2.7199
 8000TIP3    H245492   3.239   0.707   4.386 -1.2808 -0.8771  0.6334
 8001TIP3   OH245493   2.899   2.320  14.061  0.0940 -0.3138  0.9851
 8001TIP3    H145494   2.809   2.352  14.051 -0.0345 -0.8697  0.1783
 8001TIP3    H245495   2.947   2.393  14.098 -0.1031  0.9889 -1.1607
 8002TIP3   OH245496   0.657   4.329  16.628  0.3743 -0.0245 -0.7820
 8002TIP3    H145497   0.746   4.313  16.660  0.0529 -0.3016  0.0079
 8002TIP3    H245498   0.652   4.424  16.618  0.6689  0.0197 -0.5305
 8003TIP3   OH245499   1.189   6.304   2.174  0.6043 -0.6606 -0.2002
 8003TIP3    H145500   1.109   6.297   2.121  0.2134  1.2099  0.0769
 8003TIP3    H245501   1.161   6.281   2.262  0.6302 -1.0146 -0.2792
 8004TIP3   OH245502   6.272   0.821   2.804  0.2781  0.2320 -0.0862
 8004TIP3    H145503   6.344   0.880   2.828  0.1024  0.3022  0.2694
 8004TIP3    H245504   6.308   0.769   2.732  1.2342 -0.7863  1.0824
 8005TIP3   OH245505   3.618   4.679   2.192  0.2968 -0.4150  0.3153
 8005TIP3    H145506   3.705   4.691   2.230  1.1351 -0.8689 -1.4180
 8005TIP3    H245507   3.601   4.585   2.201 -0.1125 -0.3009  0.8062
 8006TIP3   OH245508   3.145   1.363   3.903  0.3471 -0.0259 -0.0641
 8006TIP3    H145509   3.151   1.278   3.860 -1.1875  0.1336 -0.6704
 8006TIP3    H245510   3.233   1.379   3.937  0.8213 -1.5632 -0.4703
 8007TIP3   OH245511   6.418   6.777   3.871  0.0448  0.9055  0.4451
 8007TIP3    H145512   6.454   6.787   3.783  1.1248 -0.7345  0.6559
 8007TIP3    H245513   6.333   6.736   3.858  0.8427 -0.7752  0.1781
 8008TIP3   OH245514   3.111   4.068   2.758 -0.0494  0.0392 -0.1988
 8008TIP3    H145515   3.052   3.992   2.758  1.7171 -1.4639  1.2746
 8008TIP3    H245516   3.118   4.092   2.850 -0.0571  1.6015 -0.5880
 8009TIP3   OH245517   3.142   3.568   2.765 -0.0065  0.8032  0.2294
 8009TIP3    H145518   3.134   3.607   2.852 -1.1408  0.7034  0.1730
 8009TIP3    H245519   3.200   3.492   2.779 -0.6133  0.4751  1.0024
 8010TIP3   OH245520   1.710   1.377   0.573  0.1000  0.5057 -0.1199
 8010TIP3    H145521   1.649   1.305   0.557 -0.6598  1.2474 -0.6783
 8010TIP3    H245522   1.655   1.448   0.606  0.0522  2.2565 -3.5462
 8011TIP3   OH245523   0.564   2.555  13.003 -0.1708  0.1792 -0.4041
 8011TIP3    H145524   0.589   2.463  12.997  0.4362  0.3131 -0.0422
 8011TIP3    H245525   0.474   2.553  13.035 -0.7454 -0.3190 -1.9602
 8012TIP3   OH245526   1.012   5.954  15.617  0.2339  0.1503  0.4589
 8012TIP3    H145527   0.961   5.910  15.685 -2.2064 -1.4237 -2.1978
 8012TIP3    H245528   1.085   5.894  15.601 -0.5546 -0.7184  0.0187
 8013TIP3   OH245529   2.449   2.613  14.201  0.3707  0.1887 -0.0185
 8013TIP3    H145530   2.421   2.677  14.136  0.2944 -0.7558 -0.9359
 8013TIP3    H245531   2.391   2.538  14.189 -0.5897  0.4988  2.1018
 8014TIP3   OH245532   0.511   2.823  14.483  0.5347  0.1753 -0.0891
 8014TIP3    H145533   0.564   2.900  14.503  2.2925 -1.0815  0.4438
 8014TIP3    H245534   0.552   2.785  14.406 -0.7414  0.1321 -0.7704
 8015TIP3   OH245535   4.153   4.406  12.287 -0.0054 -0.1485 -0.3188
 8015TIP3    H145536   4.091   4.411  12.360 -2.1359 -1.3017 -1.9457
 8015TIP3    H245537   4.203   4.325  12.303 -0.8667 -0.7088 -0.4170
 8016TIP3   OH245538   0.505   5.021   4.908  0.4473 -0.0132 -0.4876
 8016TIP3    H145539   0.418   4.980   4.907 -0.3103  1.5052 -2.1588
 8016TIP3    H245540   0.528   5.025   5.001 -2.0006  0.9348  0.1600
 8017TIP3   OH245541   4.296   0.950  14.401  0.0645 -0.1258 -0.2318
 8017TIP3    H145542   4.286   1.040  14.432  0.7190 -0.1163 -0.0517
 8017TIP3    H245543   4.208   0.925  14.371 -0.4440  0.0735  1.0556
 8018TIP3   OH245544   0.295   5.823   3.678  0.4788 -0.2465 -0.2834
 8018TIP3    H145545   0.202   5.802   3.662  0.4778 -0.0861 -0.5015
 8018TIP3    H245546   0.292   5.897   3.739  0.4906 -1.2080  0.9188
 8019TIP3   OH245547   1.220   2.999   2.554 -0.5123 -0.0464 -0.3126
 8019TIP3    H145548   1.190   3.040   2.474  0.8564  1.2886 -0.1910
 8019TIP3    H245549   1.219   3.070   2.619 -2.3100 -1.2581  1.0929
 8020TIP3   OH245550   0.467   0.295   1.306 -0.4443  0.3787  0.2503
 8020TIP3    H145551   0.436   0.367   1.251 -0.0937  0.4123  0.0967
 8020TIP3    H245552   0.560   0.311   1.317 -0.7740  1.2723  2.1971
 8021TIP3   OH245553   0.182   1.047   6.568  0.0741  0.7965 -0.3222
 8021TIP3    H145554   0.239   0.974   6.593 -1.1457 -0.7693 -1.8602
 8021TIP3    H245555   0.095   1.009   6.563 -1.3392  3.2625  2.5711
 8022TIP3   OH245556   1.291   3.055  14.637 -0.2897 -0.2406  0.0340
 8022TIP3    H145557   1.334   3.126  14.685 -1.6361 -0.5099  1.7450
 8022TIP3    H245558   1.200   3.083  14.629 -0.6113 -1.3131 -0.2129
 8023TIP3   OH245559   0.387   3.311   1.258  0.3190  0.3595  0.3027
 8023TIP3    H145560   0.296   3.311   1.285 -0.1537 -1.4471 -1.0972
 8023TIP3    H245561   0.436   3.330   1.338 -1.2436  1.3326  1.0879
 8024TIP3   OH245562   4.258   0.089  11.175 -0.6090 -0.0046 -0.4401
 8024TIP3    H145563   4.273   0.003  11.137  3.4646  0.9184 -1.3976
 8024TIP3    H245564   4.270   0.150  11.102  1.0388  1.5227  0.9978
 8025TIP3   OH245565   1.276   1.365   3.155  0.6844  0.6749  0.8977
 8025TIP3    H145566   1.339   1.296   3.137  0.4233  0.6176  0.1916
 8025TIP3    H245567   1.245   1.393   3.069  0.3597  1.2717  1.2023
 8026TIP3   OH245568   6.265   2.697  11.267  0.1998 -0.1849  0.7768
 8026TIP3    H145569   6.350   2.740  11.257 -0.0271  0.2605  0.7485
 8026TIP3    H245570   6.267   2.627  11.202 -0.0505  0.7810 -0.3149
 8027TIP3   OH245571   6.494   6.092  11.660  0.4837  0.6861 -0.7929
 8027TIP3    H145572   6.484   6.176  11.703  0.0121  0.7008 -0.9268
 8027TIP3    H245573   6.461   6.106  11.571  0.9140  0.5062 -0.9821
 8028TIP3   OH245574   3.267   6.164  16.356 -0.3861 -0.0672 -0.1115
 8028TIP3    H145575   3.277   6.098  16.425 -0.0055  0.0617 -0.0405
 8028TIP3    H245576   3.188   6.213  16.381  0.7840  1.2273  1.3009
 8029TIP3   OH245577   6.369   5.777  16.670  0.6564  0.3747 -0.2397
 8029TIP3    H145578   6.388   5.794  16.578  0.5630 -0.5148 -0.4292
 8029TIP3    H245579   6.274   5.773  16.675  0.6823 -0.9051 -0.3707
 8030TIP3   OH245580   5.331   2.085  14.476  0.2819  0.2769 -0.0409
 8030TIP3    H145581   5.315   2.144  14.550  0.6374 -0.6822  0.8296
 8030TIP3    H245582   5.295   2.001  14.504 -1.1803  0.3007 -1.6894
 8031TIP3   OH245583   4.658   2.392  13.929  0.2208 -0.1635  0.0408
 8031TIP3    H145584   4.637   2.319  13.988  0.3136 -2.9584 -3.1075
 8031TIP3    H245585   4.573   2.434  13.913  0.1584  0.5080  1.8612
 8032TIP3   OH245586   0.132   3.579  16.814 -0.2820 -0.0123  0.1679
 8032TIP3    H145587   0.153   3.550  16.903  1.1830 -4.0393 -1.2908
 8032TIP3    H245588   0.206   3.633  16.788  1.1409 -1.8157  0.2476
 8033TIP3   OH245589   0.840   3.686  14.567 -0.2449 -0.3636  0.2904
 8033TIP3    H145590   0.783   3.609  14.572  3.2106 -3.2913 -0.7148
 8033TIP3    H245591   0.805   3.737  14.495 -0.5363 -3.1056 -1.6842
 8034TIP3   OH245592   2.120   6.279   3.272 -0.6436  0.9137 -0.2951
 8034TIP3    H145593   2.186   6.348   3.282  0.3244 -0.1783  1.0958
 8034TIP3    H245594   2.056   6.317   3.211  0.4172  2.6165 -0.4241
 8035TIP3   OH245595   1.850   6.091  10.447  0.1304  0.1029 -0.5381
 8035TIP3    H145596   1.802   6.012  10.471 -0.5185  0.5111 -0.4557
 8035TIP3    H245597   1.844   6.147  10.524  0.6417  0.2077 -0.5713
 8036TIP3   OH245598   6.281   1.557   1.730  0.0081  0.1004 -0.0562
 8036TIP3    H145599   6.224   1.481   1.713  0.9571 -0.5994 -0.1637
 8036TIP3    H245600   6.331   1.567   1.649 -0.1834  0.9203 -0.0787
 8037TIP3   OH245601   4.265   4.864  11.495 -0.6352  0.0177 -0.6644
 8037TIP3    H145602   4.353   4.856  11.532 -0.9955 -1.2297 -0.0439
 8037TIP3    H245603   4.267   4.947  11.447  0.7077  0.2734 -0.2063
 8038TIP3   OH245604   1.065   3.090   6.604 -0.8169 -0.0768 -0.4719
 8038TIP3    H145605   1.117   3.023   6.560  2.7164 -0.2669  3.4272
 8038TIP3    H245606   0.991   3.042   6.643  0.5692 -1.4320  0.6073
 8039TIP3   OH245607   6.544   0.889  13.247  0.5971 -0.6709  0.0978
 8039TIP3    H145608   6.487   0.959  13.216 -0.2482 -1.4876 -0.2361
 8039TIP3    H245609   6.591   0.859  13.169  2.5139  0.8617  0.5771
 8040TIP3   OH245610   6.082   4.665   3.940 -0.2420  0.2021  0.1017
 8040TIP3    H145611   6.141   4.645   3.867 -0.3213  0.8978 -0.1636
 8040TIP3    H245612   6.003   4.614   3.921 -0.1573  0.1621 -0.1495
 8041TIP3   OH245613   5.560   2.778  14.810  0.1257 -0.5063 -0.6009
 8041TIP3    H145614   5.643   2.758  14.853  0.3047 -1.6205 -1.4282
 8041TIP3    H245615   5.575   2.861  14.766  0.9044 -0.8524 -0.9997
 8042TIP3   OH245616   3.789   4.441   6.725  0.1918 -0.1795  0.1333
 8042TIP3    H145617   3.819   4.350   6.728 -0.4748 -0.4258 -0.2612
 8042TIP3    H245618   3.696   4.434   6.702  0.5926  0.6839 -1.9534
 8043TIP3   OH245619   3.120   0.790   0.961  0.3156 -0.3780  0.1818
 8043TIP3    H145620   3.161   0.836   1.034 -2.0610  0.7944  0.8475
 8043TIP3    H245621   3.047   0.845   0.935  1.1178 -0.6865 -3.2208
 8044TIP3   OH245622   6.052   6.125   6.313  0.5646  0.4240  0.0990
 8044TIP3    H145623   6.060   6.176   6.232  0.9042 -0.0765 -0.1871
 8044TIP3    H245624   6.098   6.178   6.378  0.5803  0.6709 -0.1102
 8045TIP3   OH245625   4.112   0.521  15.752 -0.3345  0.1744 -0.1273
 8045TIP3    H145626   4.175   0.561  15.812 -0.2081  0.1516 -0.2421
 8045TIP3    H245627   4.093   0.435  15.790  0.4399 -0.2175 -0.5788
 8046TIP3   OH245628   2.526   1.406   4.716 -0.4848 -0.2699 -0.1341
 8046TIP3    H145629   2.584   1.427   4.788 -0.6520 -0.8296  0.1683
 8046TIP3    H245630   2.499   1.491   4.681 -1.6999  0.0547  1.4959
 8047TIP3   OH245631   5.825   2.541  16.034 -0.1789  0.0460 -0.2106
 8047TIP3    H145632   5.756   2.517  16.096 -0.5335  0.8325 -0.2812
 8047TIP3    H245633   5.778   2.568  15.955  0.2749 -3.5625 -1.9295
 8048TIP3   OH245634   1.579   2.043  16.282  0.0344  0.8280  0.0463
 8048TIP3    H145635   1.631   1.977  16.327 -2.0087 -1.2525 -0.4460
 8048TIP3    H245636   1.636   2.119  16.276  1.8453 -0.2348  2.3316
 8049TIP3   OH245637   2.982   5.152  13.781  0.0136  0.3481 -0.0923
 8049TIP3    H145638   3.017   5.135  13.694 -0.7168  3.4638 -1.1170
 8049TIP3    H245639   2.899   5.197  13.766 -0.0223  1.2044  2.2074
 8050TIP3   OH245640   1.178   3.453  16.445 -0.0665 -0.6332 -0.0673
 8050TIP3    H145641   1.272   3.473  16.449 -0.1342 -0.0848 -1.0235
 8050TIP3    H245642   1.148   3.493  16.363 -1.4138  0.3287  0.8554
 8051TIP3   OH245643   5.410   4.182  13.661 -0.4621 -0.0317  0.1012
 8051TIP3    H145644   5.381   4.103  13.616 -0.2707 -1.3161  2.1236
 8051TIP3    H245645   5.395   4.252  13.597 -1.1279 -1.6003 -1.5619
 8052TIP3   OH245646   0.996   3.329  12.459  0.0621  0.2218  0.2468
 8052TIP3    H145647   1.058   3.359  12.525 -0.0597 -0.5980  0.7426
 8052TIP3    H245648   1.024   3.240  12.439 -0.8854 -0.1199  0.3954
 8053TIP3   OH245649   0.024   5.666  15.548 -0.7579 -0.4282 -0.0109
 8053TIP3    H145650  -0.062   5.632  15.523 -0.4835 -0.6384 -0.6874
 8053TIP3    H245651   0.086   5.616  15.495 -0.1217 -1.1323  1.3323
 8054TIP3   OH245652   0.282   2.549   3.487  0.3618 -0.0525 -0.5531
 8054TIP3    H145653   0.297   2.592   3.572 -1.9215  1.0481 -0.6373
 8054TIP3    H245654   0.243   2.465   3.509 -2.1146  1.0479 -0.4718
 8055TIP3   OH245655   5.206   2.064   4.878  0.5193  0.4069 -0.0369
 8055TIP3    H145656   5.174   2.086   4.965 -0.9171 -1.9766  0.1280
 8055TIP3    H245657   5.143   2.105   4.818 -0.1031 -0.2623  0.1510
 8056TIP3   OH245658   3.078   0.239  13.869  0.3073  0.0144  0.0985
 8056TIP3    H145659   3.041   0.261  13.954 -0.5928 -0.4918 -0.1465
 8056TIP3    H245660   3.029   0.161  13.841  0.6937  0.0834 -0.8034
 8057TIP3   OH245661   2.930   4.268   1.290 -0.0280  0.1104  0.3449
 8057TIP3    H145662   2.860   4.280   1.225 -0.1908 -0.5168  0.4001
 8057TIP3    H245663   3.000   4.326   1.260  0.6627 -1.5735 -1.4670
 8058TIP3   OH245664   1.267   2.050   6.010 -0.0423  0.1677  0.6255
 8058TIP3    H145665   1.330   2.040   6.082  0.4886 -3.8305 -0.1160
 8058TIP3    H245666   1.321   2.073   5.935  0.2494 -0.8242  0.5071
 8059TIP3   OH245667   6.299   2.737   2.257  0.5218  0.4182  0.5868
 8059TIP3    H145668   6.269   2.701   2.174  3.0942 -1.3222  0.2857
 8059TIP3    H245669   6.381   2.781   2.235  0.4728  1.2747  1.9812
 8060TIP3   OH245670   4.719   0.691  16.198  0.4619  0.4651 -1.1177
 8060TIP3    H145671   4.739   0.737  16.117  2.9100  0.9149 -0.3591
 8060TIP3    H245672   4.629   0.661  16.188  0.1724  1.8635 -3.3283
 8061TIP3   OH245673   6.242   1.906   4.860  0.1733  0.2899 -0.7474
 8061TIP3    H145674   6.210   1.816   4.856  0.7710  0.0402 -0.0174
 8061TIP3    H245675   6.252   1.932   4.768 -0.7205 -0.1198 -0.9677
 8062TIP3   OH245676   5.257   2.334   0.123  0.3034 -0.5324 -0.1551
 8062TIP3    H145677   5.290   2.387   0.196  0.5541 -1.4723  0.4287
 8062TIP3    H245678   5.241   2.398   0.053  0.4430  0.3343  0.5793
 8063TIP3   OH245679   3.878   5.942   5.486  0.2650 -0.5666 -0.4922
 8063TIP3    H145680   3.884   5.906   5.574  0.7987  0.6361 -0.0111
 8063TIP3    H245681   3.788   5.923   5.458  0.0703 -0.9031  0.3375
 8064TIP3   OH245682   1.148   0.803   4.449  0.0753  0.5648 -0.5025
 8064TIP3    H145683   1.071   0.802   4.505  0.1178 -1.3489 -0.4103
 8064TIP3    H245684   1.141   0.885   4.399 -0.3288  1.9642  1.7211
 8065TIP3   OH245685   1.907   2.663   1.180  0.3654 -0.1858 -0.0531
 8065TIP3    H145686   1.954   2.616   1.111 -0.0047  0.4308 -0.7421
 8065TIP3    H245687   1.885   2.748   1.141  0.1337  0.1740  0.8196
 8066TIP3   OH245688   2.059   5.376   3.492  0.0796 -0.3558 -0.0436
 8066TIP3    H145689   2.027   5.304   3.438 -0.3116 -0.5329  0.4059
 8066TIP3    H245690   2.152   5.358   3.504  0.7608  1.0068 -2.6744
 8067TIP3   OH245691   1.135   3.754   6.249  0.3414  0.4673 -0.4357
 8067TIP3    H145692   1.206   3.797   6.201 -1.5472  0.6443 -3.3053
 8067TIP3    H245693   1.063   3.817   6.247 -0.6762 -0.6260  0.3171
 8068TIP3   OH245694   2.024   4.528   3.940 -0.0775 -0.2049 -0.1435
 8068TIP3    H145695   2.101   4.472   3.928 -0.9582 -1.5872  0.3706
 8068TIP3    H245696   2.018   4.577   3.858 -0.0530 -1.8970 -1.2202
 8069TIP3   OH245697   6.796   6.368   4.873  0.4892  0.1079  0.1395
 8069TIP3    H145698   6.712   6.375   4.827  1.7551  0.1218 -2.3412
 8069TIP3    H245699   6.774   6.328   4.957 -2.2160  1.7138  0.3284
 8070TIP3   OH245700   5.973   2.130  14.956  0.8197  0.1093  0.1280
 8070TIP3    H145701   5.918   2.088  14.891 -1.7379  1.7581  1.0413
 8070TIP3    H245702   5.968   2.073  15.033  0.4798  0.1866  0.1645
 8071TIP3   OH245703   3.144   4.175   4.019  0.3112 -0.2075 -0.5461
 8071TIP3    H145704   3.227   4.128   4.013  0.6397  0.4264 -1.0827
 8071TIP3    H245705   3.099   4.134   4.092  0.7566 -1.0910 -0.7528
 8072TIP3   OH245706   3.796   3.768   1.445  0.0345 -0.5895  0.0626
 8072TIP3    H145707   3.707   3.801   1.426  0.0682 -0.0483  0.7795
 8072TIP3    H245708   3.790   3.674   1.432 -0.7859 -0.6199  0.6010
 8073TIP3   OH245709   3.961   6.018  13.028  0.2741 -0.2190 -0.0981
 8073TIP3    H145710   3.959   6.097  13.082 -0.0704 -0.1458 -0.2112
 8073TIP3    H245711   3.870   6.006  13.000  0.6348  0.3837 -1.5938
 8074TIP3   OH245712   0.387   0.628   0.598  0.1306 -0.1272 -0.7751
 8074TIP3    H145713   0.302   0.583   0.592  0.0372 -0.3326  1.3777
 8074TIP3    H245714   0.393   0.655   0.689  2.2237  0.2480 -0.9874
 8075TIP3   OH245715   2.324   5.150   1.381  0.7433  0.4833  0.0219
 8075TIP3    H145716   2.299   5.172   1.471  0.0660  3.0395 -0.7128
 8075TIP3    H245717   2.381   5.222   1.354 -1.4447  1.3846 -2.5449
 8076TIP3   OH245718   3.590   4.773  13.766  0.3381 -0.3623 -0.2485
 8076TIP3    H145719   3.639   4.772  13.683 -0.0082 -2.1441 -0.4667
 8076TIP3    H245720   3.603   4.686  13.803 -1.1873 -0.2766  0.5744
 8077TIP3   OH245721   5.108   6.286   0.042 -0.2468 -0.1168  0.5024
 8077TIP3    H145722   5.130   6.294  -0.051 -0.6653  0.7314  0.4670
 8077TIP3    H245723   5.036   6.347   0.055 -0.7544 -0.8407  1.2139
 8078TIP3   OH245724   2.513   1.913  13.463 -0.8047  0.3583  0.7023
 8078TIP3    H145725   2.502   1.820  13.483 -0.3232 -0.2824 -1.7112
 8078TIP3    H245726   2.424   1.945  13.449 -0.8702 -0.2742 -0.4724
 8079TIP3   OH245727   3.182   4.337  11.489  0.4830 -0.0759  0.1798
 8079TIP3    H145728   3.197   4.412  11.547 -0.7276 -0.5119  1.0923
 8079TIP3    H245729   3.207   4.369  11.402 -0.8806  1.7374  0.3888
 8080TIP3   OH245730   0.473   4.108  14.181 -0.1990  0.1209  0.8618
 8080TIP3    H145731   0.385   4.071  14.177 -0.5025  0.6497  2.0270
 8080TIP3    H245732   0.529   4.042  14.140 -0.9888 -0.7408  1.1254
 8081TIP3   OH245733   5.052   1.735  11.814  0.1775  0.3839  0.1195
 8081TIP3    H145734   5.037   1.731  11.908  0.6015  2.5471  0.3484
 8081TIP3    H245735   4.965   1.730  11.775 -0.0831  0.4180  0.6910
 8082TIP3   OH245736   4.992   0.203   3.302 -0.4154  0.2496  0.0162
 8082TIP3    H145737   4.961   0.126   3.350 -0.1664  0.0732 -0.1053
 8082TIP3    H245738   5.041   0.168   3.228 -0.7703  0.5222 -0.3566
 8083TIP3   OH245739   4.634   1.214   3.266 -0.9868  0.6650 -0.1633
 8083TIP3    H145740   4.674   1.296   3.238 -0.4048  0.1718 -0.8241
 8083TIP3    H245741   4.663   1.202   3.356 -2.8756  2.2761  0.7351
 8084TIP3   OH245742   5.407   2.877   0.049  0.0481  0.1598  0.4703
 8084TIP3    H145743   5.411   2.862  -0.046 -0.8007  1.1969  0.2448
 8084TIP3    H245744   5.318   2.854   0.074  0.2277  0.0162  0.9945
 8085TIP3   OH245745   0.686   4.216   0.611  0.5488  0.2749 -0.4882
 8085TIP3    H145746   0.766   4.268   0.610 -1.1916  3.2894  0.4454
 8085TIP3    H245747   0.690   4.167   0.693  2.0388 -0.7458 -1.1431
 8086TIP3   OH245748   4.503   4.712  16.991  0.9891  0.0559  0.6856
 8086TIP3    H145749   4.534   4.707  17.081  0.6656 -0.3475  0.7758
 8086TIP3    H245750   4.431   4.774  16.993  0.5587 -0.4461  0.8248
 8087TIP3   OH245751   5.949   0.441  13.980 -0.5091  0.0814 -0.0217
 8087TIP3    H145752   6.026   0.441  14.037 -1.8121 -2.5019  1.8988
 8087TIP3    H245753   5.900   0.518  14.007  1.5041  2.1009 -1.6512
 8088TIP3   OH245754   4.048   5.273  12.856 -0.5504  0.2729 -0.3106
 8088TIP3    H145755   4.001   5.317  12.785 -0.5545  2.0981  0.7440
 8088TIP3    H245756   3.980   5.253  12.920 -0.1475  1.4050  0.4894
 8089TIP3   OH245757   6.321   4.806   5.735 -0.2921  0.5051  0.4147
 8089TIP3    H145758   6.344   4.744   5.804 -2.1543  0.7825  1.3583
 8089TIP3    H245759   6.242   4.851   5.769  0.0609  2.2362 -0.9202
 8090TIP3   OH245760   4.974   4.973  14.391 -0.5256 -0.1409 -0.4517
 8090TIP3    H145761   4.947   4.956  14.482  0.3433 -0.5803 -0.2676
 8090TIP3    H245762   5.003   4.888  14.358 -1.2314 -0.0723 -1.2865
 8091TIP3   OH245763   0.578   3.689   4.013  0.5207 -0.4081 -0.2692
 8091TIP3    H145764   0.648   3.752   3.996  0.3506 -0.1380  0.0052
 8091TIP3    H245765   0.498   3.738   3.994  0.2693  0.1721  1.9601
 8092TIP3   OH245766   5.373   5.517  16.165 -0.5717  0.3092  0.3070
 8092TIP3    H145767   5.291   5.521  16.214 -0.1920 -1.2564  1.1435
 8092TIP3    H245768   5.440   5.540  16.228 -0.3707  2.4332 -0.5823
 8093TIP3   OH245769   4.665   0.822  13.387 -0.2662  0.0226 -0.0990
 8093TIP3    H145770   4.630   0.754  13.330  1.7971  0.5058 -2.1263
 8093TIP3    H245771   4.724   0.775  13.447 -2.1017 -0.4305  1.4433
 8094TIP3   OH245772   4.305   4.728   2.258  0.0603 -0.3622  0.6927
 8094TIP3    H145773   4.292   4.705   2.351  1.5164 -1.1401  0.7328
 8094TIP3    H245774   4.381   4.786   2.258  0.3903 -0.7772 -0.0480
 8095TIP3   OH245775   0.546   3.814  12.225 -0.3558  0.1728 -0.2425
 8095TIP3    H145776   0.542   3.744  12.159 -0.6758 -0.4717  0.4379
 8095TIP3    H245777   0.512   3.773  12.305  0.4301  0.8114  0.4307
 8096TIP3   OH245778   2.288   0.082   5.799 -0.3255  0.1517  0.4757
 8096TIP3    H145779   2.211   0.136   5.820 -1.0650 -0.4752 -0.5379
 8096TIP3    H245780   2.273  -0.000   5.846 -0.0707  0.1780  0.6046
 8097TIP3   OH245781   1.478   2.131  13.100 -0.3453  0.7814  0.6486
 8097TIP3    H145782   1.511   2.215  13.130  0.9571  0.7810 -0.6974
 8097TIP3    H245783   1.428   2.151  13.021 -0.6517  0.3626  0.7273
 8098TIP3   OH245784   4.104   3.198  11.667 -0.7206 -0.3347  0.3440
 8098TIP3    H145785   4.162   3.258  11.715  0.7432 -2.7684  1.8568
 8098TIP3    H245786   4.089   3.126  11.728 -0.9507 -2.3506 -1.9363
 8099TIP3   OH245787   3.083   4.418  10.785  0.0371  0.6442  0.9403
 8099TIP3    H145788   3.101   4.469  10.706  0.5338  0.0731  0.6747
 8099TIP3    H245789   3.026   4.474  10.837 -2.2580  0.1458 -0.8387
 8100TIP3   OH245790   0.622   5.697  16.514  0.5070  0.0140  0.0250
 8100TIP3    H145791   0.533   5.688  16.478  0.5671  0.8134 -0.3595
 8100TIP3    H245792   0.649   5.785  16.488  1.2907 -0.0992  0.4257
 8101TIP3   OH245793   4.053   6.178   0.658 -0.1871 -0.4337 -0.2142
 8101TIP3    H145794   4.144   6.148   0.651  0.0514  0.1759  0.1726
 8101TIP3    H245795   4.003   6.099   0.677  0.1268 -0.9294 -1.3760
 8102TIP3   OH245796   2.690   1.666   3.876  0.1154  0.2338  0.2737
 8102TIP3    H145797   2.602   1.636   3.899 -0.1701  1.1261  0.3862
 8102TIP3    H245798   2.703   1.636   3.787  0.1130 -0.8167  0.6198
 8103TIP3   OH245799   4.271   1.293  13.641 -0.0931 -0.2196  0.3774
 8103TIP3    H145800   4.356   1.301  13.683  0.1646 -0.3634 -0.1087
 8103TIP3    H245801   4.210   1.276  13.713  0.4911 -1.5095  0.6048
 8104TIP3   OH245802   1.602   6.698  15.654 -0.1188 -0.0339 -0.2010
 8104TIP3    H145803   1.509   6.722  15.660 -0.4781 -1.5396  0.6874
 8104TIP3    H245804   1.645   6.749  15.723 -0.2625  0.6756 -0.6216
 8105TIP3   OH245805   6.743   2.501   4.742  0.2265  0.3543  0.0965
 8105TIP3    H145806   6.744   2.519   4.648  0.0951 -1.7786 -0.3447
 8105TIP3    H245807   6.667   2.445   4.756  0.3262  0.5188  1.4713
 8106TIP3   OH245808   3.688   1.942   3.751 -0.2153  0.1278 -0.1161
 8106TIP3    H145809   3.673   1.893   3.832  0.9158 -0.5265 -0.2798
 8106TIP3    H245810   3.724   1.878   3.691 -0.3163  0.7918 -0.8990
 8107TIP3   OH245811   6.273   3.936  12.518 -0.9458  0.1669  0.4828
 8107TIP3    H145812   6.261   4.010  12.457 -0.7093  0.0315  0.2719
 8107TIP3    H245813   6.333   3.877  12.473 -2.4051 -0.9641 -0.0711
 8108TIP3   OH245814   6.227   6.372  14.755 -0.2459 -0.3955 -0.1553
 8108TIP3    H145815   6.221   6.466  14.771 -0.5297 -0.7018  1.8165
 8108TIP3    H245816   6.155   6.334  14.805 -1.5143 -1.5477 -2.6673
 8109TIP3   OH245817   4.089   3.590   3.434 -0.0498 -0.0453  0.0296
 8109TIP3    H145818   4.132   3.549   3.359  0.7620 -0.4254  0.6903
 8109TIP3    H245819   4.006   3.544   3.442 -0.2496  0.1568 -0.7723
 8110TIP3   OH245820   3.568   5.340  14.010 -0.1004 -0.1483  0.1215
 8110TIP3    H145821   3.521   5.272  14.058  0.4101 -0.0627  0.7568
 8110TIP3    H245822   3.560   5.314  13.918 -1.9140  0.2068  0.1431
 8111TIP3   OH245823   6.680   1.774  13.841 -0.0347  0.8781 -0.0234
 8111TIP3    H145824   6.692   1.825  13.921  0.5061 -0.7631  0.9826
 8111TIP3    H245825   6.730   1.694  13.855 -0.0429  0.4833 -1.9617
 8112TIP3   OH245826   5.519   2.460   1.030 -0.0883 -0.0373  0.3336
 8112TIP3    H145827   5.516   2.378   0.982 -0.3560  0.4418 -0.4833
 8112TIP3    H245828   5.442   2.508   1.002 -0.0664  0.4019  0.9841
 8113TIP3   OH245829   2.082   2.885  15.565  0.4915 -0.3948 -0.1632
 8113TIP3    H145830   2.167   2.841  15.562  0.6896  0.0035 -0.4957
 8113TIP3    H245831   2.075   2.919  15.654  0.7015 -0.3919 -0.1480
 8114TIP3   OH245832   2.479   6.174   3.293  0.1839 -0.2659 -0.0475
 8114TIP3    H145833   2.449   6.153   3.381  0.1327 -0.7680 -0.1826
 8114TIP3    H245834   2.431   6.254   3.269  0.4028  0.0250  0.4787
 8115TIP3   OH245835   1.326   6.278   1.934 -0.4209  0.5585 -0.6946
 8115TIP3    H145836   1.299   6.186   1.940  2.0697 -0.1591  1.3969
 8115TIP3    H245837   1.325   6.309   2.024  1.7081  1.6143 -0.9712
 8116TIP3   OH245838   4.434   3.555   5.400  0.1717 -0.0221 -0.1421
 8116TIP3    H145839   4.494   3.599   5.460 -0.7090  0.4231  0.4142
 8116TIP3    H245840   4.422   3.618   5.328 -0.9892  0.6130  0.5927
 8117TIP3   OH245841   2.542   5.332  13.406 -0.0239 -0.1060  0.2353
 8117TIP3    H145842   2.489   5.369  13.476 -0.7296 -2.7243  1.1956
 8117TIP3    H245843   2.511   5.375  13.327 -0.8283  1.2375  1.2448
 8118TIP3   OH245844   1.952   4.150   4.800  0.0431 -0.2538  0.1471
 8118TIP3    H145845   1.990   4.063   4.790  1.3769  0.5281 -2.6790
 8118TIP3    H245846   2.027   4.209   4.799 -0.9263  1.1699 -2.9845
 8119TIP3   OH245847   0.549   4.712   6.225  0.7293 -0.1516 -0.0149
 8119TIP3    H145848   0.612   4.644   6.198  2.0124  1.0075 -0.0452
 8119TIP3    H245849   0.480   4.708   6.159 -0.1026 -2.5308  0.8917
 8120TIP3   OH245850   6.498   1.712   4.466 -0.0007 -0.5346 -0.1549
 8120TIP3    H145851   6.509   1.683   4.375  1.0476 -0.4631 -0.0656
 8120TIP3    H245852   6.444   1.645   4.506  0.8077 -1.3881 -0.4463
 8121TIP3   OH245853   1.073   6.559   4.934 -0.0041 -0.4766 -0.1005
 8121TIP3    H145854   1.165   6.580   4.954  0.2537 -1.4325 -0.2608
 8121TIP3    H245855   1.065   6.574   4.840  0.1780 -1.0943 -0.2136
 8122TIP3   OH245856   1.698   4.961   5.068  0.1148  0.1479  0.3368
 8122TIP3    H145857   1.683   4.923   4.982 -1.2506  0.3927  0.4567
 8122TIP3    H245858   1.706   4.886   5.127 -0.1314  0.0006  0.1825
 8123TIP3   OH245859   3.533   3.389  15.794 -0.5454  0.1611 -0.4319
 8123TIP3    H145860   3.532   3.355  15.884 -2.6615  1.4071  0.0927
 8123TIP3    H245861   3.521   3.312  15.739  1.3688 -0.7038  0.2715
 8124TIP3   OH245862   0.078   1.754  16.149  0.3318  0.2974  0.7307
 8124TIP3    H145863   0.018   1.802  16.092  0.8435  0.9879  0.7723
 8124TIP3    H245864   0.063   1.662  16.126  0.4109  0.5552 -0.4030
 8125TIP3   OH245865   1.156   5.816   0.323 -0.3239 -0.6892 -0.8704
 8125TIP3    H145866   1.147   5.870   0.401  0.8373 -1.1704 -0.3742
 8125TIP3    H245867   1.196   5.874   0.258 -0.1603 -0.6279 -0.7153
 8126TIP3   OH245868   0.942   1.761  15.786 -0.0577  0.2222 -0.0611
 8126TIP3    H145869   0.981   1.771  15.699  0.0745  0.0132 -0.0275
 8126TIP3    H245870   0.908   1.671  15.787  0.4965  0.0111  0.3212
 8127TIP3   OH245871   4.531   1.041   2.278  0.0188 -1.0261  0.5759
 8127TIP3    H145872   4.458   0.999   2.233  0.4293  0.5713 -1.7816
 8127TIP3    H245873   4.597   1.054   2.209  0.0205  3.1008  1.0662
 8128TIP3   OH245874   0.347   0.906  15.166 -0.4368  0.2479 -0.6136
 8128TIP3    H145875   0.412   0.949  15.110 -0.7041 -1.5593 -2.4148
 8128TIP3    H245876   0.397   0.838  15.213 -0.8083 -0.4515 -1.2133
 8129TIP3   OH245877   0.656   6.730   6.340  0.3580 -0.0884  0.1810
 8129TIP3    H145878   0.642   6.781   6.260  0.6119 -0.5197 -0.1414
 8129TIP3    H245879   0.743   6.691   6.328 -0.1704 -1.2623  0.0470
 8130TIP3   OH245880   6.471   1.400   4.632 -0.2797 -0.2349  0.0931
 8130TIP3    H145881   6.566   1.418   4.632 -0.0862 -1.0311 -1.7985
 8130TIP3    H245882   6.448   1.392   4.725  1.6234 -0.6242  0.5723
 8131TIP3   OH245883   4.786   0.334  14.570  0.5191  0.7671 -0.0520
 8131TIP3    H145884   4.840   0.351  14.647  0.3906  0.4604  0.1044
 8131TIP3    H245885   4.789   0.239  14.558 -0.2611  0.7088  0.1603
 8132TIP3   OH245886   5.953   0.969  13.505  0.0826  0.7224 -0.1100
 8132TIP3    H145887   5.874   0.976  13.452 -0.2129  1.0028  0.3538
 8132TIP3    H245888   6.012   0.914  13.454 -1.3627 -1.7239  0.6369
 8133TIP3   OH245889   1.760   4.743  12.524  0.1630  0.1770 -0.5849
 8133TIP3    H145890   1.688   4.723  12.583 -0.5248 -0.2344 -1.5376
 8133TIP3    H245891   1.839   4.732  12.578 -0.2935 -2.7382 -0.3577
 8134TIP3   OH245892   6.635   1.894   3.045 -0.2589  0.1670 -0.6252
 8134TIP3    H145893   6.637   1.835   2.970 -0.6032 -0.8052  0.1090
 8134TIP3    H245894   6.613   1.838   3.119 -1.1378  1.3115  0.0180
 8135TIP3   OH245895   6.650   2.426  14.639 -0.0800 -0.0498  0.2580
 8135TIP3    H145896   6.642   2.345  14.690  0.6392  0.1229  0.6502
 8135TIP3    H245897   6.561   2.463  14.639 -0.3309 -0.6419  0.3913
 8136TIP3   OH245898   1.094   2.309  15.082 -0.0016 -0.2418  0.7422
 8136TIP3    H145899   1.161   2.377  15.095 -0.3609  0.0196  1.2548
 8136TIP3    H245900   1.042   2.340  15.008  0.1056 -0.1718  0.6963
 8137TIP3   OH245901   1.803   2.090  17.076 -0.1500  0.7082  0.0571
 8137TIP3    H145902   1.828   2.138  17.155 -1.5330  0.2432  0.8009
 8137TIP3    H245903   1.863   2.015  17.073 -1.2872 -0.3432  1.7577
 8138TIP3   OH245904   2.481   3.582   1.442 -0.5101  0.1558  0.2465
 8138TIP3    H145905   2.453   3.665   1.404 -0.7954 -0.3894 -0.7492
 8138TIP3    H245906   2.532   3.539   1.373  1.0247  0.1926  1.2900
 8139TIP3   OH245907   2.026   6.366   4.163  0.0550  0.1977 -0.3918
 8139TIP3    H145908   2.096   6.350   4.227 -0.9197 -0.0221  0.6429
 8139TIP3    H245909   2.061   6.435   4.106  0.6453  0.9605  0.8549
 8140TIP3   OH245910   0.007   5.899  14.639  0.2156  0.4550 -0.2154
 8140TIP3    H145911  -0.047   5.977  14.652 -0.4850 -0.0308 -0.1401
 8140TIP3    H245912  -0.050   5.827  14.665  0.9576 -0.0587 -0.0059
 8141TIP3   OH245913   0.477   6.156  15.839  0.5033 -0.5486  0.1684
 8141TIP3    H145914   0.534   6.232  15.830  0.3814 -0.6826 -3.2812
 8141TIP3    H245915   0.388   6.191  15.830  0.3742 -0.9336 -0.0764
 8142TIP3   OH245916   0.431   4.025  11.502 -0.3033 -0.2681  0.1600
 8142TIP3    H145917   0.420   4.095  11.437  1.6561 -0.1454 -0.0797
 8142TIP3    H245918   0.380   3.952  11.467 -0.9408  0.4523 -0.4725
 8143TIP3   OH245919   6.490   2.053   0.886 -0.4374  0.1593  0.2252
 8143TIP3    H145920   6.505   2.051   0.980  0.9852  2.2893  0.1015
 8143TIP3    H245921   6.570   2.018   0.848  0.5187  2.6257 -0.2128
 8144TIP3   OH245922   2.946   5.639   0.356 -0.2491  0.7644 -0.6184
 8144TIP3    H145923   2.938   5.544   0.356 -2.5130  0.8787  0.8853
 8144TIP3    H245924   3.014   5.657   0.291  0.2630 -1.8520 -0.9312
 8145TIP3   OH245925   2.512   4.648  14.049  0.0138  0.8807 -0.4918
 8145TIP3    H145926   2.590   4.622  14.098 -0.2611  2.1709  0.6883
 8145TIP3    H245927   2.545   4.708  13.982  0.0542  1.3253 -0.0756
 8146TIP3   OH245928   1.995   1.897  15.300 -0.1848 -0.3972  0.4544
 8146TIP3    H145929   1.928   1.916  15.366 -1.0122 -0.7707 -0.2581
 8146TIP3    H245930   1.998   1.976  15.246 -1.8046 -1.2498 -0.9687
 8147TIP3   OH245931   2.199   2.801  12.859  0.7141  0.0084 -0.6561
 8147TIP3    H145932   2.264   2.789  12.929  2.0524 -0.5532 -1.9448
 8147TIP3    H245933   2.240   2.864  12.799  0.7512 -1.4529 -2.2423
 8148TIP3   OH245934   0.986   3.268  16.158 -0.1652  0.0533  0.1403
 8148TIP3    H145935   1.010   3.294  16.069  1.3909 -1.7928 -0.0472
 8148TIP3    H245936   0.951   3.348  16.197  0.7684  1.3770 -1.5599
 8149TIP3   OH245937   1.387   1.650  13.442  0.2622 -0.3079  0.7499
 8149TIP3    H145938   1.452   1.591  13.403  0.5380  0.0825  0.6062
 8149TIP3    H245939   1.356   1.703  13.368  0.4001  0.0759  0.9644
 8150TIP3   OH245940   5.468   0.514  16.029  0.1136  0.5060 -0.1402
 8150TIP3    H145941   5.514   0.435  16.058 -0.2533  0.4122  0.1859
 8150TIP3    H245942   5.396   0.482  15.975  0.9012  0.6854 -1.3439
 8151TIP3   OH245943   4.439   2.674  15.934  0.2551 -0.0757 -0.3047
 8151TIP3    H145944   4.351   2.637  15.925 -0.2438  1.0562 -0.1241
 8151TIP3    H245945   4.426   2.765  15.960  1.5117 -0.3937  1.6366
 8152TIP3   OH245946   5.909   1.464   4.341  0.6543 -0.2745 -0.2593
 8152TIP3    H145947   5.904   1.451   4.246 -0.1664 -1.6069 -0.0601
 8152TIP3    H245948   6.003   1.466   4.360  0.8249 -0.2579 -1.0522
 8153TIP3   OH245949   3.229   3.209  11.830 -0.6452 -0.0119  0.1855
 8153TIP3    H145950   3.282   3.221  11.752  1.4973  2.8923  1.8703
 8153TIP3    H245951   3.272   3.138  11.878 -0.6620 -0.3395 -0.2861
 8154TIP3   OH245952   3.934   4.321  16.775  0.1573 -0.3511  0.0024
 8154TIP3    H145953   3.916   4.243  16.723  1.6486 -0.1021 -0.9522
 8154TIP3    H245954   4.029   4.322  16.786  0.0848  0.8457  0.7667
 8155TIP3   OH245955   3.429   5.860   4.648  0.4120  0.1136 -0.4320
 8155TIP3    H145956   3.340   5.827   4.641  1.1208 -1.9063 -0.4856
 8155TIP3    H245957   3.424   5.949   4.612 -1.4079 -0.2478 -1.1837
 8156TIP3   OH245958   3.066   1.559  16.333 -0.3170  0.1062 -0.0348
 8156TIP3    H145959   3.134   1.611  16.377  1.5993  1.1981 -3.8216
 8156TIP3    H245960   2.986   1.609  16.344  0.2558  0.7697  1.3672
 8157TIP3   OH245961   2.921   1.282   5.742 -0.0818 -0.6938 -0.1542
 8157TIP3    H145962   2.945   1.214   5.679  0.5731 -0.8825  0.2887
 8157TIP3    H245963   2.950   1.248   5.827  1.2540  0.5762 -0.0431
 8158TIP3   OH245964   0.173   2.939  13.553  0.2942  0.1081 -0.5026
 8158TIP3    H145965   0.100   2.894  13.595  0.4238 -1.5919 -1.9803
 8158TIP3    H245966   0.134   3.019  13.518 -1.2656 -1.4109 -2.4660
 8159TIP3   OH245967   0.917   4.869  14.644 -0.6067  0.2229  0.1697
 8159TIP3    H145968   0.866   4.836  14.570 -3.5418  0.1629  2.0655
 8159TIP3    H245969   0.853   4.909  14.702  1.6433  0.8586  2.4101
 8160TIP3   OH245970   0.630   0.211  11.042  0.3591  0.1165  0.1846
 8160TIP3    H145971   0.638   0.149  10.970  0.3645 -0.0911  0.3617
 8160TIP3    H245972   0.592   0.290  11.003 -1.0031 -0.4833  0.2235
 8161TIP3   OH245973   5.050   6.591  12.152 -0.7647 -0.5621  0.6220
 8161TIP3    H145974   4.968   6.581  12.104 -0.1031 -1.5002 -0.3397
 8161TIP3    H245975   5.057   6.512  12.205  0.2329 -1.1956 -0.4270
 8162TIP3   OH245976   1.477   1.633  10.478 -0.1755  0.5030 -0.6444
 8162TIP3    H145977   1.443   1.558  10.430  1.2710 -0.9480  0.4781
 8162TIP3    H245978   1.407   1.657  10.538 -0.0495 -1.0758  0.1849
 8163TIP3   OH245979   5.415   5.216  16.532 -0.2191 -1.0012  0.3031
 8163TIP3    H145980   5.510   5.214  16.541  0.0525 -0.5854 -2.0760
 8163TIP3    H245981   5.391   5.308  16.542 -0.5639 -1.2287  2.0322
 8164TIP3   OH245982   6.300   5.125   0.830 -0.0099  0.1137 -0.5932
 8164TIP3    H145983   6.351   5.119   0.911  3.0675 -2.2836 -2.4521
 8164TIP3    H245984   6.222   5.073   0.846  0.2671  0.1641  1.0168
 8165TIP3   OH245985   0.803   3.500   4.272  0.0225 -0.1565  0.4080
 8165TIP3    H145986   0.777   3.576   4.322  1.6420  0.9093 -0.2922
 8165TIP3    H245987   0.785   3.425   4.329  1.7574  0.9859  2.6185
 8166TIP3   OH245988   5.790   4.334  17.203 -0.3068 -0.6932  0.4809
 8166TIP3    H145989   5.737   4.257  17.180 -1.6869  0.0640  0.9839
 8166TIP3    H245990   5.797   4.383  17.122  0.3893 -1.2216  0.2082
 8167TIP3   OH245991   4.602   0.085  12.703 -0.0610  0.0755 -0.0173
 8167TIP3    H145992   4.560   0.089  12.618 -0.0053  0.3496 -0.0314
 8167TIP3    H245993   4.535   0.114  12.765 -0.0852 -0.0737  0.0270
 8168TIP3   OH245994   3.426   0.997   4.030  0.3233 -0.0955 -0.0610
 8168TIP3    H145995   3.493   0.930   4.045  0.7173  0.1625 -0.6091
 8168TIP3    H245996   3.457   1.073   4.079 -0.3923 -0.4725  0.9893
 8169TIP3   OH245997   6.186   5.179  11.312  0.4467 -0.2091 -0.0337
 8169TIP3    H145998   6.152   5.241  11.376 -1.5061 -0.6568 -0.5648
 8169TIP3    H245999   6.239   5.232  11.253 -0.2332  0.7574  0.2008
 8170TIP3   OH246000   1.664   6.757   5.132  0.0143 -0.4412  0.2257
 8170TIP3    H146001   1.703   6.794   5.212  1.5453 -0.4579 -0.4719
 8170TIP3    H246002   1.736   6.712   5.089 -0.7771 -0.4413 -1.1693
 8171TIP3   OH246003   4.295   3.753  13.649 -0.2098 -0.0558  0.1014
 8171TIP3    H146004   4.222   3.728  13.705  0.3310 -0.3258  0.7060
 8171TIP3    H246005   4.336   3.827  13.694 -0.6687  0.7068 -0.7152
 8172TIP3   OH246006   6.629   4.621  15.256  0.3296  0.1281 -0.4411
 8172TIP3    H146007   6.535   4.619  15.239  0.2594 -3.1027 -0.1973
 8172TIP3    H246008   6.641   4.563  15.332  2.4253  1.3289  0.2396
 8173TIP3   OH246009   1.443   5.666  15.489 -0.3282  0.0928 -0.2502
 8173TIP3    H146010   1.414   5.741  15.541  0.7689  0.7500 -0.5496
 8173TIP3    H246011   1.471   5.601  15.554  0.7825  0.8069  0.0196
 8174TIP3   OH246012   4.902   0.251   4.106 -0.1786  0.8409  0.2342
 8174TIP3    H146013   4.968   0.305   4.063  2.5314 -2.9055 -0.9122
 8174TIP3    H246014   4.833   0.239   4.041 -0.3734  2.0803  0.1894
 8175TIP3   OH246015   1.662   0.517   5.895 -0.3056  0.1857  0.0380
 8175TIP3    H146016   1.675   0.610   5.913 -0.1001  0.1166  0.2469
 8175TIP3    H246017   1.637   0.514   5.802  1.9605  0.2516 -0.6274
 8176TIP3   OH246018   3.231   2.823  16.485 -0.2585  0.1663 -0.3817
 8176TIP3    H146019   3.230   2.727  16.491 -1.2935 -0.0362 -2.8111
 8176TIP3    H246020   3.168   2.843  16.417 -2.2161  2.7965  1.9809
 8177TIP3   OH246021   6.033   4.170  16.614  0.4611 -0.2859  0.0904
 8177TIP3    H146022   6.103   4.191  16.676  1.2612 -3.3770  0.4238
 8177TIP3    H246023   6.043   4.076  16.598 -1.4397 -0.1490 -2.6421
 8178TIP3   OH246024   0.648   4.129  11.219  0.3075  0.5524 -0.3819
 8178TIP3    H146025   0.630   4.086  11.135  0.4064 -1.6538  0.6405
 8178TIP3    H246026   0.700   4.065  11.268  0.1493  1.7144  1.4193
 8179TIP3   OH246027   3.466   0.496   3.528 -0.1561 -0.1716 -0.0893
 8179TIP3    H146028   3.489   0.564   3.464 -0.8627  1.3724  1.2210
 8179TIP3    H246029   3.382   0.462   3.496 -0.2728  0.2545 -0.2520
 8180TIP3   OH246030   0.902   6.392   3.830  0.7280 -0.2787 -0.4430
 8180TIP3    H146031   0.853   6.462   3.786 -0.9357 -0.6703  0.6741
 8180TIP3    H246032   0.986   6.432   3.853  0.9807  0.4422 -2.3921
 8181TIP3   OH246033   4.982   3.632  14.822 -0.2608 -0.3011 -0.2021
 8181TIP3    H146034   5.061   3.634  14.768  0.9273  0.0502  1.4604
 8181TIP3    H246035   4.951   3.541  14.815 -0.2119 -0.2264 -1.5428
 8182TIP3   OH246036   0.416   4.381  14.324 -0.1629  0.6052  0.6796
 8182TIP3    H146037   0.338   4.332  14.349 -0.2101  0.6917  0.7050
 8182TIP3    H246038   0.479   4.315  14.297 -0.5420  0.5699 -0.1703
 8183TIP3   OH246039   1.333   6.450  13.483 -0.4595  0.1391 -0.0603
 8183TIP3    H146040   1.319   6.372  13.536  1.3469  0.4604  0.9638
 8183TIP3    H246041   1.428   6.458  13.476 -0.5969  2.2068 -0.1811
 8184TIP3   OH246042   2.385   4.578  12.183  0.4476 -0.2267  0.0981
 8184TIP3    H146043   2.364   4.661  12.140  0.2273  0.4944  1.5394
 8184TIP3    H246044   2.461   4.597  12.238  0.7198 -1.1179  0.0517
 8185TIP3   OH246045   3.660   5.219  16.466  0.0066  0.1905  0.3874
 8185TIP3    H146046   3.721   5.175  16.406  0.1401  0.5144  0.2758
 8185TIP3    H246047   3.601   5.151  16.496  0.1691 -0.0478  0.1678
 8186TIP3   OH246048   4.882   2.598   0.164  0.3220 -0.1357  0.0894
 8186TIP3    H146049   4.971   2.575   0.189  0.0879  1.0492  2.2921
 8186TIP3    H246050   4.840   2.515   0.145  1.3895 -0.8845  0.9108
 8187TIP3   OH246051   3.151   4.349  12.823  0.0555  0.8352 -0.0012
 8187TIP3    H146052   3.067   4.307  12.802 -0.2933  0.4317  2.0328
 8187TIP3    H246053   3.217   4.286  12.796 -0.3673  0.3268  0.1396
 8188TIP3   OH246054   0.039   6.223  14.883 -0.2887  0.6114  0.3017
 8188TIP3    H146055   0.104   6.265  14.940 -0.4301 -0.2181  1.1032
 8188TIP3    H246056   0.087   6.156  14.836  0.0177  1.8737 -1.2687
 8189TIP3   OH246057   3.294   1.960  13.960  0.0167  0.0998  0.7286
 8189TIP3    H146058   3.202   1.973  13.984 -0.2106 -0.5281  0.2220
 8189TIP3    H246059   3.291   1.925  13.871  0.8069  1.3592  0.1813
 8190TIP3   OH246060   0.212   5.407   0.963 -0.3715  0.5715  0.0688
 8190TIP3    H146061   0.242   5.338   1.022  0.3151  0.3686 -0.5085
 8190TIP3    H246062   0.241   5.488   1.005 -1.7510  0.5668  1.0784
 8191TIP3   OH246063   2.246   0.709   1.141  0.3193 -0.0168 -0.7191
 8191TIP3    H146064   2.284   0.763   1.072 -0.1027  0.3003 -0.7105
 8191TIP3    H246065   2.197   0.771   1.195  1.1480 -0.1594  0.2287
 8192TIP3   OH246066   4.601   1.514  13.782  0.3142 -0.0491  0.4769
 8192TIP3    H146067   4.598   1.515  13.686  0.1010 -1.5784  0.4515
 8192TIP3    H246068   4.612   1.606  13.806 -0.4342  0.4524 -0.9820
 8193TIP3   OH246069   4.934   2.346  12.754 -0.2350  0.0210  0.6132
 8193TIP3    H146070   4.909   2.384  12.838  0.4801 -0.6978  1.1648
 8193TIP3    H246071   4.943   2.252  12.772 -0.6763 -0.2316 -0.4134
 8194TIP3   OH246072   3.878   2.227  12.817  0.1278 -0.2992 -0.2299
 8194TIP3    H146073   3.938   2.295  12.847  0.9901 -0.8647 -0.6371
 8194TIP3    H246074   3.791   2.258  12.844  0.8323 -0.7616  2.8144
 8195TIP3   OH246075   1.443   6.550   2.245  0.8578 -0.2951 -0.5653
 8195TIP3    H146076   1.472   6.459   2.236 -1.6867 -1.0133 -2.3544
 8195TIP3    H246077   1.349   6.547   2.229  0.6952  2.6804 -0.6132
 8196TIP3   OH246078   4.971   6.675   3.911  0.0376  0.4615 -0.3747
 8196TIP3    H146079   4.915   6.684   3.988  0.2002  0.2363 -0.2286
 8196TIP3    H246080   5.043   6.736   3.927  2.0408 -2.1377  1.4177
 8197TIP3   OH246081   4.010   6.520   3.535  0.2404  0.7911 -0.5105
 8197TIP3    H146082   3.926   6.529   3.579  0.1226  1.7163 -0.9057
 8197TIP3    H246083   4.024   6.425   3.530 -0.0779  0.6410  0.8548
 8198TIP3   OH246084   1.945   5.306  12.315  0.3793  0.1787  0.1239
 8198TIP3    H146085   1.897   5.357  12.249  0.8783  1.5128  0.7417
 8198TIP3    H246086   1.893   5.315  12.395 -0.6641 -2.1242 -0.2404
 8199TIP3   OH246087   6.413   1.991  14.307  0.0039 -0.0249 -0.0179
 8199TIP3    H146088   6.361   1.917  14.339 -1.7912  0.1831 -2.2436
 8199TIP3    H246089   6.348   2.057  14.282  1.4883  1.4517 -0.1275
 8200TIP3   OH246090   0.639   2.047  15.344 -0.6344 -0.8676  0.3011
 8200TIP3    H146091   0.672   1.999  15.420 -1.3008 -1.7651  0.0422
 8200TIP3    H246092   0.615   1.979  15.281 -0.2598 -0.1425 -0.6453
 8201TIP3   OH246093   3.064   5.570   0.032 -0.3833 -0.0441 -0.0543
 8201TIP3    H146094   3.016   5.495   0.066 -0.1719 -0.2429 -0.1936
 8201TIP3    H246095   3.036   5.577  -0.059  1.9425 -1.9179 -1.0209
 8202TIP3   OH246096   6.647   6.196  16.191  0.2611 -0.1609  0.1344
 8202TIP3    H146097   6.666   6.222  16.281  0.3972 -0.2804  0.1424
 8202TIP3    H246098   6.640   6.278  16.142 -1.4677 -0.0158  0.5744
 8203TIP3   OH246099   2.772   2.870  15.823 -0.5110  0.1311  0.0332
 8203TIP3    H146100   2.866   2.885  15.820 -0.6753  1.2033 -0.1638
 8203TIP3    H246101   2.738   2.942  15.876 -1.3936  0.6636 -1.2112
 8204TIP3   OH246102   2.840   4.554   0.559 -0.1430 -0.3177  0.2378
 8204TIP3    H146103   2.886   4.470   0.566  0.6304  0.1602  1.1684
 8204TIP3    H246104   2.851   4.594   0.645  1.2083  1.6186 -0.7687
 8205TIP3   OH246105   4.161   1.823   4.437 -0.4199  0.2679 -0.0287
 8205TIP3    H146106   4.110   1.742   4.435 -1.4152  0.8774 -1.9155
 8205TIP3    H246107   4.190   1.834   4.346  3.4129 -0.2127  0.9530
 8206TIP3   OH246108   1.879   4.988   3.844 -0.4388 -0.0058 -0.7444
 8206TIP3    H146109   1.938   5.064   3.852  0.9556 -1.2275  1.6563
 8206TIP3    H246110   1.843   4.995   3.755 -0.7305  3.6730 -0.4811
 8207TIP3   OH246111   6.458   5.762  15.664 -0.3155 -0.5745 -0.3196
 8207TIP3    H146112   6.364   5.777  15.667 -0.2061  0.7749 -1.9610
 8207TIP3    H246113   6.492   5.806  15.742 -0.8896  0.5424 -0.6769
 8208TIP3   OH246114   5.447   4.645  11.080  0.1713  0.2640 -0.0641
 8208TIP3    H146115   5.411   4.589  11.012  0.8974  0.8160 -0.9247
 8208TIP3    H246116   5.430   4.734  11.050  2.3617  0.5594 -0.6096
 8209TIP3   OH246117   4.611   0.792  12.983  0.4814 -0.3752  0.3676
 8209TIP3    H146118   4.575   0.711  12.947  0.4937 -0.1503 -0.1612
 8209TIP3    H246119   4.673   0.822  12.917 -0.9538  1.1089 -0.3689
 8210TIP3   OH246120   5.031   0.484  12.583  0.1536  0.2066 -0.5714
 8210TIP3    H146121   5.108   0.494  12.638  0.8600 -0.7194 -1.3535
 8210TIP3    H246122   4.957   0.487  12.644  0.4201  4.8862 -0.1041
 8211TIP3   OH246123   2.896   3.400  14.397  0.2763  0.1668  0.5237
 8211TIP3    H146124   2.931   3.388  14.308 -2.6337  1.2621 -0.9068
 8211TIP3    H246125   2.947   3.473  14.433  1.9578 -0.7252  0.0797
 8212TIP3   OH246126   6.173   1.876   5.340  0.4961 -0.3780 -0.7742
 8212TIP3    H146127   6.158   1.948   5.279  1.5166 -0.1470 -0.7724
 8212TIP3    H246128   6.263   1.849   5.323  0.8388 -0.2311  0.7328
 8213TIP3   OH246129   0.636   0.799  16.965  0.3661  0.0438 -0.3508
 8213TIP3    H146130   0.558   0.842  17.000  0.5003  0.1862 -0.2232
 8213TIP3    H246131   0.671   0.749  17.039  0.5073  0.1394 -0.3531
 8214TIP3   OH246132   4.023   1.533  14.762 -0.1170 -0.2380  0.2623
 8214TIP3    H146133   4.109   1.572  14.774  0.3710 -0.9157 -0.9138
 8214TIP3    H246134   3.988   1.575  14.684 -1.9028  1.7767  2.0022
 8215TIP3   OH246135   2.551   3.333  12.924 -0.4534 -0.7575 -0.0779
 8215TIP3    H146136   2.480   3.296  12.976 -2.1817 -1.0980 -2.5019
 8215TIP3    H246137   2.520   3.327  12.833  0.4672  3.8302 -0.9313
 8216TIP3   OH246138   1.449   5.725   2.589 -0.2447 -0.2685 -0.2531
 8216TIP3    H146139   1.397   5.793   2.632 -0.2089  0.1916 -0.9207
 8216TIP3    H246140   1.453   5.752   2.497 -1.4017 -1.8791 -0.8303
 8217TIP3   OH246141   4.128   4.240   5.832  0.4970  0.0821  0.2085
 8217TIP3    H146142   4.082   4.202   5.907  1.8381 -1.2123  0.4369
 8217TIP3    H246143   4.093   4.194   5.756 -0.1337  0.6650  0.1410
 8218TIP3   OH246144   4.257   6.278   0.048 -0.7144  0.2582 -0.3444
 8218TIP3    H146145   4.174   6.310   0.082 -0.2314  0.1288  1.0261
 8218TIP3    H246146   4.284   6.210   0.110 -0.4770 -1.0372 -1.7787
 8219TIP3   OH246147   1.805   5.734   0.208 -0.2526  0.5167  0.0630
 8219TIP3    H146148   1.758   5.657   0.241  0.7205 -0.8795 -1.6312
 8219TIP3    H246149   1.828   5.784   0.287 -0.8329 -0.9650  1.2188
 8220TIP3   OH246150   3.462   4.011   6.233 -0.6585  0.7858 -0.0090
 8220TIP3    H146151   3.539   4.045   6.278 -0.4574  0.1650  0.1308
 8220TIP3    H246152   3.388   4.057   6.273 -0.4486  0.5476  0.6632
 8221TIP3   OH246153   3.821   0.346   5.737 -0.0802  0.2079 -0.3240
 8221TIP3    H146154   3.770   0.276   5.697  1.9262 -1.0946 -0.7719
 8221TIP3    H246155   3.829   0.413   5.669 -2.1384  1.0420  0.1580
 8222TIP3   OH246156   4.254   0.746   5.879  0.5152  0.3710  0.5329
 8222TIP3    H146157   4.159   0.739   5.877  0.6319 -2.4249  0.2625
 8222TIP3    H246158   4.277   0.728   5.971  0.7960 -0.2291  0.3557
 8223TIP3   OH246159   4.647   2.948  11.910  0.0338 -0.0039  0.0136
 8223TIP3    H146160   4.642   2.869  11.963  0.4181  0.7409  1.1996
 8223TIP3    H246161   4.714   2.929  11.844  1.1750 -0.1620  1.1855
 8224TIP3   OH246162   1.056   3.824  16.998 -0.5712 -0.0548 -0.5649
 8224TIP3    H146163   1.133   3.811  17.053 -1.2650  0.2145  0.5064
 8224TIP3    H246164   1.033   3.916  17.012  0.4445  0.6182 -2.9392
 8225TIP3   OH246165   0.428   0.459   3.180  0.5028 -0.0666 -0.0097
 8225TIP3    H146166   0.410   0.525   3.246  2.3617  0.2129  0.2519
 8225TIP3    H246167   0.421   0.376   3.227 -1.8075 -0.1376 -0.3330
 8226TIP3   OH246168   1.321   5.008  14.401  0.2898 -0.1026  0.3426
 8226TIP3    H146169   1.256   4.956  14.447 -2.5131  2.5742 -0.2294
 8226TIP3    H246170   1.368   5.054  14.470 -1.1871  0.8849  0.7513
 8227TIP3   OH246171   2.969   2.928  16.434  0.2181  0.5530 -0.3242
 8227TIP3    H146172   2.907   2.872  16.480  0.5023 -1.6938 -2.4162
 8227TIP3    H246173   3.016   2.974  16.503  1.9297 -3.9355  1.8992
 8228TIP3   OH246174   2.372   4.457   1.753 -0.0069  0.2929 -0.3909
 8228TIP3    H146175   2.431   4.402   1.804 -0.0135 -0.1801 -0.8853
 8228TIP3    H246176   2.427   4.529   1.721 -0.9298  3.6139  4.4752
 8229TIP3   OH246177   5.871   1.362  13.620  0.3485 -0.0293 -0.3925
 8229TIP3    H146178   5.806   1.303  13.581  2.2512 -2.5123 -0.0359
 8229TIP3    H246179   5.925   1.391  13.546  0.2558  0.1795 -0.3793
 8230TIP3   OH246180   3.075   0.138   2.963 -0.4423  0.1973 -0.4374
 8230TIP3    H146181   3.002   0.200   2.962  0.5255  1.3866 -1.0540
 8230TIP3    H246182   3.069   0.093   2.878 -0.7511 -0.0703 -0.2745
 8231TIP3   OH246183   0.718   6.142  16.805  0.1123 -0.4120  0.8393
 8231TIP3    H146184   0.750   6.141  16.715  1.0954  2.1271  1.0708
 8231TIP3    H246185   0.783   6.091  16.854  0.0297 -1.0916  0.2473
 8232TIP3   OH246186   6.683   1.819  15.962  0.3743  1.0316 -0.1905
 8232TIP3    H146187   6.704   1.776  15.879  0.8024 -0.5471  0.7027
 8232TIP3    H246188   6.615   1.764  16.001  0.5687  1.4548  0.7702
 8233TIP3   OH246189   1.240   5.064   0.274  0.1403  0.0806  0.4188
 8233TIP3    H146190   1.182   5.112   0.333  0.2939  1.4276 -0.4824
 8233TIP3    H246191   1.271   4.990   0.326 -0.3008  0.8265  1.7929
 8234TIP3   OH246192   3.130   2.419  15.986 -0.0654 -0.3580  0.1235
 8234TIP3    H146193   3.193   2.358  15.947 -0.3836 -0.4911 -0.1850
 8234TIP3    H246194   3.149   2.503  15.945  1.0149 -0.0121  1.2450
 8235TIP3   OH246195   2.310   1.993   1.865 -0.6845  0.3059 -0.1493
 8235TIP3    H146196   2.343   2.062   1.809  1.8295  0.5000  1.4279
 8235TIP3    H246197   2.349   1.913   1.830 -1.9180 -0.0847 -0.7107
 8236TIP3   OH246198   1.415   4.424   5.241  0.2909 -0.0341  0.2544
 8236TIP3    H146199   1.375   4.452   5.324 -0.2646  1.5711 -0.5150
 8236TIP3    H246200   1.366   4.345   5.217  0.4421 -0.5095  1.4136
 8237TIP3   OH246201   0.038   1.688   1.051  0.0375 -0.3767  0.1812
 8237TIP3    H146202   0.084   1.613   1.090 -1.3460 -0.7035  1.2474
 8237TIP3    H246203  -0.002   1.732   1.126 -0.1297  0.7767 -0.5718
 8238TIP3   OH246204   3.577   2.077  13.545  0.1509 -0.2520 -1.3322
 8238TIP3    H146205   3.600   2.088  13.637  0.1932 -0.8228 -1.2708
 8238TIP3    H246206   3.507   2.141  13.529  0.2317 -0.0647 -0.9398
 8239TIP3   OH246207   6.066   0.405   2.680 -0.5605  0.1126 -0.6746
 8239TIP3    H146208   6.142   0.392   2.735 -0.8295 -3.1872 -0.8733
 8239TIP3    H246209   5.994   0.421   2.741 -0.3712 -0.7310 -0.2163
 8240TIP3   OH246210   5.242   5.389  12.088  0.1106 -0.0550 -0.8224
 8240TIP3    H146211   5.230   5.295  12.074  0.5127 -0.5194  1.5161
 8240TIP3    H246212   5.172   5.429  12.036 -1.9995 -1.8422  0.4355
 8241TIP3   OH246213   1.298   4.892   0.759  0.2175  0.8180  0.0543
 8241TIP3    H146214   1.219   4.838   0.751  0.6945 -0.2239  1.7245
 8241TIP3    H246215   1.272   4.966   0.813 -0.1175  1.6218 -1.1734
 8242TIP3   OH246216   1.972   5.390   5.943 -0.3489 -0.3718 -0.3304
 8242TIP3    H146217   1.992   5.397   5.850 -0.6352 -2.7974 -0.6381
 8242TIP3    H246218   1.889   5.435   5.953 -0.7692 -0.8537 -1.4620
 8243TIP3   OH246219   3.759   4.554  15.532  0.2489 -0.0434 -0.1263
 8243TIP3    H146220   3.769   4.645  15.559  0.5863 -0.5425  1.5380
 8243TIP3    H246221   3.664   4.539  15.535  0.1943  0.2345 -0.3778
 8244TIP3   OH246222   3.691   1.321   1.968  0.1342  0.5342  0.1867
 8244TIP3    H146223   3.658   1.331   2.057 -0.5718  0.1818 -0.0257
 8244TIP3    H246224   3.613   1.328   1.913  0.3411 -0.6996 -0.3041
 8245TIP3   OH246225   5.007   0.711  11.549  0.2572 -0.2323 -0.1397
 8245TIP3    H146226   5.031   0.689  11.459  0.4771  1.0331 -0.4123
 8245TIP3    H246227   5.002   0.627  11.594 -2.5019 -1.1866 -1.9564
 8246TIP3   OH246228   1.204   1.583   0.764  0.1424  0.5042  0.7051
 8246TIP3    H146229   1.134   1.625   0.814 -0.8637  0.2457 -0.4436
 8246TIP3    H246230   1.225   1.504   0.813 -1.3652 -0.1468  0.3534
 8247TIP3   OH246231   3.537   5.068  17.036  0.3057  0.2094  0.0568
 8247TIP3    H146232   3.451   5.060  16.995 -0.9456 -0.3025  2.5260
 8247TIP3    H246233   3.571   5.152  17.006 -0.6427  0.0144 -1.6815
 8248TIP3   OH246234   5.854   5.172  13.122  0.2768 -0.1100  0.2761
 8248TIP3    H146235   5.889   5.112  13.188  2.2011  1.3457  0.6540
 8248TIP3    H246236   5.878   5.133  13.038  0.9628 -0.1988  0.5090
 8249TIP3   OH246237   2.814   0.856   2.244  0.2154 -0.2786  0.0512
 8249TIP3    H146238   2.824   0.821   2.155  0.4892 -2.9761  1.0491
 8249TIP3    H246239   2.868   0.935   2.244  1.7902 -1.2535 -1.6646
 8250TIP3   OH246240   2.006   4.717   1.892 -0.2156 -0.4661 -0.3474
 8250TIP3    H146241   2.032   4.681   1.807 -0.6758 -0.5440 -0.4625
 8250TIP3    H246242   2.076   4.777   1.915  1.0076 -2.0366  0.2430
 8251TIP3   OH246243   1.095   1.743   6.798  0.0704 -0.1474 -0.2884
 8251TIP3    H146244   1.121   1.652   6.787  0.6166 -0.0229 -0.0635
 8251TIP3    H246245   1.163   1.781   6.853 -0.8456  0.0738  0.7316
 8252TIP3   OH246246   1.381   6.556   5.335  0.3806  0.3570 -0.3696
 8252TIP3    H146247   1.449   6.503   5.293  1.4272 -0.6381  2.3871
 8252TIP3    H246248   1.303   6.501   5.331 -0.4869  1.5569 -3.6702
 8253TIP3   OH246249   0.738   6.306  14.496 -0.5937  0.5603  0.0942
 8253TIP3    H146250   0.685   6.227  14.506 -3.0582  2.0598 -0.3124
 8253TIP3    H246251   0.813   6.278  14.444 -1.2560 -1.5610  0.1868
 8254TIP3   OH246252   0.791   2.579  16.329  0.3414  0.0486  0.2236
 8254TIP3    H146253   0.847   2.511  16.294  0.8395  0.9317 -0.7557
 8254TIP3    H246254   0.769   2.550  16.417  0.3301 -1.4846 -0.2706
 8255TIP3   OH246255   0.696   2.325   5.630  0.3679 -0.3734  0.1732
 8255TIP3    H146256   0.729   2.287   5.711 -1.4476 -1.6284  0.3911
 8255TIP3    H246257   0.674   2.416   5.653 -1.4881 -1.1102  1.5536
 8256TIP3   OH246258   0.416   4.359  12.177  0.5295  0.2530  0.0585
 8256TIP3    H146259   0.323   4.335  12.173  1.0039 -1.6914 -0.3904
 8256TIP3    H246260   0.422   4.437  12.122 -1.0412  1.2351  1.1786
 8257TIP3   OH246261   0.834   3.184  14.490  0.0066  0.2018 -0.3816
 8257TIP3    H146262   0.903   3.208  14.552 -1.7605  1.3190  1.2786
 8257TIP3    H246263   0.838   3.252  14.422  0.0956  0.6988  0.1077
 8258TIP3   OH246264   0.409   6.201   5.578  0.2706 -0.8960 -0.5649
 8258TIP3    H146265   0.403   6.264   5.650  0.7438 -1.0074 -0.4263
 8258TIP3    H246266   0.355   6.240   5.509  0.5836 -0.3130 -0.4948
 8259TIP3   OH246267   6.455   4.115  10.500  0.3319  0.2976 -0.0663
 8259TIP3    H146268   6.456   4.019  10.498 -1.5825  0.2461 -0.7230
 8259TIP3    H246269   6.512   4.138  10.574  2.1152 -1.2600 -0.8777
 8260TIP3   OH246270   5.503   4.496   1.637 -0.0008  0.0498 -0.2891
 8260TIP3    H146271   5.518   4.451   1.720 -3.4627 -1.2256 -0.1703
 8260TIP3    H246272   5.534   4.435   1.570 -1.1786 -0.8917 -0.0071
 8261TIP3   OH246273   6.725   5.594  14.218 -0.1022  0.3293  0.2217
 8261TIP3    H146274   6.661   5.556  14.279 -1.6976  0.8988 -1.0227
 8261TIP3    H246275   6.723   5.536  14.142  1.5085 -0.1010  0.4661
 8262TIP3   OH246276   0.870   5.796  15.815  0.6282 -0.2331  0.7832
 8262TIP3    H146277   0.779   5.824  15.811  1.1081  1.7404  2.2849
 8262TIP3    H246278   0.885   5.774  15.907  1.3681 -1.7962  0.3380
 8263TIP3   OH246279   1.381   2.598   2.148 -0.3280  0.7773 -0.1920
 8263TIP3    H146280   1.432   2.677   2.129  2.5116 -0.4044  1.8713
 8263TIP3    H246281   1.335   2.618   2.229  0.8115  0.2291  0.6264
 8264TIP3   OH246282   5.277   3.186  11.325 -0.0192 -0.6391  0.5727
 8264TIP3    H146283   5.329   3.118  11.281  1.8781  0.6586  0.6865
 8264TIP3    H246284   5.330   3.265  11.316 -2.2653  0.9109  0.2378
 8265TIP3   OH246285   2.127   1.313   1.033 -0.1731  0.0558 -0.2008
 8265TIP3    H146286   2.113   1.381   1.098 -1.5498  0.8253 -1.2607
 8265TIP3    H246287   2.219   1.287   1.045  0.0860  1.3768  0.8797
 8266TIP3   OH246288   6.734   2.130   4.862 -0.8275  0.4889  0.3574
 8266TIP3    H146289   6.666   2.127   4.929  1.9188  1.3107  3.4226
 8266TIP3    H246290   6.789   2.054   4.881 -0.1837  0.5189 -1.2705
 8267TIP3   OH246291   4.957   2.533  12.456 -0.1547  0.4444 -0.2318
 8267TIP3    H146292   5.029   2.505  12.399  0.9644 -0.2977  1.4804
 8267TIP3    H246293   4.940   2.457  12.512 -1.3652  1.0769  0.2962
 8268TIP3   OH246294   3.253   3.392   3.367 -0.3134 -0.7041  0.1778
 8268TIP3    H146295   3.346   3.400   3.391 -0.1883 -0.6056 -0.3107
 8268TIP3    H246296   3.206   3.396   3.450  0.0898 -0.2261  0.3873
 8269TIP3   OH246297   2.651   4.147  16.418 -0.3302 -0.5492 -0.2402
 8269TIP3    H146298   2.711   4.175  16.350  0.4933 -0.2920  0.5756
 8269TIP3    H246299   2.609   4.228  16.448 -0.7319 -0.6683 -0.4650
 8270TIP3   OH246300   1.217   4.243  14.266  0.0047 -0.3305 -0.1823
 8270TIP3    H146301   1.151   4.304  14.301 -0.2860 -1.4150  1.2451
 8270TIP3    H246302   1.169   4.192  14.201 -0.8490 -1.6845  1.4447
 8271TIP3   OH246303   4.813   1.370  13.905  0.0583  0.2412 -0.1651
 8271TIP3    H146304   4.729   1.380  13.861 -0.5997 -0.2251  0.9397
 8271TIP3    H246305   4.858   1.453  13.891 -0.4471  0.3757 -1.0436
 8272TIP3   OH246306   6.306   4.169   4.656 -0.0765  0.1011 -0.4374
 8272TIP3    H146307   6.217   4.139   4.637  0.0546 -0.3974 -0.2697
 8272TIP3    H246308   6.362   4.098   4.626  0.1934 -0.1934  0.7185
 8273TIP3   OH246309   3.328   1.067   0.056 -1.0569 -0.4554 -0.0097
 8273TIP3    H146310   3.254   1.125   0.075  0.7757  1.4868  1.6942
 8273TIP3    H246311   3.381   1.116  -0.007 -0.4634 -1.1513 -0.0576
 8274TIP3   OH246312   4.216   3.977   2.138 -0.1670 -0.1635 -0.6518
 8274TIP3    H146313   4.206   3.882   2.141  0.4963 -0.2233  0.2359
 8274TIP3    H246314   4.309   3.990   2.119  0.3105  0.2707  1.6902
 8275TIP3   OH246315   1.666   4.221  12.582  0.3510 -0.1575  0.0229
 8275TIP3    H146316   1.753   4.207  12.619 -0.1916  0.1262  1.4783
 8275TIP3    H246317   1.623   4.136  12.587  0.4142 -0.2119 -0.3447
 8276TIP3   OH246318   6.722   5.370   0.191 -0.4018  0.3120 -0.0698
 8276TIP3    H146319   6.791   5.425   0.229  0.9078 -1.5672  0.3847
 8276TIP3    H246320   6.672   5.340   0.267 -0.5279  0.1026 -0.2356
 8277TIP3   OH246321   3.213   4.383   0.227 -0.9600  0.0931 -0.4506
 8277TIP3    H146322   3.233   4.290   0.213  0.2904  0.2718  0.0037
 8277TIP3    H246323   3.206   4.391   0.322  0.5437  0.7502 -0.3701
 8278TIP3   OH246324   4.449   1.758   5.244  0.2102  0.1366  0.4522
 8278TIP3    H146325   4.353   1.760   5.242  0.1359 -1.9119 -0.7086
 8278TIP3    H246326   4.473   1.838   5.290 -2.0891  0.0250  2.0571
 8279TIP3   OH246327   0.705   5.062   0.627  0.1392  0.3563  0.2328
 8279TIP3    H146328   0.796   5.048   0.599  0.2312  0.8613  0.2645
 8279TIP3    H246329   0.655   4.995   0.581  0.5391  0.0199  0.2804
 8280TIP3   OH246330   3.035   3.733   3.994  0.0101  0.1075  0.6884
 8280TIP3    H146331   2.963   3.734   4.056 -0.6507  0.2465 -0.0587
 8280TIP3    H246332   3.102   3.679   4.035 -1.0131 -1.0949  0.8589
 8281TIP3   OH246333   5.557   5.691  13.707 -0.4128 -0.8075 -0.2456
 8281TIP3    H146334   5.622   5.668  13.640  0.5102 -1.0771  0.7132
 8281TIP3    H246335   5.498   5.616  13.710 -0.2406 -0.9558 -0.5100
 8282TIP3   OH246336   3.299   1.229  16.853 -0.1824 -0.0050  0.0091
 8282TIP3    H146337   3.243   1.287  16.802  0.6734 -0.3007 -1.3044
 8282TIP3    H246338   3.346   1.176  16.788  0.4040 -0.9092  1.1185
 8283TIP3   OH246339   3.381   2.861   3.745 -0.0855  0.0679  0.0649
 8283TIP3    H146340   3.439   2.786   3.758 -0.0877 -0.0445 -0.5443
 8283TIP3    H246341   3.373   2.901   3.831  0.0472 -0.5410  0.3636
 8284TIP3   OH246342   3.543   5.320   0.765  0.2407 -0.3087 -0.8385
 8284TIP3    H146343   3.447   5.315   0.760  0.3191 -1.4039 -1.7538
 8284TIP3    H246344   3.573   5.256   0.700  1.6029  0.8205 -1.3577
 8285TIP3   OH246345   6.547   2.633   4.106  0.2065 -0.2925 -0.1119
 8285TIP3    H146346   6.475   2.608   4.048  0.1992 -1.8345  0.5115
 8285TIP3    H246347   6.506   2.645   4.191  0.7153 -1.5755  0.3365
 8286TIP3   OH246348   2.393   2.405   0.059  0.4276 -0.9362 -0.2481
 8286TIP3    H146349   2.394   2.500   0.073  3.4910 -0.7622 -0.9304
 8286TIP3    H246350   2.323   2.373   0.116 -1.0095  1.7561 -0.3547
 8287TIP3   OH246351   2.655   3.081  17.108  0.5275  0.2394 -0.3878
 8287TIP3    H146352   2.568   3.043  17.098  0.0821  1.5241 -1.7099
 8287TIP3    H246353   2.704   3.015  17.157 -1.3121 -0.2731  0.8685
 8288TIP3   OH246354   1.803   5.282   4.382  0.1339  0.5217  1.1018
 8288TIP3    H146355   1.717   5.276   4.341 -0.0349  0.3883  1.4769
 8288TIP3    H246356   1.788   5.260   4.474  0.8250 -1.1825  0.8560
 8289TIP3   OH246357   6.559   1.487  17.070  0.6802 -0.1452  0.3486
 8289TIP3    H146358   6.586   1.428  17.141 -1.0436  0.1420  1.3072
 8289TIP3    H246359   6.610   1.458  16.994  0.5143 -2.3372  0.9872
 8290TIP3   OH246360   3.815   1.252  17.221 -0.0744  1.4064 -0.0802
 8290TIP3    H146361   3.833   1.240  17.315 -1.5524 -1.7930 -0.0678
 8290TIP3    H246362   3.901   1.246  17.180  0.3378 -0.4756  0.9061
 8291TIP3   OH246363   3.641   3.091   2.960  0.2108 -0.0414  0.3008
 8291TIP3    H146364   3.601   3.052   2.883 -0.5897 -0.1087  0.7341
 8291TIP3    H246365   3.629   3.186   2.948 -0.6912 -0.0908  0.7404
 8292TIP3   OH246366   3.702   5.271  12.858  0.2846  0.6437  0.6610
 8292TIP3    H146367   3.758   5.213  12.909 -0.5937 -0.6835  0.1728
 8292TIP3    H246368   3.642   5.309  12.921  0.1239  0.1113  0.8372
 8293TIP3   OH246369   4.444   5.683   5.086 -0.5799  0.3299 -0.1035
 8293TIP3    H146370   4.525   5.717   5.124 -0.7392  0.8491 -0.2284
 8293TIP3    H246371   4.446   5.590   5.108 -1.1489  0.7729  2.0911
 8294TIP3   OH246372   1.964   3.385   4.241  0.0467 -0.1576 -0.3316
 8294TIP3    H146373   1.961   3.395   4.146  0.4913  0.0009 -0.3328
 8294TIP3    H246374   1.974   3.474   4.275  3.6520 -0.4229 -0.3237
 8295TIP3   OH246375   0.031   0.287  14.699  0.3576 -0.0389  0.2003
 8295TIP3    H146376   0.097   0.302  14.631  0.1812 -1.2267 -0.2644
 8295TIP3    H246377  -0.029   0.224  14.660  2.1127 -3.4845  2.5479
 8296TIP3   OH246378   5.165   2.499  14.892  0.3015 -0.0252  0.0524
 8296TIP3    H146379   5.160   2.447  14.972 -0.7808 -0.8678 -0.5318
 8296TIP3    H246380   5.257   2.524  14.885  0.7953 -1.5946  0.5460
 8297TIP3   OH246381   0.170   3.012  14.848  0.4936 -0.0504 -0.2277
 8297TIP3    H146382   0.193   2.923  14.823  0.4082 -0.3440  0.7045
 8297TIP3    H246383   0.232   3.034  14.918 -2.2372 -1.0589  2.7438
 8298TIP3   OH246384   0.170   4.536   5.082  0.5122 -0.5101 -0.4301
 8298TIP3    H146385   0.160   4.549   4.988  1.3537 -0.8961 -0.5839
 8298TIP3    H246386   0.118   4.606   5.121  1.8149  0.9790 -1.2054
 8299TIP3   OH246387   2.318   4.768  13.332  0.3775  0.6868 -0.1836
 8299TIP3    H146388   2.364   4.688  13.309  1.4863  1.2391  0.0760
 8299TIP3    H246389   2.387   4.830  13.356 -0.5409  1.2241  1.1707
 8300TIP3   OH246390   5.445   5.467  12.982  0.3288 -0.3841 -0.5527
 8300TIP3    H146391   5.475   5.507  12.900 -0.5273  4.1309  1.0166
 8300TIP3    H246392   5.525   5.455  13.034  0.5152  1.4228 -0.3459
 8301TIP3   OH246393   0.272   4.508  12.861 -0.0107  0.1286 -0.7611
 8301TIP3    H146394   0.287   4.572  12.792 -1.1805  1.2259 -0.0461
 8301TIP3    H246395   0.185   4.529  12.895  0.3839 -0.5909  0.8060
 8302TIP3   OH246396   5.883   0.636  15.622  0.3579  0.6294  0.1126
 8302TIP3    H146397   5.900   0.730  15.622 -0.7567  0.8407  0.5372
 8302TIP3    H246398   5.819   0.623  15.552  0.0838  0.2688  0.4249
 8303TIP3   OH246399   1.148   0.861  10.977  0.4058 -0.0891  0.5266
 8303TIP3    H146400   1.173   0.772  10.954  1.0374 -0.2569  1.8182
 8303TIP3    H246401   1.220   0.916  10.945 -1.1709  0.3618 -2.7588
 8304TIP3   OH246402   5.311   0.905   4.911  0.3303  0.1960  0.7821
 8304TIP3    H146403   5.289   0.899   5.004 -1.2914 -0.0077  0.4120
 8304TIP3    H246404   5.306   0.814   4.880  1.2543  0.2086  0.5583
 8305TIP3   OH246405   3.746   3.327   3.268  0.2548 -0.8497 -0.0078
 8305TIP3    H146406   3.813   3.394   3.254 -0.1711 -0.5821 -0.8422
 8305TIP3    H246407   3.731   3.328   3.363  0.1235  0.3747 -0.0222
 8306TIP3   OH246408   6.290   6.273  13.229  0.2144  0.1000  0.6052
 8306TIP3    H146409   6.205   6.308  13.203  0.2087 -0.8043 -0.7099
 8306TIP3    H246410   6.302   6.197  13.173  2.6318  1.1528 -0.4467
 8307TIP3   OH246411   4.496   3.958  13.234  0.2309  0.0824 -0.0263
 8307TIP3    H146412   4.424   4.017  13.253 -1.3000 -1.8177  0.3582
 8307TIP3    H246413   4.477   3.923  13.147  1.1242  0.1313 -0.2597
 8308TIP3   OH246414   3.385   4.032   0.965  0.9517 -0.1818 -0.4126
 8308TIP3    H146415   3.383   3.963   1.031  1.2142 -0.8534 -1.0901
 8308TIP3    H246416   3.463   4.013   0.912  0.1557 -0.2962 -1.5793
 8309TIP3   OH246417   5.711   4.417   2.184 -1.0515 -0.0855  0.2818
 8309TIP3    H146418   5.639   4.470   2.150 -0.1957  0.5336 -0.6145
 8309TIP3    H246419   5.758   4.388   2.105  0.5572  0.7732  0.8861
 8310TIP3   OH246420   4.350   5.099  16.352 -0.4199  0.0546 -0.3460
 8310TIP3    H146421   4.266   5.057  16.372 -1.2595  1.5669 -0.5789
 8310TIP3    H246422   4.330   5.192  16.346  1.3174  0.4720 -0.2630
 8311TIP3   OH246423   4.318   3.379  12.056 -0.2274 -0.1288 -0.2709
 8311TIP3    H146424   4.321   3.395  11.961  0.8040 -0.7602 -0.3550
 8311TIP3    H246425   4.403   3.407  12.088 -0.5843  0.1206  0.4899
 8312TIP3   OH246426   3.033   4.394   2.293  0.0476  0.7964 -0.0354
 8312TIP3    H146427   2.948   4.362   2.323 -0.1887  0.8780 -0.6117
 8312TIP3    H246428   3.017   4.484   2.265  0.0317  0.3948 -1.3835
 8313TIP3   OH246429   1.122   1.210  13.718  0.8557 -0.4887  0.5448
 8313TIP3    H146430   1.132   1.302  13.697  1.9620 -0.6078  0.4918
 8313TIP3    H246431   1.169   1.199  13.801  1.1732 -1.0964  0.2914
 8314TIP3   OH246432   6.531   1.840   1.497 -0.5049 -0.0928  0.1134
 8314TIP3    H146433   6.529   1.835   1.593  0.8943 -0.8874  0.1239
 8314TIP3    H246434   6.482   1.920   1.477 -1.4616 -0.3015  1.4419
 8315TIP3   OH246435   2.044   2.632  13.619 -0.5189  0.5553  0.7605
 8315TIP3    H146436   2.023   2.595  13.534  0.5549  0.1472  0.6631
 8315TIP3    H246437   2.024   2.726  13.611 -5.6397 -0.1171  1.7306
 8316TIP3   OH246438   6.474   0.168  16.188 -0.2395 -0.0603  0.2033
 8316TIP3    H146439   6.534   0.106  16.147  0.2116  0.5841 -0.1293
 8316TIP3    H246440   6.521   0.252  16.187  0.2759 -0.2084  3.0499
 8317TIP3   OH246441   6.129   2.117   4.947  0.3850 -0.0249  0.2231
 8317TIP3    H146442   6.077   2.092   5.024  1.0902  0.2991  0.8258
 8317TIP3    H246443   6.178   2.039   4.925 -0.3630 -0.3389 -0.3624
 8318TIP3   OH246444   4.927   5.123  11.529  0.1196 -0.4215  0.2039
 8318TIP3    H146445   4.910   5.035  11.563 -3.8621  0.1302  0.2010
 8318TIP3    H246446   4.915   5.180  11.605 -1.9847  0.3265 -0.6033
 8319TIP3   OH246447   0.270   6.291   2.517  0.3632  0.0789 -0.4387
 8319TIP3    H146448   0.189   6.305   2.567  0.9923 -0.8555  0.8811
 8319TIP3    H246449   0.250   6.327   2.430 -1.5514 -0.3469 -0.2264
 8320TIP3   OH246450   1.820   4.729  14.710 -0.3982  0.0612 -0.0592
 8320TIP3    H146451   1.751   4.664  14.701  0.3500 -0.7159 -0.3111
 8320TIP3    H246452   1.787   4.790  14.777 -1.5194 -0.0103 -0.5229
 8321TIP3   OH246453   2.201   3.814   5.592 -0.3544 -0.1993 -0.2245
 8321TIP3    H146454   2.124   3.847   5.639 -0.2237 -1.1580  0.6976
 8321TIP3    H246455   2.257   3.890   5.582  0.2842 -0.1951  2.5272
 8322TIP3   OH246456   6.334   5.246   3.492  0.1094 -0.1477 -0.4016
 8322TIP3    H146457   6.248   5.204   3.500  0.1394 -0.0680  0.3923
 8322TIP3    H246458   6.313   5.337   3.471 -0.1114  0.4756  2.2000
 8323TIP3   OH246459   0.774   1.797   6.337  0.2130 -0.6880  0.0933
 8323TIP3    H146460   0.741   1.887   6.344  1.5284  0.1578 -2.9349
 8323TIP3    H246461   0.737   1.764   6.256 -0.6973 -3.1944  1.4041
 8324TIP3   OH246462   3.777   3.399  15.030 -0.6436 -0.1848 -0.2168
 8324TIP3    H146463   3.785   3.477  15.084  0.5789  0.3862 -1.1455
 8324TIP3    H246464   3.844   3.339  15.064  0.2244  0.2302 -1.1288
 8325TIP3   OH246465   1.087   3.302   5.786  0.4113 -0.9268 -0.6545
 8325TIP3    H146466   1.076   3.214   5.821 -0.1990 -1.3962 -1.9432
 8325TIP3    H246467   0.998   3.334   5.772  0.6271  0.0066  0.0575
 8326TIP3   OH246468   4.811   1.961   0.570  0.1788 -0.6611  0.0520
 8326TIP3    H146469   4.804   1.868   0.548 -3.5832 -0.3078 -0.8842
 8326TIP3    H246470   4.775   1.967   0.658 -0.5747  0.0038 -0.2903
 8327TIP3   OH246471   6.170   2.284   0.359  0.4058  0.0782 -0.9474
 8327TIP3    H146472   6.211   2.228   0.425 -0.0664  0.1000 -0.6306
 8327TIP3    H246473   6.123   2.223   0.302 -0.0158  0.1369 -0.6683
 8328TIP3   OH246474   3.587   1.470   6.687  0.2392 -0.1364  0.6787
 8328TIP3    H146475   3.497   1.474   6.656  0.3293  2.4896  0.5821
 8328TIP3    H246476   3.635   1.431   6.613 -0.4188  0.9127 -0.3398
 8329TIP3   OH246477   0.147   1.470   5.101 -0.1748  0.5599  0.9763
 8329TIP3    H146478   0.125   1.543   5.043 -1.2448  1.1232  2.0430
 8329TIP3    H246479   0.064   1.423   5.111  0.5565 -0.9693  0.1039
 8330TIP3   OH246480   0.463   1.941   0.401  0.3379 -0.0739  0.0492
 8330TIP3    H146481   0.535   1.892   0.441  0.8108  0.7382  0.2030
 8330TIP3    H246482   0.499   2.027   0.381 -0.6383  0.4151  0.3047
 8331TIP3   OH246483   2.773   2.215   3.240  0.9254 -0.1297 -0.1724
 8331TIP3    H146484   2.862   2.204   3.273  1.5940  0.2895 -1.7664
 8331TIP3    H246485   2.782   2.270   3.162 -1.0599  2.5882  1.3172
 8332TIP3   OH246486   2.068   5.662   5.422 -0.0173 -0.0696 -0.6458
 8332TIP3    H146487   2.068   5.704   5.507 -0.1835  0.1432 -0.7508
 8332TIP3    H246488   2.111   5.577   5.437 -0.7205 -0.3582 -0.1932
 8333TIP3   OH246489   5.697   0.105   5.127  0.1825  0.2868  0.1436
 8333TIP3    H146490   5.661   0.188   5.097 -0.1592  0.4920  1.0851
 8333TIP3    H246491   5.771   0.130   5.182 -1.0565  0.0726  1.9682
 8334TIP3   OH246492   1.198   3.439   5.503 -0.4873 -0.1651 -0.3885
 8334TIP3    H146493   1.124   3.379   5.513  0.7120 -1.6044  0.1612
 8334TIP3    H246494   1.185   3.506   5.570 -1.3669 -0.2924 -0.4199
 8335TIP3   OH246495   4.582   6.143  10.899 -0.4928 -0.3154  0.2140
 8335TIP3    H146496   4.497   6.145  10.855  0.5191 -0.8393 -1.8916
 8335TIP3    H246497   4.639   6.096  10.838  1.5736  0.9705  1.0751
 8336TIP3   OH246498   5.966   4.776  13.324  0.3127  0.0931  0.0143
 8336TIP3    H146499   5.883   4.793  13.282  0.4432 -0.2403 -0.3779
 8336TIP3    H246500   5.994   4.690  13.291  0.7111  0.1081  0.2943
 8337TIP3   OH246501   0.063   0.012  15.091 -0.3944 -0.3151 -0.3998
 8337TIP3    H146502   0.065  -0.058  15.025 -0.5381  0.0826 -0.8311
 8337TIP3    H246503   0.124   0.078  15.057  1.0611 -0.9572  0.8423
 8338TIP3   OH246504   6.279   6.571   5.919 -0.2407 -0.1267  0.2807
 8338TIP3    H146505   6.359   6.605   5.959 -0.1024  1.4850 -1.2573
 8338TIP3    H246506   6.309   6.497   5.866  0.0900 -0.0790  0.3979
 8339TIP3   OH246507   5.786   2.082  16.693 -0.5397 -0.4345  0.0608
 8339TIP3    H146508   5.803   2.166  16.651 -0.6192  0.1094  1.0868
 8339TIP3    H246509   5.694   2.086  16.718 -0.6228 -0.9508 -0.1616
 8340TIP3   OH246510   2.126   5.552  10.759  0.0883 -0.2931 -0.1259
 8340TIP3    H146511   2.181   5.617  10.717 -0.6008 -0.6231 -1.6013
 8340TIP3    H246512   2.169   5.468  10.741 -0.1466 -0.4302 -0.0650
 8341TIP3   OH246513   4.510   3.359   3.653  0.5901 -0.9862 -0.1431
 8341TIP3    H146514   4.505   3.284   3.713  1.8326 -1.2355 -0.3289
 8341TIP3    H246515   4.443   3.341   3.587 -2.2975  0.2779  2.1781
 8342TIP3   OH246516   5.997   4.508  12.556 -0.1761  0.0580 -0.4208
 8342TIP3    H146517   5.984   4.584  12.498 -0.9534 -0.9120 -1.5675
 8342TIP3    H246518   6.038   4.442  12.500  0.9754 -0.2193  0.7034
 8343TIP3   OH246519   2.619   1.722  14.947  0.6274 -0.5946  0.1169
 8343TIP3    H146520   2.599   1.813  14.927 -0.7330 -1.2743 -1.9494
 8343TIP3    H246521   2.536   1.684  14.975  1.3723 -1.0325  1.9113
 8344TIP3   OH246522   2.833   2.434   1.623 -0.2654 -0.1416  0.1024
 8344TIP3    H146523   2.785   2.372   1.678 -1.3921  0.4546 -0.1762
 8344TIP3    H246524   2.893   2.379   1.572  2.1763 -0.5719  3.1578
 8345TIP3   OH246525   1.405   4.004  16.657 -0.1990 -0.2123 -0.0740
 8345TIP3    H146526   1.389   4.030  16.747  1.7645 -0.4722  0.4013
 8345TIP3    H246527   1.387   3.910  16.655 -0.3831 -0.1786  0.0115
 8346TIP3   OH246528   4.788   4.306  12.448  0.1799  0.1027  0.2250
 8346TIP3    H146529   4.769   4.370  12.517 -1.5477  0.3956 -0.4664
 8346TIP3    H246530   4.850   4.245  12.489  0.9306  1.5210  1.2854
 8347TIP3   OH246531   5.985   5.554  16.160  0.3444  0.3730  0.2633
 8347TIP3    H146532   5.918   5.592  16.217 -0.1292 -0.6006  0.3852
 8347TIP3    H246533   5.970   5.460  16.167  1.4733  0.1643 -0.0356
 8348TIP3   OH246534   6.422   2.033   1.967 -0.4666 -0.2362  0.1714
 8348TIP3    H146535   6.432   1.965   2.034 -0.1134  0.0244  0.3859
 8348TIP3    H246536   6.364   2.097   2.008 -0.8773 -0.4526 -0.0675
 8349TIP3   OH246537   6.427   2.110   5.738 -0.6268 -0.3032  0.5227
 8349TIP3    H146538   6.505   2.095   5.790 -1.6528 -1.2491  1.8798
 8349TIP3    H246539   6.406   2.203   5.751  0.0759 -0.1284  0.4064
 8350TIP3   OH246540   2.360   6.618  13.000  0.5156 -0.1733 -0.4627
 8350TIP3    H146541   2.455   6.619  13.016  0.6347 -1.9773 -0.7927
 8350TIP3    H246542   2.351   6.575  12.915 -0.5443  1.5803 -1.2844
 8351TIP3   OH246543   5.609   1.848  15.676  0.0651 -0.1122 -0.3168
 8351TIP3    H146544   5.699   1.843  15.709 -0.4275 -1.0859  0.9659
 8351TIP3    H246545   5.559   1.881  15.750 -0.8274 -0.7604 -0.6208
 8352TIP3   OH246546   0.646   3.361   0.523  0.0883  0.2118  0.1907
 8352TIP3    H146547   0.563   3.341   0.566  0.1330  1.1970  0.7621
 8352TIP3    H246548   0.637   3.452   0.496  0.4187 -0.1174 -1.0910
 8353TIP3   OH246549   2.626   6.635   0.515 -0.1188  0.7517  0.0796
 8353TIP3    H146550   2.637   6.551   0.469  0.3711  0.5797  0.4913
 8353TIP3    H246551   2.614   6.610   0.607  0.2423  1.1352  0.2369
 8354TIP3   OH246552   4.816   0.341  13.897  0.0118 -0.1905  0.4402
 8354TIP3    H146553   4.777   0.424  13.924 -0.2970 -0.2869  0.2966
 8354TIP3    H246554   4.910   0.354  13.909  0.0981  0.7056 -1.0046
 8355TIP3   OH246555   1.345   6.691   1.387 -0.2275 -0.5275  0.4937
 8355TIP3    H146556   1.363   6.713   1.478 -0.8772  0.5325  0.3856
 8355TIP3    H246557   1.256   6.656   1.388  0.1550 -1.5599  0.4019
 8356TIP3   OH246558   5.403   0.822   1.574 -0.1307  0.3410 -0.0985
 8356TIP3    H146559   5.320   0.774   1.584 -0.1233  0.2786 -0.3235
 8356TIP3    H246560   5.410   0.836   1.480  0.1947  0.2092 -0.0931
 8357TIP3   OH246561   5.553   0.055  12.964  0.1239 -0.7184 -0.2321
 8357TIP3    H146562   5.512   0.119  12.907  1.0514 -0.2295 -0.3672
 8357TIP3    H246563   5.488  -0.015  12.973 -0.8734  0.2116 -0.1178
 8358TIP3   OH246564   3.023   0.138   4.902  0.3813  0.0992 -0.2416
 8358TIP3    H146565   3.025   0.234   4.899 -1.6925  0.2323  0.7621
 8358TIP3    H246566   3.096   0.114   4.959  0.3325  1.1573  0.2904
 8359TIP3   OH246567   3.954   4.502   4.525  0.1047 -0.4024  0.3754
 8359TIP3    H146568   3.979   4.410   4.534  1.3740 -0.2025 -0.8131
 8359TIP3    H246569   3.989   4.544   4.604  1.6261 -0.5370 -0.1950
 8360TIP3   OH246570   6.733   2.644   6.465  0.3244 -0.0282  0.4645
 8360TIP3    H146571   6.682   2.718   6.431  0.8018  0.6726  1.2331
 8360TIP3    H246572   6.812   2.643   6.411 -1.2313 -2.2959 -2.0170
 8361TIP3   OH246573   2.693   0.403  11.661 -0.3625  0.1294  0.3052
 8361TIP3    H146574   2.667   0.370  11.575 -0.3654 -1.2251  0.8039
 8361TIP3    H246575   2.612   0.401  11.712 -0.3253  0.7797  0.4043
 8362TIP3   OH246576   4.712   3.711  16.855  0.3440  0.4057 -0.0482
 8362TIP3    H146577   4.650   3.667  16.913 -0.1555 -0.2004 -1.0115
 8362TIP3    H246578   4.691   3.804  16.861  1.1817  0.5220  1.7553
 8363TIP3   OH246579   6.758   5.669  11.587  0.0453 -0.3415 -0.3957
 8363TIP3    H146580   6.804   5.753  11.591 -1.2803  0.3706  0.9232
 8363TIP3    H246581   6.824   5.607  11.555  2.1355  0.4820  1.9510
 8364TIP3   OH246582   1.682   4.987   4.585 -0.0231  1.0850 -0.2607
 8364TIP3    H146583   1.777   4.987   4.597  0.0680 -2.3765  0.0325
 8364TIP3    H246584   1.670   4.963   4.493 -0.5632  0.3573 -0.0121
 8365TIP3   OH246585   4.338   0.529  14.780  0.0239 -0.3731  0.2366
 8365TIP3    H146586   4.361   0.571  14.697 -2.5805  0.6107 -0.0825
 8365TIP3    H246587   4.417   0.481  14.805  1.5895  0.9919 -1.7303
 8366TIP3   OH246588   6.221   3.127  14.960 -0.6913 -0.5052  0.3643
 8366TIP3    H146589   6.163   3.055  14.987 -2.0035  0.7511  0.9927
 8366TIP3    H246590   6.164   3.187  14.913  0.2533  0.4525  0.4219
 8367TIP3   OH246591   2.531   6.363   2.234  0.2318  0.2125 -0.4787
 8367TIP3    H146592   2.462   6.423   2.204 -0.3935 -0.8419 -1.2109
 8367TIP3    H246593   2.498   6.330   2.318 -1.3751 -2.1210 -1.9241
 8368TIP3   OH246594   5.502   3.134  13.044  0.1424  0.3292  0.1011
 8368TIP3    H146595   5.461   3.214  13.077  0.3666  0.1442  0.8540
 8368TIP3    H246596   5.559   3.105  13.116  1.9272  0.8029 -1.0710
 8369TIP3   OH246597   3.171   5.601  15.912  0.2543 -0.3146 -0.6437
 8369TIP3    H146598   3.121   5.572  15.836 -0.8805  1.6115 -0.6965
 8369TIP3    H246599   3.125   5.564  15.987  0.0607 -0.3723 -0.7912
 8370TIP3   OH246600   3.640   0.798  13.840 -0.8551 -0.0303  0.0436
 8370TIP3    H146601   3.735   0.791  13.835 -0.6962  0.1858  1.9308
 8370TIP3    H246602   3.618   0.769  13.929 -2.5143  0.2672 -0.2266
 8371TIP3   OH246603   5.725   2.595   0.326 -0.5298  0.4368 -0.2384
 8371TIP3    H146604   5.691   2.682   0.304  0.5650  1.2331  1.0297
 8371TIP3    H246605   5.813   2.612   0.360  0.5989 -1.3946 -2.0263
 8372TIP3   OH246606   2.493   6.457  11.893  0.0206 -0.1655  0.5195
 8372TIP3    H146607   2.400   6.437  11.894 -0.3651  1.1948 -1.5508
 8372TIP3    H246608   2.502   6.535  11.948 -0.1216 -0.0538  0.3825
 8373TIP3   OH246609   1.782   5.469   2.914 -0.3292 -0.5041  0.0909
 8373TIP3    H146610   1.740   5.403   2.970  1.0642 -1.7221 -0.2439
 8373TIP3    H246611   1.717   5.486   2.846 -1.2974 -0.4052  1.0088
 8374TIP3   OH246612   1.291   4.593  11.543 -0.0514  0.2067 -0.3664
 8374TIP3    H146613   1.314   4.538  11.618 -0.1364  0.3479 -0.2391
 8374TIP3    H246614   1.375   4.618  11.505 -0.0066  0.2639 -0.2283
 8375TIP3   OH246615   0.429   0.313   5.790  1.1111 -0.0904 -0.0813
 8375TIP3    H146616   0.494   0.243   5.793 -0.6792 -1.7977  0.5658
 8375TIP3    H246617   0.441   0.361   5.872  2.0522  0.1357 -0.3323
 8376TIP3   OH246618   5.866   5.708   2.516  0.3493 -0.0827  0.3928
 8376TIP3    H146619   5.848   5.715   2.609 -0.5274  2.5972  0.1160
 8376TIP3    H246620   5.780   5.716   2.474  0.6773 -1.6002 -0.6676
 8377TIP3   OH246621   0.750   3.419  13.272 -0.5062 -0.3122  0.0557
 8377TIP3    H146622   0.738   3.377  13.187  0.0486  0.4541 -0.4103
 8377TIP3    H246623   0.825   3.375  13.311 -2.2458 -2.4244  1.2916
 8378TIP3   OH246624   1.990   4.558  16.811 -0.6540  0.3119  0.3852
 8378TIP3    H146625   2.051   4.631  16.825 -0.4971  0.2563  0.0119
 8378TIP3    H246626   1.909   4.600  16.782 -0.3857  0.3103 -0.3987
 8379TIP3   OH246627   0.093   0.835  16.034 -0.0912 -0.2983  0.5162
 8379TIP3    H146628   0.047   0.917  16.052 -1.6452 -1.0823  0.3215
 8379TIP3    H246629   0.028   0.782  15.988  0.9507 -1.5718  0.4815
 8380TIP3   OH246630   5.306   2.501   3.326  0.1597 -0.5434  0.1277
 8380TIP3    H146631   5.399   2.492   3.303  1.3173  0.7821  3.6986
 8380TIP3    H246632   5.280   2.583   3.284  0.7398 -0.6661 -0.4974
 8381TIP3   OH246633   4.811   3.635   3.846  0.5660  0.2200  0.0564
 8381TIP3    H146634   4.893   3.586   3.850 -0.2498 -1.2958 -1.0747
 8381TIP3    H246635   4.797   3.652   3.753 -0.3354  0.6068  0.2451
 8382TIP3   OH246636   1.719   3.938   3.374  0.0925 -0.2340 -0.3203
 8382TIP3    H146637   1.654   3.868   3.386  0.5447 -0.6191 -0.0563
 8382TIP3    H246638   1.704   3.998   3.446 -0.9468  0.4679 -1.1051
 8383TIP3   OH246639   0.033   3.381  11.637 -0.5619 -0.2808 -0.0133
 8383TIP3    H146640   0.048   3.313  11.571 -1.7154  0.2570 -0.8672
 8383TIP3    H246641   0.012   3.460  11.586  0.1290  0.5601  0.9711
 8384TIP3   OH246642   1.179   4.848   4.923 -0.0779  0.0175  0.0737
 8384TIP3    H146643   1.155   4.772   4.976 -0.5458  0.2973  0.2657
 8384TIP3    H246644   1.205   4.811   4.838  0.7001 -0.4348  0.4963
 8385TIP3   OH246645   5.937   1.509  13.337 -0.1445 -0.2870 -0.3993
 8385TIP3    H146646   5.910   1.441  13.276  1.2766 -1.1499 -0.1219
 8385TIP3    H246647   6.005   1.558  13.290 -0.3246  0.2018 -0.1655
 8386TIP3   OH246648   1.703   2.144   4.090 -0.0951 -0.3998  0.3695
 8386TIP3    H146649   1.696   2.061   4.043 -0.5680  0.4735 -1.1960
 8386TIP3    H246650   1.617   2.156   4.131 -0.2028 -0.4468  0.1613
 8387TIP3   OH246651   3.495   6.204  12.943  0.1385 -0.1814  0.2177
 8387TIP3    H146652   3.563   6.172  13.003 -1.4836 -2.5157  0.9977
 8387TIP3    H246653   3.425   6.235  13.001 -0.1628  0.5284 -0.5199
 8388TIP3   OH246654   2.748   5.752   1.707  0.4115 -0.1900 -0.3849
 8388TIP3    H146655   2.762   5.845   1.694  0.1609 -0.2187 -0.8846
 8388TIP3    H246656   2.679   5.746   1.773 -0.4733 -0.0062 -1.2806
 8389TIP3   OH246657   0.833   5.519   4.467  0.5583 -0.1239  0.7027
 8389TIP3    H146658   0.826   5.587   4.534  1.2504 -0.1144  0.7786
 8389TIP3    H246659   0.814   5.437   4.514 -2.7672  0.1856  0.1015
 8390TIP3   OH246660   2.582   4.467   1.108  0.4279 -0.2703  0.2124
 8390TIP3    H146661   2.505   4.464   1.051  0.5032  0.5989  0.0525
 8390TIP3    H246662   2.605   4.375   1.121 -0.9007 -0.5670  0.6270
 8391TIP3   OH246663   0.973   6.076  13.711 -0.0689  0.1936 -0.3444
 8391TIP3    H146664   0.970   6.141  13.782  0.4065 -0.8489  0.6732
 8391TIP3    H246665   1.063   6.078  13.681  0.5138 -1.3861  1.1017
 8392TIP3   OH246666   0.259   5.635  15.292 -0.1166 -0.4363  0.1672
 8392TIP3    H146667   0.296   5.547  15.285 -0.0309 -0.3153 -1.0914
 8392TIP3    H246668   0.335   5.692  15.301 -0.1664 -0.4736  0.8596
 8393TIP3   OH246669   5.061   0.073   0.282 -0.2471  0.2686  0.1927
 8393TIP3    H146670   5.069   0.010   0.355  1.6912  0.4270  0.1661
 8393TIP3    H246671   4.981   0.047   0.237  1.1042 -3.0651 -0.5803
 8394TIP3   OH246672   2.348   1.672  13.516  0.2934  0.0091  0.1937
 8394TIP3    H146673   2.373   1.579  13.514 -0.5341 -0.2735  1.6532
 8394TIP3    H246674   2.375   1.702  13.603 -3.0662  0.0352  1.3621
 8395TIP3   OH246675   4.780   6.046  10.721 -0.2768 -0.3596 -0.1660
 8395TIP3    H146676   4.780   5.954  10.748 -1.2141  0.0476  1.4036
 8395TIP3    H246677   4.765   6.043  10.626 -0.9826 -1.8156 -0.0513
 8396TIP3   OH246678   3.923   5.919   0.449  0.2823 -0.3461 -0.2858
 8396TIP3    H146679   3.865   5.928   0.525  1.5526  1.1662  0.5599
 8396TIP3    H246680   4.006   5.888   0.487  1.1476  1.1028 -0.9403
 8397TIP3   OH246681   3.252   6.483   5.277  0.4643 -0.3671  0.3497
 8397TIP3    H146682   3.274   6.557   5.334  0.6499 -0.4485  0.3843
 8397TIP3    H246683   3.316   6.487   5.205  0.6354 -0.6380  0.4816
 8398TIP3   OH246684   0.377   1.763   4.816  0.4653  0.1370 -0.4849
 8398TIP3    H146685   0.374   1.795   4.726  0.0806  0.5780 -0.3181
 8398TIP3    H246686   0.305   1.700   4.820 -0.3247  1.0450 -0.1405
 8399TIP3   OH246687   5.707   0.299  13.947  0.7438 -0.4741  0.4419
 8399TIP3    H146688   5.765   0.352  14.001 -0.1823  0.3760  0.6286
 8399TIP3    H246689   5.703   0.214  13.992 -0.6379  0.4549  2.1999
 8400TIP3   OH246690   4.267   1.532  13.443 -0.5072  0.2558  0.3196
 8400TIP3    H146691   4.175   1.558  13.444 -0.6643 -0.2899  0.4403
 8400TIP3    H246692   4.268   1.447  13.487  0.3348  1.1691  2.2303
 8401TIP3   OH246693   0.193   1.477   5.437 -0.0640  0.0420  0.0819
 8401TIP3    H146694   0.166   1.439   5.520  2.0994  0.8106  1.2027
 8401TIP3    H246695   0.111   1.509   5.397 -1.0100  0.9417  2.5592
 8402TIP3   OH246696   1.127   1.541   1.963 -0.6812 -0.7396 -0.4147
 8402TIP3    H146697   1.092   1.455   1.938  1.0446 -0.8598 -2.8187
 8402TIP3    H246698   1.072   1.604   1.916 -0.5801 -0.6587 -0.4243
 8403TIP3   OH246699   0.420   2.121  11.856 -0.0891  0.3918 -0.2211
 8403TIP3    H146700   0.327   2.100  11.864 -0.2837  0.8228 -1.1724
 8403TIP3    H246701   0.421   2.206  11.813  0.7637 -0.0078 -1.0121
 8404TIP3   OH246702   2.267   1.800   5.622 -0.1754 -0.0520 -0.3249
 8404TIP3    H146703   2.311   1.739   5.681 -2.4312 -1.4541  0.0123
 8404TIP3    H246704   2.223   1.862   5.680  0.0672  0.4204 -0.6342
 8405TIP3   OH246705   2.201   4.066  15.657 -0.4515  0.5444 -0.0427
 8405TIP3    H146706   2.237   4.154  15.654 -0.1048  0.5012  1.7661
 8405TIP3    H246707   2.150   4.058  15.577  0.4014  1.9880 -0.7632
 8406TIP3   OH246708   1.366   0.136   4.045  0.2916 -0.3659  0.1279
 8406TIP3    H146709   1.373   0.226   4.013 -3.4869  0.4271  1.0117
 8406TIP3    H246710   1.436   0.128   4.110  1.0608  1.7271 -0.3617
 8407TIP3   OH246711   0.802   6.250  12.901  0.4303 -0.1884  0.1654
 8407TIP3    H146712   0.786   6.163  12.864  0.4012  0.7500 -2.1938
 8407TIP3    H246713   0.858   6.234  12.977  1.5870 -2.1782 -1.0202
 8408TIP3   OH246714   6.157   0.629  15.055  0.0420 -0.3828  0.5028
 8408TIP3    H146715   6.117   0.630  15.141 -0.7913 -0.5308  0.1254
 8408TIP3    H246716   6.195   0.542  15.046 -1.4837 -1.0178  0.0016
 8409TIP3   OH246717   3.936   5.991  12.556  0.4898 -0.4843 -0.5693
 8409TIP3    H146718   3.871   5.975  12.487 -1.1506  1.9805  0.2590
 8409TIP3    H246719   3.914   5.928  12.624  0.4973 -1.2551 -1.2711
 8410TIP3   OH246720   5.868   3.119   5.363  0.0430  0.0835  0.4137
 8410TIP3    H146721   5.955   3.116   5.402  0.7834  0.1149 -1.1827
 8410TIP3    H246722   5.821   3.046   5.403  1.4518 -1.2007 -0.1727
 8411TIP3   OH246723   0.532   1.971   3.622 -1.0194 -0.5567 -0.4070
 8411TIP3    H146724   0.520   1.930   3.708  1.8855  0.1988  0.4965
 8411TIP3    H246725   0.627   1.982   3.614 -1.3330  1.3192 -2.8087
 8412TIP3   OH246726   4.143   1.120   2.057  0.4844 -0.4031 -0.1768
 8412TIP3    H146727   4.082   1.193   2.070 -0.1072 -0.9860  0.4266
 8412TIP3    H246728   4.167   1.094   2.146  1.8090 -0.0384 -0.4065
 8413TIP3   OH246729   5.536   5.993  12.348 -0.1259  0.2996  0.5667
 8413TIP3    H146730   5.609   6.053  12.365  0.1989 -0.0228  0.3346
 8413TIP3    H246731   5.513   6.008  12.256 -0.7167  0.7901  0.7909
 8414TIP3   OH246732   5.132   5.569   0.705 -0.8383  0.4383 -0.1595
 8414TIP3    H146733   5.157   5.531   0.789 -1.4520 -0.5235 -0.3994
 8414TIP3    H246734   5.104   5.494   0.652  1.5588  0.7304 -1.9836
 8415TIP3   OH246735   6.214   5.582   3.759 -0.1585  0.2086  0.3191
 8415TIP3    H146736   6.309   5.570   3.749 -0.1916  1.1931 -1.9354
 8415TIP3    H246737   6.197   5.568   3.852  1.9507 -1.5406  0.5159
 8416TIP3   OH246738   6.331   4.712  15.574 -0.3872  0.1520  0.3355
 8416TIP3    H146739   6.327   4.800  15.611  0.0343  0.4088 -0.2143
 8416TIP3    H246740   6.248   4.672  15.599  0.3492 -0.1004  2.5598
 8417TIP3   OH246741   1.148   1.466   2.915  0.3187  0.0865 -0.1982
 8417TIP3    H146742   1.065   1.426   2.889  1.5719 -1.2465 -2.5660
 8417TIP3    H246743   1.128   1.559   2.925 -1.5015 -0.2411 -0.4536
 8418TIP3   OH246744   3.533   4.136   2.239 -0.1976  0.0528  0.0467
 8418TIP3    H146745   3.535   4.049   2.199  1.0961 -0.6031  1.4274
 8418TIP3    H246746   3.440   4.158   2.243 -0.6195 -1.6364  0.3762
 8419TIP3   OH246747   5.617   6.601  15.239  0.6561 -0.1407  0.0189
 8419TIP3    H146748   5.567   6.521  15.258  1.7532 -0.6612  0.8504
 8419TIP3    H246749   5.705   6.583  15.273  1.2846  0.9409 -0.9308
 8420TIP3   OH246750   3.856   1.307  15.666 -0.3118  0.4811 -0.3437
 8420TIP3    H146751   3.885   1.372  15.730 -1.5121  1.5005 -0.7695
 8420TIP3    H246752   3.902   1.331  15.585 -0.0143  0.1926 -0.2600
 8421TIP3   OH246753   3.550   1.641   6.340 -0.0917  0.0207  0.6871
 8421TIP3    H146754   3.523   1.563   6.292  1.6487 -0.6494  0.7245
 8421TIP3    H246755   3.526   1.714   6.283 -2.7103 -0.4053  1.1070
 8422TIP3   OH246756   5.323   2.836   1.585  0.0221  0.5929 -0.3563
 8422TIP3    H146757   5.312   2.769   1.653  1.6568  0.2598 -0.3737
 8422TIP3    H246758   5.237   2.843   1.544 -0.0117 -2.2435 -1.0053
 8423TIP3   OH246759   6.755   0.503   0.086 -0.4303 -0.3591 -0.0225
 8423TIP3    H146760   6.755   0.495  -0.009 -1.6756  0.6885 -0.1453
 8423TIP3    H246761   6.835   0.458   0.114 -0.8783 -2.1440 -1.4110
 8424TIP3   OH246762   4.464   2.174  12.560  0.2841  0.1363  0.3572
 8424TIP3    H146763   4.518   2.236  12.608 -1.8489  1.1945  1.5408
 8424TIP3    H246764   4.383   2.221  12.542  0.0088 -1.0955 -2.0818
 8425TIP3   OH246765   5.714   6.634  16.511  0.3899  0.5231 -0.9451
 8425TIP3    H146766   5.629   6.676  16.506 -1.0226 -1.9995  0.0867
 8425TIP3    H246767   5.733   6.606  16.422  0.4042  1.5027 -1.2635
 8426TIP3   OH246768   4.397   6.643  14.163  0.2925 -0.0081  0.3799
 8426TIP3    H146769   4.480   6.601  14.140  0.5413  1.2650 -1.1448
 8426TIP3    H246770   4.330   6.582  14.131  0.6460  0.7265 -1.9397
 8427TIP3   OH246771   2.868   4.840  13.310 -0.4657 -0.1823  0.5931
 8427TIP3    H146772   2.788   4.813  13.354 -0.0434  0.0843  1.5586
 8427TIP3    H246773   2.838   4.889  13.234 -1.2559  1.1032  1.6745
 8428TIP3   OH246774   1.181   3.602  15.521 -0.3294 -0.7267  0.3508
 8428TIP3    H146775   1.234   3.575  15.596 -0.2844 -1.5867  0.0193
 8428TIP3    H246776   1.215   3.550  15.448  0.4969  1.0129 -0.5726
 8429TIP3   OH246777   2.801   5.254   5.264  0.1327  0.4257 -0.0264
 8429TIP3    H146778   2.758   5.268   5.349  0.6401  1.4174  0.0860
 8429TIP3    H246779   2.871   5.319   5.262 -0.3096  0.8915 -1.5166
 8430TIP3   OH246780   4.542   6.033  14.625 -0.6348 -0.2590 -0.5001
 8430TIP3    H146781   4.634   6.028  14.600 -0.6630  2.7771 -1.6977
 8430TIP3    H246782   4.542   6.077  14.710 -0.9280 -3.4157  1.2677
 8431TIP3   OH246783   0.154   6.075  13.453  0.8474 -0.3406  0.0393
 8431TIP3    H146784   0.178   6.003  13.511 -0.5804 -1.4605 -0.6958
 8431TIP3    H246785   0.231   6.089  13.398  1.4548 -0.6766  0.7861
 8432TIP3   OH246786   5.920   3.125   4.669 -0.1493  0.2500 -0.3029
 8432TIP3    H146787   5.980   3.132   4.743 -1.8095 -1.0473  1.2600
 8432TIP3    H246788   5.845   3.179   4.693 -0.7430 -0.2251 -1.0229
 8433TIP3   OH246789   4.868   4.337  16.787 -0.4667  1.4180 -0.0702
 8433TIP3    H146790   4.806   4.309  16.854  0.4554  0.9901  0.6360
 8433TIP3    H246791   4.817   4.339  16.706 -1.1062 -0.1628  0.2540
 8434TIP3   OH246792   2.921   5.914  11.886 -0.1299  0.0961 -0.0956
 8434TIP3    H146793   2.910   5.984  11.822  0.0780 -1.2527 -1.6893
 8434TIP3    H246794   2.908   5.834  11.835 -1.7655 -1.0212  1.9342
 8435TIP3   OH246795   5.161   3.910  15.493 -0.6960  0.0767  0.0997
 8435TIP3    H146796   5.094   3.888  15.558 -1.4481  0.3683 -0.5494
 8435TIP3    H246797   5.111   3.926  15.413  0.2057 -0.2139 -0.5357
 8436TIP3   OH246798   6.146   2.259   2.477  0.0462 -0.0418  0.1874
 8436TIP3    H146799   6.077   2.263   2.543  0.3437  0.5560  0.4752
 8436TIP3    H246800   6.122   2.185   2.421  0.6154 -1.5615  1.8601
 8437TIP3   OH246801   3.694   6.815   3.048  0.2986  0.1830  0.0978
 8437TIP3    H146802   3.625   6.749   3.045  0.4435  0.0225  0.2108
 8437TIP3    H246803   3.650   6.898   3.032  0.3433 -0.1056 -1.6667
 8438TIP3   OH246804   0.678   2.013  11.431  0.5101  0.0396  0.1781
 8438TIP3    H146805   0.604   1.974  11.384  0.4451  1.7523 -1.2583
 8438TIP3    H246806   0.719   1.940  11.476 -1.0937 -1.2220 -0.3098
 8439TIP3   OH246807   2.582   1.843  14.551  0.1096 -0.0837 -0.7400
 8439TIP3    H146808   2.525   1.822  14.477 -1.1687  2.2321 -0.5320
 8439TIP3    H246809   2.534   1.912  14.599  1.2612 -0.9182  1.7912
 8440TIP3   OH246810   0.260   1.720   2.427  0.0641 -0.2335 -0.0708
 8440TIP3    H146811   0.316   1.742   2.501 -1.0174  0.5687  0.5296
 8440TIP3    H246812   0.314   1.663   2.372  1.7962  1.2158  0.0406
 8441TIP3   OH246813   6.649   5.442  12.714 -0.3728 -0.1605 -0.3471
 8441TIP3    H146814   6.657   5.439  12.619  0.5145 -0.3594 -0.2690
 8441TIP3    H246815   6.738   5.458  12.746 -0.4935 -1.0666  0.4906
 8442TIP3   OH246816   2.427   4.565   4.123 -0.0932  0.2628 -0.9452
 8442TIP3    H146817   2.432   4.479   4.082 -1.7585  0.6302 -2.0512
 8442TIP3    H246818   2.446   4.626   4.052  3.5469  0.8563  0.3319
 8443TIP3   OH246819   2.349   2.828   1.480 -0.3614 -0.3304  0.1190
 8443TIP3    H146820   2.322   2.767   1.548 -1.9459  1.7557  1.4739
 8443TIP3    H246821   2.444   2.836   1.491 -0.2498 -1.8231  0.4631
 8444TIP3   OH246822   4.106   4.096  14.993  0.1059 -0.4638  0.1556
 8444TIP3    H146823   4.036   4.116  15.055  1.4737 -1.9328  2.3086
 8444TIP3    H246824   4.176   4.157  15.016  0.9111 -1.5396  0.6040
 8445TIP3   OH246825   0.188   5.790   2.090  0.0251 -0.3493 -0.4612
 8445TIP3    H146826   0.130   5.759   2.021 -1.0437 -2.6916  1.3415
 8445TIP3    H246827   0.166   5.883   2.101 -2.2798 -0.7893 -0.9157
 8446TIP3   OH246828   1.370   0.831  11.440  0.5587 -0.1862 -0.2926
 8446TIP3    H146829   1.419   0.822  11.359 -0.5576 -5.5900 -0.7416
 8446TIP3    H246830   1.278   0.828  11.414  0.1489 -0.2141  1.0630
 8447TIP3   OH246831   4.251   5.883   1.157 -0.1101 -0.1157 -0.0654
 8447TIP3    H146832   4.198   5.812   1.120 -0.0006 -0.9717  1.3633
 8447TIP3    H246833   4.232   5.958   1.100 -1.0177 -1.0121 -1.0029
 8448TIP3   OH246834   4.587   3.594   3.000 -0.0619 -0.2810 -0.0074
 8448TIP3    H146835   4.545   3.607   2.915  0.7430 -2.1583 -0.7454
 8448TIP3    H246836   4.516   3.604   3.064 -1.4346 -2.1584 -1.1350
 8449TIP3   OH246837   4.947   5.295   3.694  0.2081 -0.1678 -0.0193
 8449TIP3    H146838   5.013   5.231   3.721 -1.2075 -1.6238  0.1456
 8449TIP3    H246839   4.932   5.276   3.602 -2.1390 -1.9939  0.6265
 8450TIP3   OH246840   1.742   3.883  13.374  0.1071 -0.2998 -0.2333
 8450TIP3    H146841   1.693   3.964  13.381 -0.2918 -0.5975  5.0891
 8450TIP3    H246842   1.675   3.815  13.362  0.3792 -0.1150 -3.8370
 8451TIP3   OH246843   0.243   1.365   2.254 -0.1788  0.5301  0.1847
 8451TIP3    H146844   0.174   1.300   2.268  0.6078 -0.4968 -0.5966
 8451TIP3    H246845   0.323   1.321   2.285  0.2226  1.4963  0.5522
 8452TIP3   OH246846   2.321   1.805   2.869  0.4070 -0.1581 -0.2069
 8452TIP3    H146847   2.283   1.779   2.785  0.5783  0.4543 -0.4791
 8452TIP3    H246848   2.256   1.777   2.934  0.6678 -1.4235 -0.4656
 8453TIP3   OH246849   4.987   2.816  14.277  0.2363 -0.5379  0.5068
 8453TIP3    H146850   5.050   2.826  14.205 -0.2794 -2.2739 -0.2230
 8453TIP3    H246851   4.907   2.786  14.235 -0.1459 -1.3752  1.7842
 8454TIP3   OH246852   1.640   3.380   1.247 -0.3452 -0.6027 -0.5416
 8454TIP3    H146853   1.595   3.388   1.331  2.1186 -1.9572  1.0320
 8454TIP3    H246854   1.715   3.440   1.255  1.4409 -2.6982 -0.5834
 8455TIP3   OH246855   4.844   6.190  11.457 -0.0396  0.2488  0.0285
 8455TIP3    H146856   4.843   6.128  11.530 -1.2261  0.3601  0.1328
 8455TIP3    H246857   4.752   6.195  11.429  0.0111  1.9587  0.0427
 8456TIP3   OH246858   0.174   6.149  10.426 -0.3065  0.1935 -0.0110
 8456TIP3    H146859   0.221   6.094  10.364  0.3273 -0.5012  1.0534
 8456TIP3    H246860   0.087   6.160  10.387  0.4042  0.6841 -1.5278
 8457TIP3   OH246861   3.738   3.589  14.781 -0.3512 -0.1357  0.3720
 8457TIP3    H146862   3.690   3.548  14.853 -1.6395  1.2089  0.3336
 8457TIP3    H246863   3.811   3.634  14.824 -0.1904 -0.6453  0.6435
 8458TIP3   OH246864   5.282   5.440   0.918  0.0531  0.5449 -0.2194
 8458TIP3    H146865   5.286   5.349   0.948 -0.0572  0.5715 -0.1240
 8458TIP3    H246866   5.314   5.491   0.992 -0.4475  0.6278 -0.0574
 8459TIP3   OH246867   4.693   6.413  15.557  0.0226  0.2797 -0.2566
 8459TIP3    H146868   4.716   6.505  15.546  1.9740 -0.2608 -1.0676
 8459TIP3    H246869   4.735   6.369  15.483 -1.8304 -1.1366 -0.5454
 8460TIP3   OH246870   1.894   2.796   2.574 -0.1528 -0.2063 -0.0648
 8460TIP3    H146871   1.821   2.832   2.524 -0.1817  1.1978  0.9231
 8460TIP3    H246872   1.880   2.827   2.663  1.6208  0.0785  0.1567
 8461TIP3   OH246873   0.343   6.002   5.220 -0.4299 -1.0105  0.3385
 8461TIP3    H146874   0.307   6.065   5.157 -2.0506 -1.6998  0.5162
 8461TIP3    H246875   0.426   6.040   5.248 -1.1675  0.8653  0.1329
 8462TIP3   OH246876   1.229   2.628  16.324  0.0961  0.3059 -0.0768
 8462TIP3    H146877   1.234   2.639  16.229 -0.2269 -0.9830 -0.2540
 8462TIP3    H246878   1.155   2.683  16.349 -0.8277 -0.5590 -0.8015
 8463TIP3   OH246879   6.089   5.304   4.417 -0.3022 -0.3943  0.2834
 8463TIP3    H146880   6.006   5.260   4.400 -1.1923  0.9186  1.0869
 8463TIP3    H246881   6.083   5.334   4.508 -0.7282  3.2712 -0.7829
 8464TIP3   OH246882   2.719   3.577   5.432 -0.5446 -0.4709  0.1414
 8464TIP3    H146883   2.716   3.496   5.483 -2.9462  0.1813  1.1320
 8464TIP3    H246884   2.686   3.552   5.345 -0.4270 -0.7143  0.1649
 8465TIP3   OH246885   1.473   1.652   6.134  0.2055 -0.4476  0.5554
 8465TIP3    H146886   1.512   1.719   6.079 -1.0430 -1.4529 -1.7004
 8465TIP3    H246887   1.509   1.668   6.221  2.6284  0.9441 -0.6072
 8466TIP3   OH246888   0.264   0.266   6.540  0.6049  0.2283 -0.3164
 8466TIP3    H146889   0.229   0.192   6.590  2.3356  0.7344  1.8070
 8466TIP3    H246890   0.356   0.244   6.524  1.0285  1.6660 -0.0598
 8467TIP3   OH246891   0.670   5.895   6.013 -0.6462 -0.7099 -0.1811
 8467TIP3    H146892   0.765   5.905   6.020 -0.6427 -0.4652 -0.5512
 8467TIP3    H246893   0.647   5.833   6.082 -0.3379 -0.0216  0.5670
 8468TIP3   OH246894   2.482   2.395   2.191 -0.0398  0.4537  0.3407
 8468TIP3    H146895   2.491   2.486   2.163  0.5823  0.5835  0.9403
 8468TIP3    H246896   2.406   2.363   2.143  0.1388  1.0906 -0.3925
 8469TIP3   OH246897   3.928   2.443  12.362 -0.2989 -0.1597 -0.4805
 8469TIP3    H146898   3.913   2.458  12.455  0.6904  1.9797 -0.6164
 8469TIP3    H246899   3.844   2.465  12.320 -0.7945 -1.2744 -0.1345
 8470TIP3   OH246900   5.788   5.566  17.249 -0.6962  0.0571 -0.6092
 8470TIP3    H146901   5.714   5.505  17.251  0.0045 -0.8796 -1.7206
 8470TIP3    H246902   5.845   5.532  17.180  0.6264  0.9288  0.0102
 8471TIP3   OH246903   2.244   6.567  15.111 -0.2483 -0.3509 -0.5690
 8471TIP3    H146904   2.332   6.576  15.072  1.2605  1.9434  2.8618
 8471TIP3    H246905   2.201   6.650  15.089 -1.3441 -1.1637 -1.5929
 8472TIP3   OH246906   4.384   3.652   3.264  0.0619 -0.6335 -0.6182
 8472TIP3    H146907   4.338   3.711   3.323 -0.2900  0.8885 -2.3439
 8472TIP3    H246908   4.339   3.568   3.274 -1.3814  0.1453 -0.3236
 8473TIP3   OH246909   4.795   0.585   4.669 -0.1806 -0.2965  1.1015
 8473TIP3    H146910   4.763   0.648   4.604 -2.0555 -0.9409  1.3131
 8473TIP3    H246911   4.838   0.517   4.617 -2.0211 -1.0176  0.4182
 8474TIP3   OH246912   4.482   5.443   5.633  0.3907 -0.4150 -0.1583
 8474TIP3    H146913   4.515   5.516   5.686  0.2933  0.2335 -0.9598
 8474TIP3    H246914   4.558   5.387   5.620  0.9564  0.5296 -1.1146
 8475TIP3   OH246915   5.624   5.223  10.807  0.4426 -0.0522 -0.1502
 8475TIP3    H146916   5.665   5.154  10.755 -0.4183 -2.9114  2.6218
 8475TIP3    H246917   5.532   5.220  10.784  0.4433  0.4559 -0.2461
 8476TIP3   OH246918   6.021   0.412   4.764 -0.1474  0.0420 -0.0658
 8476TIP3    H146919   6.024   0.339   4.825  0.3430 -0.7944 -1.0714
 8476TIP3    H246920   6.071   0.481   4.806  0.2530 -0.5540  0.4433
 8477TIP3   OH246921   4.862   1.384  13.323  0.2930  0.5377 -0.5525
 8477TIP3    H146922   4.771   1.398  13.297 -0.3063 -1.5002  0.1928
 8477TIP3    H246923   4.858   1.369  13.418  1.4148  0.5327 -0.4913
 8478TIP3   OH246924   3.123   1.213  11.872  0.1040  0.0275  0.5165
 8478TIP3    H146925   3.042   1.165  11.888  0.9653 -0.7530  2.9489
 8478TIP3    H246926   3.108   1.260  11.790 -1.5513 -2.7329 -0.8808
 8479TIP3   OH246927   4.197   2.333   1.030 -0.2230  0.2074 -0.0643
 8479TIP3    H146928   4.123   2.282   1.064  0.2860  0.2494  1.1680
 8479TIP3    H246929   4.174   2.424   1.048  0.4060  0.1829  0.9460
 8480TIP3   OH246930   5.817   6.618   4.784  0.0434 -0.2180 -0.5035
 8480TIP3    H146931   5.759   6.599   4.710  0.2886 -0.1354 -0.7184
 8480TIP3    H246932   5.870   6.539   4.794  0.6633  0.1263 -1.0246
 8481TIP3   OH246933   3.073   1.254   1.411 -0.3415  0.4935 -0.4757
 8481TIP3    H146934   3.058   1.229   1.319 -1.0837  0.3744 -0.3296
 8481TIP3    H246935   3.162   1.291   1.412 -0.9819  2.2077 -1.6140
 8482TIP3   OH246936   0.709   5.896   3.466  0.4909  0.3540  0.1621
 8482TIP3    H146937   0.677   5.813   3.431 -0.0626 -0.5489  2.6318
 8482TIP3    H246938   0.666   5.905   3.551  1.8382  2.3399  0.7077
 8483TIP3   OH246939   4.218   0.497   2.374 -0.0096  0.0277 -0.2098
 8483TIP3    H146940   4.140   0.552   2.370 -0.3663 -0.3387  1.1098
 8483TIP3    H246941   4.189   0.412   2.341  0.5926  0.6272 -2.4409
 8484TIP3   OH246942   2.668   4.671   1.557  0.0533  0.0114 -0.1774
 8484TIP3    H146943   2.681   4.614   1.481  0.4668  1.4052 -1.1743
 8484TIP3    H246944   2.719   4.750   1.538  1.0838 -0.0166  2.0345
 8485TIP3   OH246945   1.825   2.154  15.351  0.1648 -0.6373 -0.0824
 8485TIP3    H146946   1.772   2.096  15.406 -0.9392  1.1306  0.7897
 8485TIP3    H246947   1.906   2.167  15.400  0.3664 -1.3096 -0.2240
 8486TIP3   OH246948   1.965   5.758  16.182 -0.0576  0.1139  0.2526
 8486TIP3    H146949   1.916   5.682  16.212 -0.7560  0.1915 -0.6477
 8486TIP3    H246950   1.987   5.738  16.091  0.3799  0.6800  0.2296
 8487TIP3   OH246951   0.043   6.128  13.875 -0.4574 -0.4829  0.3193
 8487TIP3    H146952   0.011   6.039  13.862  1.4076 -1.2149  0.4970
 8487TIP3    H246953   0.026   6.147  13.967  0.2333 -1.1248  0.5852
 8488TIP3   OH246954   1.545   2.909   0.806  0.7401 -0.4126  0.0910
 8488TIP3    H146955   1.600   2.865   0.742  1.2118 -0.9247  0.8260
 8488TIP3    H246956   1.581   2.997   0.813  0.7974 -0.4132 -0.2137
 8489TIP3   OH246957   4.897   3.050  12.259  0.1049 -0.1538  0.0699
 8489TIP3    H146958   4.974   3.081  12.306  0.7284  1.2285 -1.7519
 8489TIP3    H246959   4.895   2.955  12.276  0.6183  0.1849  2.3101
 8490TIP3   OH246960   3.809   5.102  13.624  0.1344 -1.0137  0.3952
 8490TIP3    H146961   3.878   5.167  13.608 -1.3540  0.6253  0.3042
 8490TIP3    H246962   3.786   5.070  13.538 -0.0443 -0.6529  0.3059
 8491TIP3   OH246963   0.414   0.986  13.299 -0.4894 -0.7986  0.0478
 8491TIP3    H146964   0.463   0.926  13.355  2.0652 -0.4371 -1.6053
 8491TIP3    H246965   0.389   0.933  13.223  2.7152  0.2164 -1.9435
 8492TIP3   OH246966   4.672   6.105  15.131 -0.2520 -0.0202 -0.0530
 8492TIP3    H146967   4.679   6.024  15.080  0.7278 -0.0715  0.1382
 8492TIP3    H246968   4.763   6.132  15.144 -0.5698  1.3209 -0.4458
 8493TIP3   OH246969   0.900   1.476  16.435  0.1535  0.0316 -0.1365
 8493TIP3    H146970   0.901   1.383  16.457  1.3764 -0.8732 -3.4361
 8493TIP3    H246971   0.825   1.486  16.377  1.0267  0.7206 -1.1669
 8494TIP3   OH246972   3.332   2.762  14.871  0.1053  0.9005 -0.3869
 8494TIP3    H146973   3.307   2.792  14.959  1.4346 -1.0623  0.7554
 8494TIP3    H246974   3.257   2.712  14.840  0.9222 -1.5543  1.2975
 8495TIP3   OH246975   3.486   2.125  17.072  0.4103  0.4977  0.2439
 8495TIP3    H146976   3.568   2.148  17.029 -0.0504 -0.0355 -0.9453
 8495TIP3    H246977   3.459   2.205  17.117  1.2402  0.8695  0.0863
 8496TIP3   OH246978   3.926   3.904   4.619  0.1639  0.4568 -0.3415
 8496TIP3    H146979   4.020   3.921   4.629  0.3052 -0.3092 -0.2488
 8496TIP3    H246980   3.916   3.873   4.529  0.3134 -1.2143  0.1676
 8497TIP3   OH246981   1.402   6.063   1.615  0.3982  0.0919 -0.4814
 8497TIP3    H146982   1.334   6.101   1.560 -0.2877  1.3628  1.1551
 8497TIP3    H246983   1.476   6.123   1.608 -0.1554  0.9837  0.9458
 8498TIP3   OH246984   6.324   6.538  13.771  0.2385 -0.0130  0.2867
 8498TIP3    H146985   6.331   6.611  13.833 -0.2105 -0.1021  0.4412
 8498TIP3    H246986   6.232   6.535  13.747  0.3157 -0.3176  0.0232
 8499TIP3   OH246987   0.852   4.145  13.869 -0.0256 -0.2051  0.1044
 8499TIP3    H146988   0.868   4.182  13.955 -0.3440 -2.6550  1.3218
 8499TIP3    H246989   0.775   4.192  13.836 -0.8095 -0.2063  1.8154
 8500TIP3   OH246990   1.564   3.308  11.684  0.1164  0.1586  0.2100
 8500TIP3    H146991   1.511   3.384  11.661 -0.6973 -0.7864 -1.0950
 8500TIP3    H246992   1.551   3.246  11.613  0.9375 -1.1406  1.1448
 8501TIP3   OH246993   4.367   1.595  13.207  0.0916  0.3800 -0.0492
 8501TIP3    H146994   4.347   1.685  13.181  1.0967  0.7454  0.3876
 8501TIP3    H246995   4.325   1.585  13.293  0.5851  0.6806  0.2317
 8502TIP3   OH246996   0.315   2.822  14.718 -0.2007  0.5368 -0.0545
 8502TIP3    H146997   0.346   2.737  14.749  0.5778  1.1684  0.9494
 8502TIP3    H246998   0.393   2.868  14.690 -0.1721  2.0257  2.2154
 8503TIP3   OH246999   5.229   4.018  10.627 -0.2415  0.4162 -0.2821
 8503TIP3    H147000   5.241   4.035  10.720  1.0108  1.0658 -0.5292
 8503TIP3    H247001   5.139   3.989  10.619 -0.4925  0.7428  1.0752
 8504TIP3   OH247002   4.936   6.239  11.751  0.2105  0.1711 -0.2549
 8504TIP3    H147003   4.852   6.263  11.710 -0.6961  0.3815  1.6284
 8504TIP3    H247004   4.999   6.301  11.714 -0.5799  0.4037 -1.2558
 8505TIP3   OH247005   1.281   3.861   1.010 -0.2810 -0.5966  0.4663
 8505TIP3    H147006   1.206   3.908   0.974  0.8198 -0.8921 -2.4271
 8505TIP3    H247007   1.267   3.770   0.984  3.1647 -0.0784 -4.4868
 8506TIP3   OH247008   2.669   5.318   4.609 -0.3005  0.5682  0.3320
 8506TIP3    H147009   2.630   5.277   4.686 -1.5429 -1.2484 -1.1755
 8506TIP3    H247010   2.611   5.295   4.537  1.2292  1.5418 -1.3107
 8507TIP3   OH247011   3.271   1.043   2.616  0.1322 -0.2364  0.0187
 8507TIP3    H147012   3.237   1.027   2.704  0.7029 -2.0695 -0.0408
 8507TIP3    H247013   3.366   1.046   2.627  0.1337  2.3311 -0.1766
 8508TIP3   OH247014   5.309   4.270   1.950  0.3521  0.3280 -0.0130
 8508TIP3    H147015   5.289   4.181   1.979  2.7947  0.2526  1.6458
 8508TIP3    H247016   5.376   4.259   1.883 -0.7330  0.8756 -1.2425
 8509TIP3   OH247017   6.695   4.878   0.015  0.1993  0.2721 -0.1858
 8509TIP3    H147018   6.753   4.933  -0.036  0.5731  0.3259  0.2861
 8509TIP3    H247019   6.706   4.790  -0.022 -1.0131  0.6330 -1.4773
 8510TIP3   OH247020   5.500   2.865   4.072  0.1947  0.2308  0.2390
 8510TIP3    H147021   5.420   2.815   4.089  0.0724  0.5357  0.5629
 8510TIP3    H247022   5.498   2.881   3.977  0.5808 -0.9567  0.0201
 8511TIP3   OH247023   3.480   3.548   4.612  0.3766  0.0739 -0.1997
 8511TIP3    H147024   3.504   3.535   4.520  0.1329  2.1678 -0.6079
 8511TIP3    H247025   3.563   3.553   4.659  0.6200  1.3502 -0.7058
 8512TIP3   OH247026   3.071   6.661  17.230  0.4467 -0.6838  0.5470
 8512TIP3    H147027   3.130   6.593  17.263 -1.8392 -1.8648  2.5039
 8512TIP3    H247028   3.044   6.710  17.307  0.7953  1.5105 -0.6329
 8513TIP3   OH247029   1.095   4.794  16.411  0.1227 -0.2694  0.1447
 8513TIP3    H147030   1.143   4.816  16.491 -0.3485 -2.1205  1.0003
 8513TIP3    H247031   1.145   4.721  16.374 -1.3466 -1.4491  0.4188
 8514TIP3   OH247032   0.797   2.580   4.608 -0.0127  0.3940  0.4911
 8514TIP3    H147033   0.821   2.654   4.664 -0.7960  0.4538  0.7667
 8514TIP3    H247034   0.761   2.622   4.529  1.9306  0.3288 -0.4891
 8515TIP3   OH247035   3.640   5.666   2.951 -0.3477 -0.3577 -0.1156
 8515TIP3    H147036   3.567   5.724   2.931 -0.4976 -1.0924 -1.8916
 8515TIP3    H247037   3.632   5.648   3.044 -2.1168  0.0229 -0.1625
 8516TIP3   OH247038   0.344   1.581  17.032  0.0881  0.8548 -0.4206
 8516TIP3    H147039   0.340   1.531  16.951 -0.8728 -0.1872  0.2415
 8516TIP3    H247040   0.413   1.539  17.083 -0.8989 -0.0227  0.2468
 8517TIP3   OH247041   5.999   4.471  13.989 -0.3106 -0.1587 -0.0436
 8517TIP3    H147042   6.092   4.474  13.966 -0.6436 -0.6466 -1.6145
 8517TIP3    H247043   5.995   4.503  14.079  0.9618  3.5974 -1.1476
 8518TIP3   OH247044   3.658   2.811   0.464 -0.8303  0.1286  0.2432
 8518TIP3    H147045   3.607   2.792   0.386  1.1672 -2.8691 -0.5461
 8518TIP3    H247046   3.738   2.760   0.453  0.3892  1.0875  3.3961
 8519TIP3   OH247047   3.101   4.443  15.887 -0.2764  0.1808 -0.2913
 8519TIP3    H147048   3.120   4.437  15.980  1.0726  0.2971 -0.5389
 8519TIP3    H247049   3.046   4.522  15.879 -3.3884 -1.6872  0.7833
 8520TIP3   OH247050   3.895   2.886  15.392 -0.0372 -0.5669 -0.2875
 8520TIP3    H147051   3.965   2.900  15.456  0.2803  0.9748 -0.9245
 8520TIP3    H247052   3.830   2.953  15.414 -0.0840 -0.2519 -1.3380
 8521TIP3   OH247053   0.628   4.027  12.719 -0.4736 -0.6194  0.2900
 8521TIP3    H147054   0.613   4.094  12.652  0.4414  0.9087  1.5457
 8521TIP3    H247055   0.570   4.052  12.791  0.8638 -0.3276  1.3145
 8522TIP3   OH247056   0.826   1.001   1.723  0.1816 -0.1601 -0.0522
 8522TIP3    H147057   0.786   1.005   1.810 -0.0863 -2.0660 -0.0422
 8522TIP3    H247058   0.889   1.074   1.722 -0.6749  0.6363  1.2673
 8523TIP3   OH247059   4.908   6.428   2.382 -0.0762 -0.0534 -0.6881
 8523TIP3    H147060   4.872   6.436   2.470 -1.8134  0.0936 -1.3831
 8523TIP3    H247061   4.988   6.377   2.394 -0.9663 -1.1874  0.8049
 8524TIP3   OH247062   1.820   1.224  13.657 -0.1330 -0.0869 -0.8470
 8524TIP3    H147063   1.883   1.157  13.684  0.0498  0.3374 -0.1910
 8524TIP3    H247064   1.874   1.300  13.635 -0.3868  0.1360 -0.7116
 8525TIP3   OH247065   2.921   5.139  12.065 -0.1315 -0.4992  0.3867
 8525TIP3    H147066   3.001   5.124  12.015  0.1744 -0.3501  0.8248
 8525TIP3    H247067   2.856   5.167  12.000 -0.2595 -2.0999 -0.2088
 8526TIP3   OH247068   1.294   2.819  11.832  0.0953 -0.1774  0.5233
 8526TIP3    H147069   1.362   2.885  11.843 -0.8428  0.8264  0.5594
 8526TIP3    H247070   1.215   2.860  11.869 -1.1094 -0.2681 -1.7455
 8527TIP3   OH247071   6.199   1.202   0.754  0.0550  0.1779 -0.3904
 8527TIP3    H147072   6.273   1.150   0.722  1.4738  1.4128  0.7603
 8527TIP3    H247073   6.230   1.240   0.836 -2.2861 -0.1730  0.7313
 8528TIP3   OH247074   3.483   5.490   3.450  0.0994  0.3261  0.1148
 8528TIP3    H147075   3.543   5.520   3.382 -0.0167 -0.9079 -0.5690
 8528TIP3    H247076   3.398   5.527   3.424  0.0178 -0.2964 -0.5373
 8529TIP3   OH247077   5.764   5.874  16.181  0.1957  0.0673 -0.2297
 8529TIP3    H147078   5.672   5.862  16.157  0.1750  1.1082 -0.7166
 8529TIP3    H247079   5.768   5.847  16.273 -0.9420  1.4373  0.2593
 8530TIP3   OH247080   4.696   5.792  16.531  0.6184  0.1168 -0.2923
 8530TIP3    H147081   4.740   5.837  16.604 -0.6359  2.3313 -0.7973
 8530TIP3    H247082   4.604   5.789  16.558  0.5402 -1.5194 -0.6422
 8531TIP3   OH247083   4.210   6.281  16.287 -0.3550 -0.1166  0.1051
 8531TIP3    H147084   4.136   6.224  16.266  0.0696 -0.9272  0.7248
 8531TIP3    H247085   4.194   6.307  16.378 -0.2634  0.3128 -0.0024
 8532TIP3   OH247086   1.670   0.601  15.022 -0.0272 -0.1585  0.1971
 8532TIP3    H147087   1.663   0.542  15.097 -2.1200 -1.3117 -0.8052
 8532TIP3    H247088   1.593   0.580  14.968  1.3323  0.7015 -2.2219
 8533TIP3   OH247089   6.729   1.073  16.508  0.4053 -0.0110 -0.5318
 8533TIP3    H147090   6.696   0.983  16.510 -0.5069  0.3164  0.1977
 8533TIP3    H247091   6.744   1.094  16.600  0.1439  0.7506 -0.6598
 8534TIP3   OH247092   0.723   5.298  10.948  0.3313 -0.4547  0.5199
 8534TIP3    H147093   0.786   5.367  10.928  0.9517 -0.7920  1.2134
 8534TIP3    H247094   0.638   5.341  10.950  0.6413  0.1674  0.3544
 8535TIP3   OH247095   5.575   0.819   0.747  0.1643  0.2630 -0.7138
 8535TIP3    H147096   5.614   0.823   0.660 -1.0543  1.8354 -1.2425
 8535TIP3    H247097   5.530   0.903   0.758 -1.8737 -0.8590  0.3839
 8536TIP3   OH247098   2.041   0.063  13.976  0.0568  0.0634  0.2223
 8536TIP3    H147099   1.947   0.072  13.960  0.3294 -0.2900 -1.9605
 8536TIP3    H247100   2.080   0.065  13.888  1.9323 -1.4566  0.9602
 8537TIP3   OH247101   4.031   5.873   2.166  0.2683  0.3777 -0.3524
 8537TIP3    H147102   4.051   5.817   2.242  0.5449  1.5792  0.5003
 8537TIP3    H247103   4.086   5.950   2.179  0.1242  0.7182 -1.6635
 8538TIP3   OH247104   6.317   1.976   0.214  0.2309  0.0012  0.1418
 8538TIP3    H147105   6.257   2.014   0.278  1.0305  0.9464  0.3709
 8538TIP3    H247106   6.340   1.890   0.250 -1.7400 -0.8231 -0.4646
 8539TIP3   OH247107   0.069   3.175  11.434  0.0224  0.0863 -0.9206
 8539TIP3    H147108   0.100   3.205  11.349  0.4547  2.2058 -0.0935
 8539TIP3    H247109   0.144   3.131  11.473  0.0562 -0.2313 -1.3423
 8540TIP3   OH247110   1.622   0.377   1.869 -0.6933 -0.4897  0.3658
 8540TIP3    H147111   1.648   0.464   1.900  0.9134  0.4356 -3.0811
 8540TIP3    H247112   1.679   0.317   1.916  1.2162  0.7615 -0.2422
 8541TIP3   OH247113   2.514   6.497  15.418  0.2183 -0.5969 -0.8567
 8541TIP3    H147114   2.514   6.426  15.482  1.7893 -0.4552 -0.6610
 8541TIP3    H247115   2.556   6.459  15.340  0.9548  0.0615 -0.7957
 8542TIP3   OH247116   3.373   5.288  10.606 -0.0291 -0.5156  0.7506
 8542TIP3    H147117   3.436   5.220  10.631  1.1306  0.6193  1.0245
 8542TIP3    H247118   3.312   5.243  10.547  1.1133 -1.6274  0.3651
 8543TIP3   OH247119   4.643   0.005   5.193  0.4428  0.3385  1.0201
 8543TIP3    H147120   4.678  -0.034   5.273  2.8280 -1.1679 -0.6267
 8543TIP3    H247121   4.709  -0.012   5.127 -1.7147  0.9223 -1.4611
 8544TIP3   OH247122   2.185   5.855  13.763 -0.6250 -0.0872 -0.4969
 8544TIP3    H147123   2.217   5.853  13.853 -1.4992  0.7539 -0.1484
 8544TIP3    H247124   2.217   5.938  13.728  0.0449 -0.5877 -1.1018
 8545TIP3   OH247125   1.358   1.196  11.283 -0.4063  0.1545 -0.1099
 8545TIP3    H147126   1.338   1.108  11.252  0.1606  0.1344 -0.4381
 8545TIP3    H247127   1.276   1.228  11.319 -0.2798 -1.0393  1.3308
 8546TIP3   OH247128   5.842   2.110   1.848 -0.1205 -0.3939  0.2003
 8546TIP3    H147129   5.875   2.183   1.795  1.1199 -0.3138  1.0504
 8546TIP3    H247130   5.749   2.131   1.861  0.0031  0.5728 -0.3192
 8547TIP3   OH247131   0.254   4.838   3.611 -0.0659 -0.3094 -0.1815
 8547TIP3    H147132   0.192   4.842   3.538  2.6216 -0.5445 -2.6574
 8547TIP3    H247133   0.267   4.929   3.637  0.5669  0.0145 -1.5336
 8548TIP3   OH247134   2.772   0.519  12.468  0.2425 -0.9113 -0.0637
 8548TIP3    H147135   2.733   0.482  12.389 -0.4379 -1.0535  0.3300
 8548TIP3    H247136   2.803   0.606  12.442  0.7614 -1.2745 -0.6849
 8549TIP3   OH247137   6.131   6.685  17.103 -0.3213 -0.0549  0.3335
 8549TIP3    H147138   6.103   6.623  17.035 -0.1332 -0.4368  0.6020
 8549TIP3    H247139   6.054   6.742  17.115  0.2740  1.2702 -1.5602
 8550TIP3   OH247140   4.476   4.920   5.885  0.2244  0.0396 -0.4697
 8550TIP3    H147141   4.476   5.008   5.922  1.7610  1.2258 -3.0305
 8550TIP3    H247142   4.383   4.898   5.876 -0.2561  2.2342 -1.5226
 8551TIP3   OH247143   2.526   0.212  15.228 -0.0620 -0.3637 -1.4801
 8551TIP3    H147144   2.559   0.289  15.183 -1.6852 -0.9459 -3.8956
 8551TIP3    H247145   2.494   0.244  15.313  1.2088  1.1928 -1.5579
 8552TIP3   OH247146   3.979   1.097   2.308 -0.1941  0.4113 -0.6077
 8552TIP3    H147147   3.938   1.015   2.336  0.7283  0.1051 -0.1074
 8552TIP3    H247148   4.071   1.074   2.293 -0.3918  0.8384 -2.7590
 8553TIP3   OH247149   1.603   1.534  16.031  0.4993 -0.0078  0.3507
 8553TIP3    H147150   1.519   1.552  16.073 -0.4081 -1.1171 -0.9067
 8553TIP3    H247151   1.648   1.618  16.031 -0.6575  0.6353  0.9343
 8554TIP3   OH247152   6.538   5.665  11.969 -0.3000 -0.0653 -0.0298
 8554TIP3    H147153   6.456   5.687  12.013 -0.0349 -1.9313  1.5512
 8554TIP3    H247154   6.606   5.697  12.029  0.0761 -3.1648  1.3923
 8555TIP3   OH247155   1.077   4.092  13.484  0.2120  0.1204 -0.0853
 8555TIP3    H147156   1.080   4.132  13.397 -2.8196 -0.0163 -0.3394
 8555TIP3    H247157   1.168   4.068  13.502  1.1936  1.6611 -2.4717
 8556TIP3   OH247158   3.829   4.328  13.551 -0.0278  1.0403  0.5622
 8556TIP3    H147159   3.797   4.298  13.467  0.3403  0.6387  0.5638
 8556TIP3    H247160   3.751   4.357  13.598 -0.4957 -0.5738  0.8352
 8557TIP3   OH247161   5.446   0.956  10.320 -0.6487 -0.6341 -0.0578
 8557TIP3    H147162   5.388   1.004  10.261  0.2310  0.6024  0.0439
 8557TIP3    H247163   5.489   0.892  10.265 -0.4355 -0.0357 -0.5949
 8558TIP3   OH247164   6.748   6.140   3.166  0.3030  0.3380 -0.0166
 8558TIP3    H147165   6.843   6.140   3.149  0.4857  0.3920  0.9605
 8558TIP3    H247166   6.728   6.048   3.184  0.1388  0.3003 -0.3989
 8559TIP3   OH247167   6.474   0.878   5.780  0.9165  0.0154  0.5085
 8559TIP3    H147168   6.533   0.847   5.711  0.4139  1.7396 -0.7849
 8559TIP3    H247169   6.427   0.800   5.808  1.0307 -0.7403 -1.2478
 8560TIP3   OH247170   0.118   1.945  15.675 -0.1202  0.1263 -0.0127
 8560TIP3    H147171   0.099   2.021  15.620  0.9230  0.6057  0.2618
 8560TIP3    H247172   0.213   1.945  15.683 -0.1050 -1.1918  0.0308
 8561TIP3   OH247173   5.192   2.594   1.526 -0.0113  0.6326  0.6353
 8561TIP3    H147174   5.218   2.545   1.448 -0.3332 -1.4356  1.7401
 8561TIP3    H247175   5.096   2.598   1.520 -0.1922 -1.0209  1.6774
 8562TIP3   OH247176   0.059   3.218  12.788  0.1288  0.3351 -0.1024
 8562TIP3    H147177   0.134   3.204  12.731 -0.2158  0.7403 -0.6655
 8562TIP3    H247178   0.024   3.130  12.804  0.2753  0.2116 -0.4547
 8563TIP3   OH247179   3.338   2.648   1.863 -1.0020 -0.7965  0.0636
 8563TIP3    H147180   3.433   2.647   1.878 -1.2508 -1.1146  1.7667
 8563TIP3    H247181   3.320   2.739   1.837 -0.6626  0.2328  3.0782
 8564TIP3   OH247182   4.068   0.137   3.147 -0.0871 -0.4959 -0.0966
 8564TIP3    H147183   4.141   0.082   3.172 -0.8745 -0.9596  1.3266
 8564TIP3    H247184   4.001   0.119   3.213 -0.6730  1.5463 -0.0656
 8565TIP3   OH247185   4.328   0.107   2.602  0.4789  0.2096 -0.2698
 8565TIP3    H147186   4.255   0.126   2.660 -0.1236 -0.6270 -0.7293
 8565TIP3    H247187   4.362   0.023   2.633 -0.4641 -0.7519 -1.6717
 8566TIP3   OH247188   2.290   5.304   4.402 -0.2211  0.6383 -0.3897
 8566TIP3    H147189   2.278   5.345   4.316  2.0474  0.6008 -0.8033
 8566TIP3    H247190   2.218   5.242   4.410 -0.0554  0.0442 -2.6653
 8567TIP3   OH247191   3.170   4.029  12.399  0.0211 -0.3244 -0.2925
 8567TIP3    H147192   3.230   4.104  12.398 -2.4817  1.9780 -3.9151
 8567TIP3    H247193   3.217   3.960  12.352  1.3433 -0.0815  0.6321
 8568TIP3   OH247194   3.443   3.485  15.010  0.1441  0.1689  0.1068
 8568TIP3    H147195   3.503   3.559  15.024  0.0367  0.1324  0.8373
 8568TIP3    H247196   3.413   3.462  15.098  0.6402 -1.1399 -0.0344
 8569TIP3   OH247197   6.455   3.330  14.746  0.1188  0.2553  0.4984
 8569TIP3    H147198   6.474   3.246  14.786  1.1017 -0.2566 -0.9655
 8569TIP3    H247199   6.540   3.366  14.723 -0.3869  0.3176 -1.4660
 8570TIP3   OH247200   0.386   1.086   1.355  0.5943 -0.4794  0.7853
 8570TIP3    H147201   0.380   0.998   1.392 -1.1342 -0.7588 -0.0749
 8570TIP3    H247202   0.437   1.074   1.275 -2.9911 -1.5923 -1.5835
 8571TIP3   OH247203   0.832   1.410   2.970 -0.7644 -0.0199 -0.6249
 8571TIP3    H147204   0.844   1.494   3.015 -1.2636 -1.0069  1.5109
 8571TIP3    H247205   0.761   1.368   3.018  0.3132 -2.1640 -0.8084
 8572TIP3   OH247206   5.700   1.052   4.216  0.6418 -0.0022 -0.3887
 8572TIP3    H147207   5.628   1.091   4.265 -0.3147 -1.2570 -0.7182
 8572TIP3    H247208   5.672   0.962   4.200  1.6489 -0.1130 -1.7848
 8573TIP3   OH247209   5.486   6.288  10.433 -0.4002 -0.4804  0.1492
 8573TIP3    H147210   5.502   6.203  10.392  1.7656  0.0078 -0.1362
 8573TIP3    H247211   5.393   6.287  10.456 -0.6218 -2.5506 -0.6738
 8574TIP3   OH247212   4.190   5.161  13.182 -0.0244 -0.3793 -0.2972
 8574TIP3    H147213   4.104   5.194  13.157  0.1247  0.8456  0.6943
 8574TIP3    H247214   4.172   5.081  13.230 -0.8105  0.8426  1.5857
 8575TIP3   OH247215   1.062   4.690  14.832 -0.3825  0.0917 -0.3769
 8575TIP3    H147216   1.113   4.741  14.895 -0.1103  0.5544 -0.9601
 8575TIP3    H247217   1.005   4.755  14.790 -1.6995 -0.4704  0.4968
 8576TIP3   OH247218   3.450   1.729   2.714  0.7409 -0.3439 -0.6216
 8576TIP3    H147219   3.411   1.700   2.632 -1.5039 -1.4810  0.7689
 8576TIP3    H247220   3.386   1.708   2.781  3.0007 -0.6093  1.6272
 8577TIP3   OH247221   2.522   3.528  12.341 -0.0823 -0.3847 -0.1017
 8577TIP3    H147222   2.595   3.581  12.372  1.1179 -1.3964 -1.0744
 8577TIP3    H247223   2.541   3.515  12.248 -0.2260 -2.6469  0.1405
 8578TIP3   OH247224   3.022   5.496  17.027 -0.2634  0.1522  0.0034
 8578TIP3    H147225   3.007   5.466  16.938 -1.6653 -1.3188  0.6857
 8578TIP3    H247226   3.092   5.440  17.060  0.8007  1.2121 -0.3883
 8579TIP3   OH247227   0.586   1.689  15.736 -0.0079  0.4481 -0.5612
 8579TIP3    H147228   0.490   1.695  15.741 -0.0429 -0.4420  3.3006
 8579TIP3    H247229   0.617   1.731  15.816  2.6501 -1.5888 -0.3735
 8580TIP3   OH247230   2.544   0.746   2.222  0.0998 -0.0015  0.4438
 8580TIP3    H147231   2.630   0.774   2.253  0.8820 -0.3828 -1.2632
 8580TIP3    H247232   2.514   0.818   2.166 -1.0268  0.4404  1.5868
 8581TIP3   OH247233   2.781   5.608   2.400 -0.2267  0.2698  0.0879
 8581TIP3    H147234   2.771   5.560   2.318  0.2599  0.2869  0.0171
 8581TIP3    H247235   2.779   5.701   2.374 -0.0020  0.2747  0.0853
 8582TIP3   OH247236   3.573   4.249  14.099  0.6106  1.1758 -0.4230
 8582TIP3    H147237   3.571   4.157  14.075 -2.0974  1.2291 -0.6599
 8582TIP3    H247238   3.639   4.254  14.169  0.5924 -0.9728 -0.1860
 8583TIP3   OH247239   3.088   5.762  13.535 -1.2103  0.3973 -0.2183
 8583TIP3    H147240   3.057   5.761  13.625  1.1422  0.7490  0.6644
 8583TIP3    H247241   3.078   5.852  13.506  0.3786  0.8960  0.6398
 8584TIP3   OH247242   6.747   2.487   1.579 -0.2425  0.3190 -0.0957
 8584TIP3    H147243   6.762   2.421   1.646 -0.5118 -0.2687 -0.5977
 8584TIP3    H247244   6.818   2.475   1.516 -1.1150 -0.5309 -0.9704
 8585TIP3   OH247245   6.235   2.481   1.659  0.0407 -0.1775  0.4292
 8585TIP3    H147246   6.239   2.531   1.740  0.6725 -0.0696  0.3343
 8585TIP3    H247247   6.322   2.442   1.650 -0.7866 -2.3935  1.1917
 8586TIP3   OH247248   1.422   4.379   1.304 -0.3796 -0.3039 -0.0006
 8586TIP3    H147249   1.371   4.321   1.247 -0.8693 -0.6034  0.7243
 8586TIP3    H247250   1.510   4.343   1.302 -0.7172 -1.1938  0.5898
 8587TIP3   OH247251   4.309   4.485  16.559  0.1653  0.5538  0.1305
 8587TIP3    H147252   4.345   4.529  16.635  0.0133 -1.2012  1.2762
 8587TIP3    H247253   4.362   4.516  16.485  1.4024  1.0141  1.1888
 8588TIP3   OH247254   2.929   0.320  12.656 -0.4070  0.3145  0.7330
 8588TIP3    H147255   2.868   0.255  12.623 -1.1919  1.4078 -0.0448
 8588TIP3    H247256   2.928   0.389  12.590  1.0555  0.7320  1.1123
 8589TIP3   OH247257   6.040   3.645   5.181  0.2491  0.2213 -0.0206
 8589TIP3    H147258   6.116   3.690   5.142  0.0584 -0.4839 -1.2509
 8589TIP3    H247259   6.054   3.553   5.161 -0.7697  0.0444  0.0360
 8590TIP3   OH247260   0.178   3.756   1.522 -0.9707 -0.4534 -0.4883
 8590TIP3    H147261   0.171   3.730   1.614  2.7382  3.5114  1.2712
 8590TIP3    H247262   0.106   3.817   1.508 -0.4492  0.4029  0.4750
 8591TIP3   OH247263   5.807   1.759   1.830 -0.0320 -0.2366  0.0602
 8591TIP3    H147264   5.772   1.781   1.744 -0.6857  0.9430  0.6084
 8591TIP3    H247265   5.794   1.664   1.837 -1.8915 -0.0506 -0.3029
 8592TIP3   OH247266   5.946   6.503  14.208 -0.2674 -0.4942 -0.7362
 8592TIP3    H147267   5.875   6.567  14.194 -0.7049 -0.4907  1.2613
 8592TIP3    H247268   5.954   6.497  14.303  1.3823 -1.6732 -0.9205
 8593TIP3   OH247269   2.518   6.794  12.334  0.7378 -0.9001  0.6246
 8593TIP3    H147270   2.519   6.775  12.240  1.0242 -2.6474  0.9458
 8593TIP3    H247271   2.589   6.742  12.370  0.7613 -0.0974  1.8061
 8594TIP3   OH247272   5.063   3.346  12.977 -0.1377 -0.2553 -0.2693
 8594TIP3    H147273   4.977   3.306  12.966 -0.3111  0.1199 -0.2747
 8594TIP3    H247274   5.116   3.278  13.019  0.1280 -1.2023 -2.0457
 8595TIP3   OH247275   2.999   4.007   6.680  0.1261  0.2743 -0.0831
 8595TIP3    H147276   2.998   4.099   6.655 -0.0757  0.5534  0.8831
 8595TIP3    H247277   2.916   3.995   6.727 -0.2014 -0.5980 -0.8560
 8596TIP3   OH247278   1.238   2.158  12.129 -0.3172 -0.8096  0.4179
 8596TIP3    H147279   1.208   2.212  12.203 -0.1693  1.5738 -1.1477
 8596TIP3    H247280   1.165   2.161  12.067  0.5047 -0.6712 -0.5590
 8597TIP3   OH247281   0.418   2.534  14.142  0.9245 -0.5694 -0.5617
 8597TIP3    H147282   0.494   2.571  14.187  0.6649 -0.6336 -0.0611
 8597TIP3    H247283   0.405   2.591  14.066  0.7814  0.1357 -0.0213
 8598TIP3   OH247284   1.899   5.213  15.348  0.9041 -0.0672 -0.0696
 8598TIP3    H147285   1.983   5.258  15.352 -0.0855  1.9425 -0.7385
 8598TIP3    H247286   1.891   5.170  15.433  2.4274  0.0117  0.1448
 8599TIP3   OH247287   0.713   3.801   2.088 -0.5420 -0.1330  0.3442
 8599TIP3    H147288   0.668   3.876   2.050 -0.8133  0.3584  1.6148
 8599TIP3    H247289   0.797   3.798   2.041 -0.5662  0.8984  0.2096
 8600TIP3   OH247290   3.258   0.170  14.611  0.3839 -0.2822 -0.2091
 8600TIP3    H147291   3.215   0.154  14.528 -1.6828  0.6885  0.6032
 8600TIP3    H247292   3.329   0.230  14.591 -1.8279  2.2542 -0.9594
 8601TIP3   OH247293   6.643   5.054  15.898  0.4485  0.8038 -0.2409
 8601TIP3    H147294   6.663   5.014  15.814  0.2805 -0.6835  0.3901
 8601TIP3    H247295   6.619   5.144  15.877 -0.6973  0.1634 -1.9044
 8602TIP3   OH247296   2.625   2.448   3.831  0.5522  0.1572 -0.3145
 8602TIP3    H147297   2.626   2.533   3.786 -0.7807  0.1573 -0.3715
 8602TIP3    H247298   2.704   2.404   3.800  1.1114  1.2619 -0.5068
 8603TIP3   OH247299   3.936   4.086  13.759  0.4762 -0.0321  0.0747
 8603TIP3    H147300   3.871   4.145  13.796  0.2117  0.4517 -1.1134
 8603TIP3    H247301   4.019   4.113  13.799  0.7074  2.5317 -1.8960
 8604TIP3   OH247302   3.982   5.544   2.212  0.4371 -0.1493 -0.1942
 8604TIP3    H147303   3.949   5.455   2.204  1.6690 -0.7486  1.0410
 8604TIP3    H247304   3.946   5.590   2.136  0.9560 -2.0605 -1.6794
 8605TIP3   OH247305   3.098   0.265  11.292 -0.0545 -0.1873 -0.6335
 8605TIP3    H147306   3.053   0.315  11.224  1.1568 -0.5518 -1.7305
 8605TIP3    H247307   3.128   0.186  11.247  0.3400 -0.6650  0.4497
 8606TIP3   OH247308   5.114   5.347   5.205 -0.1396  0.0997  0.0041
 8606TIP3    H147309   5.172   5.362   5.131  0.5170 -1.3320  0.1979
 8606TIP3    H247310   5.163   5.376   5.282 -0.5159  0.8443 -0.0220
 8607TIP3   OH247311   1.036   3.780  12.500 -0.0038 -0.0451 -0.2072
 8607TIP3    H147312   0.980   3.854  12.479 -0.2852  0.5829  2.3927
 8607TIP3    H247313   1.124   3.816  12.501  0.7043 -1.0699 -4.4694
 8608TIP3   OH247314   1.347   0.374   1.142  0.0059  0.3422  0.2673
 8608TIP3    H147315   1.333   0.279   1.143  1.3772  0.0771  2.7072
 8608TIP3    H247316   1.271   0.409   1.189  0.0917  0.3318  0.4143
 8609TIP3   OH247317   2.413   1.928  14.876 -0.4439 -0.3791  0.1054
 8609TIP3    H147318   2.348   1.895  14.815 -0.1564  0.9180 -0.9564
 8609TIP3    H247319   2.394   2.022  14.883  1.9139  0.2471 -1.0505
 8610TIP3   OH247320   3.188   4.682   5.774 -0.0296 -0.1077  0.4936
 8610TIP3    H147321   3.218   4.772   5.781 -0.3713  0.0533 -0.0479
 8610TIP3    H247322   3.119   4.674   5.841  0.8356 -0.3322  1.3853
 8611TIP3   OH247323   6.324   5.260   2.910  0.3999 -0.0319 -0.7806
 8611TIP3    H147324   6.397   5.294   2.962  0.6456  0.8483 -1.6772
 8611TIP3    H247325   6.247   5.271   2.966  0.5881  1.3319 -0.7576
 8612TIP3   OH247326   6.533   4.200  15.079 -0.1176  0.2576 -0.4125
 8612TIP3    H147327   6.504   4.285  15.047  0.9028  1.5872  1.9196
 8612TIP3    H247328   6.459   4.142  15.064 -1.7560  2.1178 -0.0004
 8613TIP3   OH247329   3.275   0.532   5.048 -0.0276  0.0848  0.3813
 8613TIP3    H147330   3.322   0.597   4.995 -1.7156  1.0862  0.0435
 8613TIP3    H247331   3.289   0.561   5.138  0.7207 -0.1493  0.3528
 8614TIP3   OH247332   5.503   6.425   3.990 -0.1406 -0.2050  0.8034
 8614TIP3    H147333   5.487   6.508   4.035 -0.7158  0.0744  0.0995
 8614TIP3    H247334   5.438   6.423   3.920 -1.9163 -2.4838  2.4077
 8615TIP3   OH247335   1.162   4.080  14.897  0.4511 -0.0026 -0.2393
 8615TIP3    H147336   1.074   4.046  14.880  0.6556  0.0906 -1.6270
 8615TIP3    H247337   1.209   4.005  14.934 -0.0646 -0.2052  0.0245
 8616TIP3   OH247338   5.111   0.207   1.552 -0.6275  0.1164 -0.0245
 8616TIP3    H147339   5.174   0.164   1.496  1.8290  0.5410  2.2203
 8616TIP3    H247340   5.111   0.298   1.522 -1.5009 -0.2028 -1.0796
 8617TIP3   OH247341   6.488   5.733  14.449 -0.1692 -0.3397 -0.0145
 8617TIP3    H147342   6.515   5.685  14.527 -1.5959 -0.7675  0.2521
 8617TIP3    H247343   6.416   5.681  14.413 -0.7381  0.8091 -0.5810
 8618TIP3   OH247344   3.582   0.399   1.353  0.2333  0.4456 -0.5719
 8618TIP3    H147345   3.611   0.351   1.276 -2.3252 -0.8492 -0.8298
 8618TIP3    H247346   3.545   0.332   1.411  0.0694  1.6637  0.7945
 8619TIP3   OH247347   6.748   1.748   5.572 -0.0368 -0.2690 -0.4737
 8619TIP3    H147348   6.842   1.759   5.581  0.1176 -0.6302 -1.4865
 8619TIP3    H247349   6.711   1.832   5.602  0.6490  0.1441 -0.7609
 8620TIP3   OH247350   5.703   5.850  12.646  0.1830 -0.3418  0.3012
 8620TIP3    H147351   5.781   5.898  12.619 -0.4864 -0.2903 -1.6805
 8620TIP3    H247352   5.715   5.836  12.740  1.9597  0.7687  0.2844
 8621TIP3   OH247353   6.229   3.032   3.801 -0.5649 -0.0039  0.1822
 8621TIP3    H147354   6.247   2.964   3.735 -1.4073  1.4469 -1.6503
 8621TIP3    H247355   6.164   3.089   3.759 -2.9701 -0.2697  3.1860
 8622TIP3   OH247356   2.633   4.380  14.768 -0.0981  0.4073 -0.1397
 8622TIP3    H147357   2.623   4.287  14.749  1.4050  0.2550 -0.3041
 8622TIP3    H247358   2.585   4.393  14.850 -2.4565  0.0429 -1.3755
 8623TIP3   OH247359   5.724   0.538  16.148 -0.2396  0.7195  0.7372
 8623TIP3    H147360   5.754   0.545  16.057 -0.4546 -0.4247  0.5675
 8623TIP3    H247361   5.634   0.572  16.145 -0.8660 -0.9078  0.1564
 8624TIP3   OH247362   2.304   2.587  13.406  0.2205 -0.2052  0.0266
 8624TIP3    H147363   2.287   2.552  13.493  0.6495 -3.8316 -1.2162
 8624TIP3    H247364   2.217   2.610  13.372 -0.0711 -0.0251  0.8607
 8625TIP3   OH247365   4.648   5.858   4.474  0.0151  0.3481  1.1797
 8625TIP3    H147366   4.702   5.884   4.399 -0.3523  0.9145  1.1016
 8625TIP3    H247367   4.579   5.924   4.478 -0.3563 -0.0537  1.6139
 8626TIP3   OH247368   3.482   6.420  11.365 -0.0896 -0.4855 -0.3583
 8626TIP3    H147369   3.568   6.447  11.397 -1.1813  0.4274  2.0056
 8626TIP3    H247370   3.479   6.326  11.381  1.5339 -1.1775 -3.2994
 8627TIP3   OH247371   0.016   2.518   3.820 -0.1078 -0.0693 -0.0183
 8627TIP3    H147372   0.084   2.520   3.888  0.3968 -1.7890 -0.4316
 8627TIP3    H247373  -0.033   2.438   3.838 -3.0368  1.7938  1.1553
 8628TIP3   OH247374   3.661   0.961  16.875  0.4293  0.2954  0.4579
 8628TIP3    H147375   3.674   1.055  16.863  3.6365 -0.1381 -0.3397
 8628TIP3    H247376   3.674   0.923  16.788  5.0688 -1.2528  1.5331
 8629TIP3   OH247377   1.795   6.044  13.452 -0.6181 -0.2621 -0.3746
 8629TIP3    H147378   1.849   5.975  13.491 -0.0442  0.4932  0.1931
 8629TIP3    H247379   1.723   5.997  13.411  1.2423 -1.4133 -2.4945
 8630TIP3   OH247380   4.092   6.726   4.029 -0.2033  0.1458  0.0471
 8630TIP3    H147381   4.084   6.772   4.112 -0.0818  0.5696 -0.1742
 8630TIP3    H247382   4.160   6.660   4.044 -1.2939 -0.8435  0.7511
 8631TIP3   OH247383   0.867   0.980   4.479 -0.4876 -0.1309  0.0618
 8631TIP3    H147384   0.822   0.953   4.399 -1.0324 -0.2745  0.4095
 8631TIP3    H247385   0.802   0.967   4.548  0.3470 -1.0895  0.6803
 8632TIP3   OH247386   2.977   0.573   1.236  0.2088  0.1059  0.4971
 8632TIP3    H147387   2.914   0.502   1.222  1.0150 -0.1989 -2.0615
 8632TIP3    H247388   2.990   0.575   1.331  0.5727 -3.5760  0.6918
 8633TIP3   OH247389   5.168   0.389  15.963 -0.1903  0.4670  0.0921
 8633TIP3    H147390   5.085   0.434  15.981  0.0931  1.3842 -0.7757
 8633TIP3    H247391   5.153   0.299  15.992 -0.0098  1.5439  4.1599
 8634TIP3   OH247392   1.541   1.343  14.364 -0.7314 -0.2786 -0.2715
 8634TIP3    H147393   1.489   1.416  14.398 -0.4363 -0.8468  1.4769
 8634TIP3    H247394   1.538   1.277  14.433 -0.3545 -1.6313 -1.4996
 8635TIP3   OH247395   2.331   4.418   1.342  0.0350 -0.4961 -0.1216
 8635TIP3    H147396   2.420   4.395   1.315 -0.6745 -2.2077 -1.2409
 8635TIP3    H247397   2.326   4.395   1.434  0.8509 -0.0130  0.0498
 8636TIP3   OH247398   5.595   6.291  14.692  0.1023  0.0708 -0.0626
 8636TIP3    H147399   5.656   6.219  14.707  0.2069 -0.1003 -1.2411
 8636TIP3    H247400   5.560   6.311  14.779  0.1965 -1.2740  0.3044
 8637TIP3   OH247401   6.626   5.973  11.141  0.5420  0.0704  0.3999
 8637TIP3    H147402   6.546   5.932  11.173 -1.0696  3.5241  1.3295
 8637TIP3    H247403   6.613   5.984  11.047  1.4066 -2.1713 -0.0429
 8638TIP3   OH247404   3.106   6.416   0.708  0.0106  0.1846  0.4868
 8638TIP3    H147405   3.112   6.485   0.643 -0.5443  1.9582  2.1943
 8638TIP3    H247406   3.035   6.359   0.677  2.3947 -1.4595 -2.4540
 8639TIP3   OH247407   4.349   1.706  12.054 -0.0200  0.2385 -0.6905
 8639TIP3    H147408   4.292   1.757  12.112  0.0759  1.1248 -1.3565
 8639TIP3    H247409   4.293   1.677  11.983  0.0382 -0.1888 -0.5707
 8640TIP3   OH247410   3.842   5.662   1.979  0.5151 -0.0801  0.4419
 8640TIP3    H147411   3.786   5.674   1.902  1.7594 -1.3493 -0.7489
 8640TIP3    H247412   3.931   5.672   1.945  1.1639 -2.0192  1.3813
 8641TIP3   OH247413   1.045   5.562  15.198  0.1770 -0.0210  0.6109
 8641TIP3    H147414   1.049   5.629  15.130 -2.0991  0.2751  0.6910
 8641TIP3    H247415   1.041   5.611  15.280  0.2089 -0.2927  0.7764
 8642TIP3   OH247416   0.154   0.323  14.083 -0.8074 -0.5541  0.0255
 8642TIP3    H147417   0.169   0.235  14.117  0.7867 -0.6729 -0.8684
 8642TIP3    H247418   0.211   0.329  14.006 -1.7193  0.8797 -0.5920
 8643TIP3   OH247419   3.560   0.475   2.997  0.1335  0.3010 -0.0687
 8643TIP3    H147420   3.464   0.477   3.000  0.0680 -0.1013 -1.2218
 8643TIP3    H247421   3.582   0.382   3.001  0.4049  0.3122 -1.0155
 8644TIP3   OH247422   1.493   2.556  11.455  0.5537 -0.7129 -0.2291
 8644TIP3    H147423   1.533   2.620  11.514 -1.5259  0.7265 -0.2842
 8644TIP3    H247424   1.448   2.494  11.513 -0.1957 -0.1886 -0.2358
 8645TIP3   OH247425   2.570   0.010  16.586 -0.0982  0.2431 -0.4029
 8645TIP3    H147426   2.662   0.001  16.607 -0.5083 -0.6464  1.1849
 8645TIP3    H247427   2.550  -0.067  16.532  0.0270  0.2739 -0.4934
 8646TIP3   OH247428   4.211   4.710  16.727  0.2286  0.2383  0.3286
 8646TIP3    H147429   4.199   4.616  16.714  1.3207  0.2905 -1.4376
 8646TIP3    H247430   4.122   4.745  16.729 -0.1906 -0.6056 -1.2109
 8647TIP3   OH247431   3.871   3.819  16.010 -0.2072 -0.3033 -0.7784
 8647TIP3    H147432   3.831   3.838  16.095  0.3597 -2.0431 -0.0914
 8647TIP3    H247433   3.949   3.875  16.007 -0.2538 -0.1992 -0.1614
 8648TIP3   OH247434   6.487   4.604  12.738  0.1961  0.1553  0.1159
 8648TIP3    H147435   6.447   4.689  12.758 -0.7018 -0.3147  0.3710
 8648TIP3    H247436   6.433   4.540  12.784  0.6242 -0.5961 -0.3935
 8649TIP3   OH247437   4.602   2.622   2.874  0.5166  0.5195 -0.3930
 8649TIP3    H147438   4.596   2.671   2.791 -0.6773  0.0866 -0.5866
 8649TIP3    H247439   4.513   2.624   2.909  1.3728  2.5223  2.0027
 8650TIP3   OH247440   2.916   5.075   2.251  0.1364  0.3904 -0.1314
 8650TIP3    H147441   2.943   5.164   2.275  0.2208  0.4318 -0.3790
 8650TIP3    H247442   2.997   5.032   2.224  0.0453  0.3379 -0.3223
 8651TIP3   OH247443   4.891   6.572  11.157 -0.0828 -0.3153 -0.0650
 8651TIP3    H147444   4.931   6.495  11.196  0.8495  0.4799  0.6053
 8651TIP3    H247445   4.881   6.550  11.064 -2.5747 -2.3414  0.5915
 8652TIP3   OH247446   0.463   0.168  15.648  0.2526 -0.1196  0.8303
 8652TIP3    H147447   0.413   0.124  15.580 -2.9412 -1.0381  3.5139
 8652TIP3    H247448   0.554   0.158  15.622 -0.7471 -1.1907 -2.7465
 8653TIP3   OH247449   1.221   6.043   3.888  0.3167 -0.0831  0.4500
 8653TIP3    H147450   1.160   6.012   3.821 -0.5805 -0.9143  1.6246
 8653TIP3    H247451   1.306   6.007   3.861  0.5179  1.6960 -1.6079
 8654TIP3   OH247452   0.585   6.793  14.654 -0.1856  0.8257  0.0550
 8654TIP3    H147453   0.627   6.716  14.617 -4.3805 -1.6934 -0.0481
 8654TIP3    H247454   0.534   6.830  14.581 -0.6380  1.8455  0.8562
 8655TIP3   OH247455   5.542   3.512  11.241  0.2684  0.1287  0.1571
 8655TIP3    H147456   5.447   3.502  11.233  0.0970  1.9531 -0.5531
 8655TIP3    H247457   5.574   3.511  11.151  1.1813 -2.0645  0.4237
 8656TIP3   OH247458   0.332   3.422   1.845 -0.0662 -0.3751  0.5410
 8656TIP3    H147459   0.317   3.516   1.835 -0.6467 -0.3405  1.6496
 8656TIP3    H247460   0.357   3.393   1.757 -2.1330  0.3949 -0.3739
 8657TIP3   OH247461   1.540   4.242  12.115  0.2926  0.1707  0.0346
 8657TIP3    H147462   1.634   4.232  12.101  0.1540 -0.7363 -0.2564
 8657TIP3    H247463   1.526   4.212  12.205  0.0893 -1.0004 -0.3709
 8658TIP3   OH247464   0.798   4.593  14.916 -0.6182 -0.0401  0.5052
 8658TIP3    H147465   0.804   4.686  14.935 -0.3393 -0.1115  0.7642
 8658TIP3    H247466   0.881   4.572  14.873 -0.6323 -0.1933  0.5526
 8659TIP3   OH247467   0.951   6.257   5.538  0.4675  0.3237 -0.0936
 8659TIP3    H147468   1.027   6.203   5.515 -0.0117 -0.1607 -0.5590
 8659TIP3    H247469   0.912   6.212   5.613  0.3587  0.3105 -0.1590
 8660TIP3   OH247470   1.332   3.391   5.870 -1.1281  0.2174  0.0619
 8660TIP3    H147471   1.391   3.458   5.835 -1.2842 -0.1490 -0.9397
 8660TIP3    H247472   1.270   3.375   5.800 -0.4554 -1.7366 -0.1422
 8661TIP3   OH247473   2.737   4.377  16.209  0.3247  0.6191  0.2736
 8661TIP3    H147474   2.650   4.396  16.243  0.5416 -0.1676  1.3294
 8661TIP3    H247475   2.792   4.366  16.287  1.1730  0.2212 -0.3548
 8662TIP3   OH247476   1.973   4.258   3.786 -0.2001 -0.0315  0.1618
 8662TIP3    H147477   2.005   4.203   3.858  1.1662  0.9620  0.3408
 8662TIP3    H247478   1.883   4.279   3.811  0.2256  0.2599  1.5897
 8663TIP3   OH247479   5.205   3.914  11.144 -0.7492 -0.1801  0.3994
 8663TIP3    H147480   5.172   3.844  11.088  1.8884 -1.0034 -0.2554
 8663TIP3    H247481   5.217   3.872  11.230  2.5542 -1.2225 -0.4169
 8664TIP3   OH247482   0.028   6.630   0.652 -0.5564 -0.2024 -0.1892
 8664TIP3    H147483   0.035   6.649   0.746  0.7199 -4.1717  0.7009
 8664TIP3    H247484  -0.001   6.539   0.648 -1.3244  0.0685 -3.7204
 8665TIP3   OH247485   4.554   1.833   3.527 -0.0317  0.0503 -0.0958
 8665TIP3    H147486   4.552   1.793   3.440 -1.7577  1.7071 -0.8836
 8665TIP3    H247487   4.620   1.901   3.521  0.2303 -0.1868  0.0713
 8666TIP3   OH247488   2.747   0.270  13.876  0.3632 -0.1627 -0.3158
 8666TIP3    H147489   2.813   0.284  13.808  1.6818  0.3938  1.0416
 8666TIP3    H247490   2.746   0.175  13.889  0.0128 -0.2863 -1.1745
 8667TIP3   OH247491   3.695   1.466   3.501 -0.0492  0.5145  0.5794
 8667TIP3    H147492   3.682   1.398   3.434  1.1428 -1.1601  1.9469
 8667TIP3    H247493   3.716   1.545   3.452  1.2605 -0.7584 -1.0214
 8668TIP3   OH247494   2.834   4.157   5.438 -0.1369 -0.1543 -0.1241
 8668TIP3    H147495   2.800   4.081   5.391 -0.8797 -1.6351  2.5363
 8668TIP3    H247496   2.919   4.129   5.472 -0.4888  0.0764  1.0164
 8669TIP3   OH247497   3.981   0.332  13.809 -0.1358  0.2890 -0.0990
 8669TIP3    H147498   3.926   0.399  13.851  0.9585  0.6649  0.7983
 8669TIP3    H247499   3.920   0.281  13.756 -1.3149  0.8335  0.6710
 8670TIP3   OH247500   6.074   6.153  17.242 -0.2950  0.2573 -0.2296
 8670TIP3    H147501   6.016   6.158  17.318  0.8108  1.0313  0.5954
 8670TIP3    H247502   6.054   6.232  17.191  0.8690  1.2358  0.7293
 8671TIP3   OH247503   5.473   5.329   1.996  0.0115 -0.2398  0.0297
 8671TIP3    H147504   5.491   5.419   2.020  2.1325  0.0421 -2.2567
 8671TIP3    H247505   5.396   5.334   1.939 -0.5442 -0.0478  0.7819
 8672TIP3   OH247506   4.939   4.018  10.987 -0.0136  0.4851  0.1204
 8672TIP3    H147507   4.929   4.027  11.081  0.5484 -0.5473  0.2944
 8672TIP3    H247508   4.991   4.094  10.961  0.2485  0.5211  0.7297
 8673TIP3   OH247509   3.776   3.306  17.108 -0.4468  0.5636 -0.5231
 8673TIP3    H147510   3.724   3.229  17.133 -0.6730  0.6887 -0.6091
 8673TIP3    H247511   3.833   3.322  17.184 -0.9473  0.7837 -0.1919
 8674TIP3   OH247512   5.518   6.210  11.836  0.0688 -0.0319 -0.2105
 8674TIP3    H147513   5.525   6.301  11.865 -0.3924 -0.5813  1.7410
 8674TIP3    H247514   5.586   6.201  11.769  1.2708  1.2944  0.7786
 8675TIP3   OH247515   4.289   0.984  15.035  0.1645  0.1954  0.4909
 8675TIP3    H147516   4.275   1.061  14.981 -0.5524  1.6651  2.6268
 8675TIP3    H247517   4.336   1.016  15.112 -0.9746 -1.2794  1.8848
 8676TIP3   OH247518   3.337   6.004   5.604 -0.1146  0.0051 -0.6912
 8676TIP3    H147519   3.317   5.958   5.685 -0.7466  0.2658 -0.6993
 8676TIP3    H247520   3.266   6.066   5.593  0.8444  1.1491 -0.5686
 8677TIP3   OH247521   4.865   2.942  15.126 -0.0057  0.4274  0.2258
 8677TIP3    H147522   4.941   2.909  15.174 -0.2416 -0.7928 -0.2051
 8677TIP3    H247523   4.895   2.950  15.035 -0.6882 -1.2096 -0.1828
 8678TIP3   OH247524   5.272   1.035  17.209  0.1367  0.5133 -0.3494
 8678TIP3    H147525   5.185   1.003  17.235  0.2805  1.1862  1.0353
 8678TIP3    H247526   5.270   1.033  17.113 -0.9618 -0.6559 -0.3349
 8679TIP3   OH247527   2.198   5.824   4.621 -0.5871 -0.1633 -0.1695
 8679TIP3    H147528   2.220   5.785   4.705  0.4533 -1.0318 -0.8165
 8679TIP3    H247529   2.273   5.804   4.565 -0.5073  1.8399 -0.8560
 8680TIP3   OH247530   0.227   6.764  12.894  0.3733  0.5467  0.1217
 8680TIP3    H147531   0.144   6.739  12.935  1.6323 -0.4187  2.2793
 8680TIP3    H247532   0.265   6.828  12.955  2.3754 -1.0391  0.6454
 8681TIP3   OH247533   2.213   4.526  12.483  0.3979 -0.1346 -0.0669
 8681TIP3    H147534   2.139   4.514  12.424 -1.3667  0.6632  1.8325
 8681TIP3    H247535   2.243   4.616  12.467 -2.0348  1.2161  2.1506
 8682TIP3   OH247536   3.523   6.308  15.767  0.5817 -0.1640 -0.6724
 8682TIP3    H147537   3.467   6.257  15.709 -0.0269  2.1451 -2.2465
 8682TIP3    H247538   3.532   6.393  15.724  0.2413  1.6731  2.5378
 8683TIP3   OH247539   6.445   0.618   5.788 -0.2571 -0.0295  0.1209
 8683TIP3    H147540   6.364   0.569   5.774  1.0045 -1.9117 -1.0030
 8683TIP3    H247541   6.488   0.572   5.860 -0.3799  1.2527  1.0379
 8684TIP3   OH247542   6.603   3.303   0.965  0.0654  0.3483 -0.4680
 8684TIP3    H147543   6.572   3.340   0.882 -0.1907  1.2134  0.0051
 8684TIP3    H247544   6.635   3.216   0.942 -1.2397  0.0510 -1.2572
 8685TIP3   OH247545   4.973   5.639  12.529 -0.1480  0.2059 -0.8193
 8685TIP3    H147546   4.975   5.545  12.515 -0.7629 -0.2129  1.4637
 8685TIP3    H247547   5.037   5.655  12.599 -1.3144  1.1875  0.0793
 8686TIP3   OH247548   1.053   5.857   5.304  0.0968 -0.3721  0.2560
 8686TIP3    H147549   0.961   5.854   5.277 -0.2198 -2.2323  1.3799
 8686TIP3    H247550   1.102   5.829   5.228 -0.2706  0.3314 -0.2538
 8687TIP3   OH247551   6.519   4.475   2.487  0.8636 -0.8106 -0.4168
 8687TIP3    H147552   6.606   4.485   2.448  1.0655 -3.5408 -0.8260
 8687TIP3    H247553   6.536   4.459   2.580  0.5743  1.6638  0.1321
 8688TIP3   OH247554   5.025   4.394   5.343  0.8153 -0.4969  0.0519
 8688TIP3    H147555   5.025   4.333   5.269  1.7083 -0.0300 -0.3573
 8688TIP3    H247556   5.060   4.342   5.416  1.3863 -0.5381 -0.2435
 8689TIP3   OH247557   3.516   1.411  14.781 -0.0646 -0.1671 -0.5365
 8689TIP3    H147558   3.525   1.498  14.820 -0.2430  0.0652 -1.0069
 8689TIP3    H247559   3.440   1.373  14.824  1.6252 -1.2046  1.7233
 8690TIP3   OH247560   2.205   3.426  14.532  0.0173  0.4525  0.2483
 8690TIP3    H147561   2.202   3.365  14.459 -2.1400  0.5897  0.1591
 8690TIP3    H247562   2.158   3.382  14.603  0.5176  1.0457  0.9757
 8691TIP3   OH247563   4.924   0.890  16.966  0.2345 -0.1267  0.2181
 8691TIP3    H147564   4.923   0.808  17.015 -0.4935 -1.2340 -1.5246
 8691TIP3    H247565   4.869   0.872  16.889 -0.5070  2.2273  0.1338
 8692TIP3   OH247566   1.561   1.540  13.079  0.2187 -0.5586 -0.3639
 8692TIP3    H147567   1.545   1.474  13.146 -0.2649 -1.0437 -0.9460
 8692TIP3    H247568   1.524   1.503  12.999  0.8608 -0.0350 -0.9245
 8693TIP3   OH247569   3.996   0.722   6.593  0.1446 -0.0846 -0.4424
 8693TIP3    H147570   4.089   0.701   6.586  0.2115  0.2661 -0.6783
 8693TIP3    H247571   3.993   0.818   6.583 -0.1014  0.0706  1.0032
 8694TIP3   OH247572   5.976   3.809  12.891  0.1093 -0.2093 -0.2249
 8694TIP3    H147573   5.941   3.743  12.831 -0.1319 -0.3179  0.0340
 8694TIP3    H247574   6.028   3.867  12.835  1.9247 -1.6986 -0.1746
 8695TIP3   OH247575   4.463   6.276   0.992 -0.1089  0.0701 -0.5976
 8695TIP3    H147576   4.462   6.274   0.896  1.2203 -0.9822 -0.6268
 8695TIP3    H247577   4.517   6.352   1.014  1.8827 -1.2205 -0.7770
 8696TIP3   OH247578   1.117   0.033  16.882  0.5425 -0.3908  0.3147
 8696TIP3    H147579   1.049   0.029  16.950 -0.4922 -1.4885 -0.7318
 8696TIP3    H247580   1.134   0.126  16.870  0.4857 -0.1612  1.8032
 8697TIP3   OH247581   6.802   0.364   2.093  0.1024 -0.0590 -0.4223
 8697TIP3    H147582   6.837   0.300   2.155 -0.2998  1.7488  1.8023
 8697TIP3    H247583   6.708   0.344   2.089 -0.4433  1.5678  1.9625
 8698TIP3   OH247584   0.354   0.264  12.096  0.1781  0.3064 -1.0715
 8698TIP3    H147585   0.408   0.197  12.054 -0.3997 -0.3494 -0.7833
 8698TIP3    H247586   0.323   0.223  12.177  0.2190  1.0951 -0.6520
 8699TIP3   OH247587   4.470   1.815  12.322  0.2144  0.2156 -0.3264
 8699TIP3    H147588   4.520   1.817  12.403 -0.0489 -0.4445 -0.1431
 8699TIP3    H247589   4.442   1.725  12.313  0.1880  0.2911 -1.1256
 8700TIP3   OH247590   0.069   5.912   0.304 -0.2588  0.7123 -0.5507
 8700TIP3    H147591   0.005   5.906   0.233  1.0069  1.8660 -1.8464
 8700TIP3    H247592   0.018   5.897   0.384 -1.7901 -0.2017 -1.6561
 8701TIP3   OH247593   0.908   0.311  15.886  0.3791  0.1058  0.4314
 8701TIP3    H147594   0.872   0.397  15.866 -0.4796 -0.6436 -1.5445
 8701TIP3    H247595   1.002   0.320  15.872  0.1724  0.4831 -0.8859
 8702TIP3   OH247596   2.709   1.871   1.247 -0.0546 -0.4578  0.3261
 8702TIP3    H147597   2.631   1.825   1.216  0.8852 -2.5527  0.8882
 8702TIP3    H247598   2.704   1.867   1.342  0.0591  0.6459  0.3952
 8703TIP3   OH247599   3.411   4.108   3.145  0.6777  0.2914  0.5249
 8703TIP3    H147600   3.448   4.050   3.079 -1.4081 -1.9799  1.2353
 8703TIP3    H247601   3.486   4.132   3.200  1.7686 -0.9551 -0.3516
 8704TIP3   OH247602   4.158   3.850  13.384 -0.3870 -0.2662 -0.2834
 8704TIP3    H147603   4.237   3.832  13.436 -2.0321 -2.3112  1.7080
 8704TIP3    H247604   4.110   3.914  13.437 -1.7123 -1.7785  0.4224
 8705TIP3   OH247605   3.936   6.617   5.278 -0.0688 -0.0961  0.1039
 8705TIP3    H147606   3.994   6.587   5.348 -1.6325 -0.7389  1.1799
 8705TIP3    H247607   3.892   6.538   5.247 -0.2688  0.3559 -0.8045
 8706TIP3   OH247608   3.678   0.293   1.129  0.0316  0.3693 -0.5211
 8706TIP3    H147609   3.596   0.244   1.118  0.1747  0.2953 -1.2978
 8706TIP3    H247610   3.713   0.301   1.041  0.3774  1.2466 -0.3173
 8707TIP3   OH247611   4.738   5.227   0.568 -0.4641 -0.5617 -0.4111
 8707TIP3    H147612   4.798   5.299   0.546 -0.4903  0.3263  2.1223
 8707TIP3    H247613   4.793   5.149   0.566  0.2521 -0.0718 -0.3848
 8708TIP3   OH247614   2.352   4.475   0.738  0.4620  0.2494 -0.2661
 8708TIP3    H147615   2.365   4.388   0.776  0.0891 -0.2114 -1.1715
 8708TIP3    H247616   2.358   4.535   0.812 -1.5501 -0.7223  0.7519
 8709TIP3   OH247617   0.634   1.862  15.962 -0.4317  0.9129 -0.1061
 8709TIP3    H147618   0.568   1.904  16.018 -0.5333  0.4083  0.1642
 8709TIP3    H247619   0.717   1.899  15.991 -0.6458  2.0689 -0.9170
 8710TIP3   OH247620   1.012   4.218   0.074 -0.2435 -0.3771  0.3716
 8710TIP3    H147621   0.950   4.158   0.034 -0.7871 -0.4904  1.3626
 8710TIP3    H247622   1.097   4.173   0.069 -0.1663 -0.1119 -1.2127
 8711TIP3   OH247623   3.355   2.982   1.753  0.4773  0.2128 -0.3267
 8711TIP3    H147624   3.299   2.988   1.830  0.7065  1.2259 -0.2281
 8711TIP3    H247625   3.298   2.949   1.684  0.2561 -0.6479  0.2524
 8712TIP3   OH247626   3.916   1.364   4.143  0.7153 -0.9590 -0.3404
 8712TIP3    H147627   3.859   1.288   4.126 -0.2916 -0.5501  1.0331
 8712TIP3    H247628   3.936   1.398   4.056 -0.0996 -1.8757 -0.9168
 8713TIP3   OH247629   6.268   3.513  11.500  0.5660 -0.5578 -0.1544
 8713TIP3    H147630   6.356   3.478  11.487  0.6064 -0.1568 -1.0048
 8713TIP3    H247631   6.224   3.499  11.416 -0.1000 -0.5085  0.1785
 8714TIP3   OH247632   2.081   0.929   3.453  0.5752  0.2039 -0.1766
 8714TIP3    H147633   2.062   1.022   3.440 -0.0334  0.0383 -0.4959
 8714TIP3    H247634   2.088   0.920   3.548 -0.3672  0.3946 -0.0747
 8715TIP3   OH247635   3.079   1.688   3.587  0.4362 -0.3719  0.0186
 8715TIP3    H147636   3.061   1.649   3.673 -0.0890  1.9697  1.0476
 8715TIP3    H247637   3.174   1.701   3.586  0.4304 -0.3089  0.2818
 8716TIP3   OH247638   4.779   2.396  17.235 -0.4538 -0.0985  0.6014
 8716TIP3    H147639   4.816   2.321  17.188 -1.3782  1.4848 -3.0088
 8716TIP3    H247640   4.684   2.383  17.230 -0.7709  2.2375 -2.1761
 8717TIP3   OH247641   3.710   2.635  11.162  0.0424  0.2575 -0.2636
 8717TIP3    H147642   3.692   2.647  11.068 -0.8396  0.2904 -0.1051
 8717TIP3    H247643   3.784   2.693  11.180  1.1226 -0.7750 -1.2164
 8718TIP3   OH247644   6.523   0.581  12.475 -0.5601  0.3122  0.3246
 8718TIP3    H147645   6.593   0.599  12.413 -0.9561  1.6214  0.2273
 8718TIP3    H247646   6.505   0.665  12.516 -0.1123 -0.5738  2.4558
 8719TIP3   OH247647   3.667   6.220   5.639 -1.2075  0.2174 -0.0020
 8719TIP3    H147648   3.634   6.309   5.647 -0.4904  0.6047 -1.0257
 8719TIP3    H247649   3.650   6.179   5.724 -3.3876  0.6728 -0.1807
 8720TIP3   OH247650   6.613   6.691  15.892  0.5301  0.3797 -0.1745
 8720TIP3    H147651   6.647   6.686  15.803  0.8984 -1.9333  0.0313
 8720TIP3    H247652   6.592   6.600  15.914  2.2189  0.5839  2.7644
 8721TIP3   OH247653   2.682   1.784   4.288 -0.8223 -0.6928  1.1697
 8721TIP3    H147654   2.737   1.754   4.360 -0.1543 -0.3419  0.8215
 8721TIP3    H247655   2.683   1.711   4.225 -0.9149 -0.7642  1.2516
 8722TIP3   OH247656   5.947   4.507  16.115 -0.1956 -0.0640 -0.2140
 8722TIP3    H147657   5.907   4.589  16.143  2.2308  1.4247 -0.8196
 8722TIP3    H247658   5.973   4.523  16.024 -0.9350 -2.0322 -0.8177
 8723TIP3   OH247659   0.423   3.619  16.993 -0.1454 -0.1450 -0.8310
 8723TIP3    H147660   0.408   3.638  16.900 -0.3675 -1.2240 -1.0253
 8723TIP3    H247661   0.449   3.527  16.995  0.8564  0.1381  0.0866
 8724TIP3   OH247662   6.328   0.121  13.384 -0.0349  0.2659 -0.0851
 8724TIP3    H147663   6.247   0.154  13.346 -1.0843 -1.4185  0.5557
 8724TIP3    H247664   6.365   0.195  13.431 -0.4352  1.4507 -1.5764
 8725TIP3   OH247665   5.229   0.303   5.742  0.1000 -0.0846  0.0485
 8725TIP3    H147666   5.180   0.233   5.785 -0.2188 -0.2545 -0.5801
 8725TIP3    H247667   5.220   0.378   5.800 -2.4366  0.4271 -0.8718
 8726TIP3   OH247668   0.929   6.334  15.371 -0.2237  0.2182 -0.0493
 8726TIP3    H147669   0.997   6.366  15.311  3.0054 -0.2495  3.0272
 8726TIP3    H247670   0.923   6.240  15.352  0.9656  0.0222  0.4318
 8727TIP3   OH247671   3.777   3.712   2.994 -0.0778  0.1973  0.0190
 8727TIP3    H147672   3.728   3.720   2.913 -2.0441 -1.0393  1.0186
 8727TIP3    H247673   3.721   3.660   3.051  1.7935 -0.0527  1.7450
 8728TIP3   OH247674   1.012   0.703  13.346  0.5156  0.3960  0.0841
 8728TIP3    H147675   1.065   0.782  13.354  0.1500  0.5192  1.7628
 8728TIP3    H247676   0.948   0.724  13.278  2.1180  0.4984 -1.4586
 8729TIP3   OH247677   3.297   1.160  15.931  0.0546 -0.2847 -0.0157
 8729TIP3    H147678   3.217   1.134  15.885  0.1671 -1.9815  0.6459
 8729TIP3    H247679   3.295   1.255  15.932 -1.6310 -0.2839 -0.5851
 8730TIP3   OH247680   1.725   3.132  14.639  0.0759  0.3972  0.2376
 8730TIP3    H147681   1.638   3.142  14.599  0.2408  0.1940 -0.1782
 8730TIP3    H247682   1.731   3.038  14.657 -0.1943  0.5527  1.1975
 8731TIP3   OH247683   1.861   5.562   3.905  0.3345 -0.1313 -0.7237
 8731TIP3    H147684   1.885   5.535   3.817  1.8694  0.6549 -0.5770
 8731TIP3    H247685   1.868   5.482   3.958  1.3284 -0.2041 -0.9526
 8732TIP3   OH247686   1.071   4.213   1.734 -0.7337  0.1701  0.2411
 8732TIP3    H147687   1.121   4.295   1.729  0.0810 -0.3078  0.3119
 8732TIP3    H247688   1.067   4.193   1.827  2.2518 -1.7238  0.0915
 8733TIP3   OH247689   1.940   3.506  12.057  0.7235  0.3037 -0.3078
 8733TIP3    H147690   2.011   3.565  12.032  0.1780  0.4853 -1.4799
 8733TIP3    H247691   1.864   3.536  12.007 -0.3218  0.3902  1.2458
 8734TIP3   OH247692   5.890   3.828   4.558 -0.1713 -0.4093  0.2198
 8734TIP3    H147693   5.872   3.913   4.520 -0.2544 -1.0240 -1.1721
 8734TIP3    H247694   5.985   3.825   4.567  0.0021 -0.8659 -1.4854
 8735TIP3   OH247695   3.904   1.892   3.033 -0.5346  0.5762 -0.3684
 8735TIP3    H147696   3.960   1.937   2.969 -0.4280  0.2676 -0.4920
 8735TIP3    H247697   3.819   1.884   2.989 -0.1213 -0.7616 -0.9727
 8736TIP3   OH247698   0.449   4.218  10.925  0.3973  0.2370 -0.0557
 8736TIP3    H147699   0.496   4.142  10.960  0.1587  0.4170  0.6729
 8736TIP3    H247700   0.372   4.227  10.981  1.0050  1.7047  0.5954
 8737TIP3   OH247701   2.677   3.456   4.368 -0.3316  0.1148  0.5088
 8737TIP3    H147702   2.762   3.413   4.355 -0.5560 -0.3312  0.5147
 8737TIP3    H247703   2.613   3.394   4.332 -0.6193  0.6408  0.1020
 8738TIP3   OH247704   3.087   5.417  13.294  0.0900  0.0891 -0.1663
 8738TIP3    H147705   3.101   5.447  13.384 -1.6295 -1.0016  0.5103
 8738TIP3    H247706   3.025   5.345  13.302 -2.2083  1.6353 -2.4316
 8739TIP3   OH247707   6.390   1.201   2.016  0.1041  0.5876  0.0293
 8739TIP3    H147708   6.341   1.174   1.938 -1.2512 -0.3314  1.1306
 8739TIP3    H247709   6.344   1.279   2.047  0.6870  0.9971 -0.1375
 8740TIP3   OH247710   4.969   6.593  17.089  0.5461 -0.3962  0.7864
 8740TIP3    H147711   4.968   6.671  17.034 -0.6960  0.1945  1.5864
 8740TIP3    H247712   5.053   6.552  17.072  1.2426  1.1335  0.3700
 8741TIP3   OH247713   3.715   2.832  16.901 -0.1227 -0.1731  0.0413
 8741TIP3    H147714   3.724   2.927  16.906 -2.7199  0.1013  1.2201
 8741TIP3    H247715   3.802   2.798  16.921  0.6720  1.9401  0.4360
 8742TIP3   OH247716   2.191   4.087  13.050 -0.3900  0.7711 -0.3977
 8742TIP3    H147717   2.209   4.171  13.008  1.5963 -0.6061 -2.5140
 8742TIP3    H247718   2.100   4.094  13.078 -1.2714  2.5517 -3.2742
 8743TIP3   OH247719   0.516   0.643   5.755  0.5570 -0.5290  0.4847
 8743TIP3    H147720   0.491   0.712   5.817  1.4791  0.6540 -0.4077
 8743TIP3    H247721   0.445   0.641   5.691  1.3575  0.9318 -0.5197
 8744TIP3   OH247722   6.021   4.844  16.594  0.3406 -0.3210  0.1947
 8744TIP3    H147723   5.994   4.814  16.681 -1.5895  0.4397 -0.0985
 8744TIP3    H247724   5.940   4.863  16.549  1.3332 -0.1675 -1.6166
 8745TIP3   OH247725   2.668   5.240   6.140 -0.4262  0.3420  0.0385
 8745TIP3    H147726   2.626   5.239   6.054 -0.6422 -0.6502  0.1495
 8745TIP3    H247727   2.761   5.251   6.120 -0.6501  2.2403 -0.2164
 8746TIP3   OH247728   1.181   0.380   2.849  0.8230  0.4048 -0.3062
 8746TIP3    H147729   1.219   0.349   2.767  0.4009  1.4107 -0.9002
 8746TIP3    H247730   1.121   0.310   2.876  0.0263  0.5897 -1.5252
 8747TIP3   OH247731   2.263   4.381   3.591  0.1797 -0.4336 -0.0701
 8747TIP3    H147732   2.171   4.406   3.601  0.1739  0.2988 -1.6925
 8747TIP3    H247733   2.291   4.423   3.509  2.3047  0.3466  0.9805
 8748TIP3   OH247734   5.983   1.064  12.590  0.4309 -0.0971 -0.1595
 8748TIP3    H147735   6.000   1.076  12.497 -1.0434 -1.4612 -0.6329
 8748TIP3    H247736   6.008   1.148  12.629  0.0535  0.8915 -1.9201
 8749TIP3   OH247737   5.643   6.148   3.247  1.0258  0.3066  0.3058
 8749TIP3    H147738   5.600   6.110   3.324  2.4555 -1.5061  0.2778
 8749TIP3    H247739   5.649   6.242   3.268  0.0289  0.1073  1.7086
 8750TIP3   OH247740   1.504   4.095   4.973 -0.0013 -0.6246 -0.1612
 8750TIP3    H147741   1.512   4.022   4.911 -0.8262 -0.2518 -0.7281
 8750TIP3    H247742   1.459   4.057   5.049  1.4981 -1.2171  0.4674
 8751TIP3   OH247743   3.102   5.938   5.287  0.2245 -0.1386  0.2672
 8751TIP3    H147744   3.018   5.943   5.332  2.7341 -1.0475  5.8641
 8751TIP3    H247745   3.151   6.014   5.319  2.6849 -1.6036  0.2287
 8752TIP3   OH247746   0.348   6.551  16.703  0.3440  0.2586  0.7996
 8752TIP3    H147747   0.391   6.628  16.668 -0.1439  0.6231  0.9890
 8752TIP3    H247748   0.390   6.477  16.658  0.1416  0.6867 -0.1080
 8753TIP3   OH247749   2.406   5.819  16.530  0.5970 -1.3545  0.1893
 8753TIP3    H147750   2.453   5.739  16.555  1.7273 -1.3462 -1.6958
 8753TIP3    H247751   2.386   5.807  16.437 -0.6860 -0.1351  0.2731
 8754TIP3   OH247752   2.293   5.017   5.423  0.8649 -0.4926 -0.2983
 8754TIP3    H147753   2.219   5.003   5.364 -0.6953  0.0738  1.4275
 8754TIP3    H247754   2.367   4.974   5.379 -0.3313 -0.6082 -2.3392
 8755TIP3   OH247755   6.540   1.058   6.338  0.3555  0.2014 -0.6289
 8755TIP3    H147756   6.487   1.053   6.417  0.4872 -1.4717 -0.6111
 8755TIP3    H247757   6.583   0.973   6.333  0.6875  0.4377 -2.2625
 8756TIP3   OH247758   0.448   2.126   1.784 -0.2098  0.3421  0.9064
 8756TIP3    H147759   0.500   2.124   1.864 -1.4136  1.0877  1.7542
 8756TIP3    H247760   0.452   2.217   1.754  0.9383 -0.1061 -0.3993
 8757TIP3   OH247761   6.635   4.188  13.366  0.3241 -0.2474  0.2983
 8757TIP3    H147762   6.579   4.141  13.305  0.0579 -0.3304  0.6026
 8757TIP3    H247763   6.719   4.197  13.321 -0.1370  0.4843 -0.4425
 8758TIP3   OH247764   4.801   4.407  14.746 -0.3158  0.4728  0.1620
 8758TIP3    H147765   4.851   4.473  14.699  2.1356 -1.7803 -0.6656
 8758TIP3    H247766   4.786   4.445  14.833 -2.2403  3.4845 -1.3237
 8759TIP3   OH247767   5.577   0.939   4.829 -0.2209  0.3488 -0.7884
 8759TIP3    H147768   5.482   0.927   4.840 -0.2565 -0.0901 -1.5017
 8759TIP3    H247769   5.612   0.933   4.918 -0.8495  0.4333 -0.5237
 8760TIP3   OH247770   6.725   0.575  14.499 -0.1552 -0.3732 -0.1194
 8760TIP3    H147771   6.773   0.649  14.537 -2.1454  0.2748  1.2853
 8760TIP3    H247772   6.748   0.501  14.555 -0.6450 -0.0968  0.4587
 8761TIP3   OH247773   2.259   0.775   1.908  0.0093  0.0376 -0.2078
 8761TIP3    H147774   2.198   0.758   1.836 -1.6828 -1.3755  1.4835
 8761TIP3    H247775   2.224   0.726   1.982  2.6552 -0.0003  1.1480
 8762TIP3   OH247776   6.495   1.579  12.126 -0.3573 -0.1859  0.2567
 8762TIP3    H147777   6.497   1.486  12.150 -1.8508 -0.0336  1.0634
 8762TIP3    H247778   6.520   1.624  12.207 -0.9337  0.1606  0.2445
 8763TIP3   OH247779   3.006   4.216  13.676 -0.3050  0.7220 -0.6002
 8763TIP3    H147780   3.053   4.138  13.647 -0.3328 -0.7311  2.7721
 8763TIP3    H247781   3.073   4.272  13.714 -0.3233  2.3469 -2.7867
 8764TIP3   OH247782   2.585   2.885  16.787  0.1873 -0.1962  0.1910
 8764TIP3    H147783   2.506   2.834  16.771 -0.7822  1.5853 -1.0126
 8764TIP3    H247784   2.554   2.968  16.822  1.5780  0.3018  0.3257
 8765TIP3   OH247785   6.317   4.543   4.020 -0.5639 -0.2241  0.1571
 8765TIP3    H147786   6.403   4.521   4.054 -0.4969 -0.1159  0.0587
 8765TIP3    H247787   6.300   4.632   4.051 -0.7548 -0.3424  0.4005
 8766TIP3   OH247788   3.850   4.536  16.541  0.5381  0.1375  0.0445
 8766TIP3    H147789   3.821   4.616  16.585  0.8872  1.3261 -1.7791
 8766TIP3    H247790   3.788   4.469  16.570  0.0259  1.1372  1.3459
 8767TIP3   OH247791   4.735   2.548  14.872  0.2347 -0.3346 -0.1535
 8767TIP3    H147792   4.740   2.584  14.961  1.3995 -0.4694 -0.1457
 8767TIP3    H247793   4.693   2.617  14.821 -0.1280 -0.1167  0.4280
 8768TIP3   OH247794   6.033   4.547  13.578  0.3406 -0.1836 -0.1257
 8768TIP3    H147795   6.116   4.586  13.605 -0.6967  1.2616  1.1464
 8768TIP3    H247796   5.974   4.563  13.651 -1.3891 -0.1104 -1.4839
 8769TIP3   OH247797   6.660   0.097  11.595 -0.7203 -0.1012 -0.3169
 8769TIP3    H147798   6.662   0.026  11.659 -1.0855 -0.8147 -1.0861
 8769TIP3    H247799   6.611   0.167  11.638 -0.0208 -0.1540  0.6001
 8770TIP3   OH247800   5.872   2.514  14.721  0.1708  0.6883 -0.0170
 8770TIP3    H147801   5.830   2.561  14.793  1.6080  0.7043  0.8414
 8770TIP3    H247802   5.928   2.449  14.764  0.3301  0.0561 -1.1400
 8771TIP3   OH247803   5.087   1.147  10.431  0.7213  0.5301 -0.0484
 8771TIP3    H147804   5.173   1.150  10.473 -0.2034 -0.4857  2.0126
 8771TIP3    H247805   5.025   1.159  10.502 -0.9271 -0.9983 -1.1509
 8772TIP3   OH247806   5.974   2.016  14.022 -0.3453  0.2559 -1.1666
 8772TIP3    H147807   5.893   1.981  14.057 -1.1063  1.6958 -1.4077
 8772TIP3    H247808   6.043   1.979  14.077 -1.3511  0.7918  0.5040
 8773TIP3   OH247809   4.904   2.766  13.493  1.2226  0.0764  0.5417
 8773TIP3    H147810   4.887   2.849  13.537  1.1117 -0.2865  1.1937
 8773TIP3    H247811   4.932   2.791  13.405  0.8430  0.7899  0.6170
 8774TIP3   OH247812   2.135   5.397   4.139  0.5036  0.5385 -0.2683
 8774TIP3    H147813   2.173   5.436   4.061 -0.5001  0.4265 -0.8337
 8774TIP3    H247814   2.149   5.303   4.128 -1.0956  0.3687 -1.1575
 8775TIP3   OH247815   3.970   6.627  12.105 -0.3484 -0.7003 -0.5573
 8775TIP3    H147816   3.924   6.582  12.175 -1.3948  2.6045  1.0605
 8775TIP3    H247817   4.063   6.606  12.120 -0.7571 -2.0491  0.2425
 8776TIP3   OH247818   6.620   4.457   1.253  0.4007 -0.0601 -0.4217
 8776TIP3    H147819   6.551   4.499   1.202  0.4758 -0.0478 -0.5147
 8776TIP3    H247820   6.629   4.510   1.331  1.7931  1.2071 -1.3906
 8777TIP3   OH247821   6.806   0.506   3.226  0.5747 -0.0786 -0.0348
 8777TIP3    H147822   6.815   0.565   3.301  0.6873  1.0411 -0.9171
 8777TIP3    H247823   6.721   0.463   3.240 -0.0044  1.0762  0.0616
 8778TIP3   OH247824   5.752   3.686   6.187  0.6089 -0.0145 -0.6455
 8778TIP3    H147825   5.729   3.776   6.166 -1.7148 -0.4598 -0.2286
 8778TIP3    H247826   5.807   3.693   6.265 -0.0863  0.9911 -0.2347
 8779TIP3   OH247827   4.861   6.484  15.163 -0.5485  0.1150  0.0692
 8779TIP3    H147828   4.887   6.551  15.100 -1.9785  0.0877 -0.5914
 8779TIP3    H247829   4.775   6.511  15.194 -0.0367 -0.0645  1.7830
 8780TIP3   OH247830   1.376   5.689   0.468  0.0400 -0.4936 -0.1444
 8780TIP3    H147831   1.347   5.728   0.550 -1.5185  0.9986 -1.3451
 8780TIP3    H247832   1.303   5.704   0.407  1.8133 -0.0314 -2.2689
 8781TIP3   OH247833   6.753   0.279   3.573 -0.1936 -0.3039  0.1603
 8781TIP3    H147834   6.657   0.283   3.574 -0.1554  0.8375  0.0727
 8781TIP3    H247835   6.772   0.188   3.550 -1.2356 -0.9111  1.5974
 8782TIP3   OH247836   5.143   6.163   5.847  0.2925 -0.0088  0.5007
 8782TIP3    H147837   5.203   6.089   5.835 -1.0973 -1.1450  0.3415
 8782TIP3    H247838   5.184   6.235   5.799  0.2264 -1.5054 -1.9479
 8783TIP3   OH247839   4.324   6.187   0.499 -0.3732  0.1306  0.6100
 8783TIP3    H147840   4.268   6.263   0.486  1.0298  1.6918  2.9669
 8783TIP3    H247841   4.356   6.165   0.411 -1.2667  1.9080 -0.2017
 8784TIP3   OH247842   4.293   4.252   0.000 -0.4429 -0.0871  0.1546
 8784TIP3    H147843   4.366   4.192  -0.018  0.4279  0.8751  0.3933
 8784TIP3    H247844   4.221   4.219  -0.054  0.4199 -0.5486 -0.7453
 8785TIP3   OH247845   0.465   6.556   2.409 -0.0207  0.5953 -0.2917
 8785TIP3    H147846   0.548   6.533   2.368 -0.5257  1.9750 -2.1842
 8785TIP3    H247847   0.399   6.510   2.356 -0.5580  0.5890  0.3716
 8786TIP3   OH247848   5.568   6.284   4.671  0.4895 -0.7245 -0.0010
 8786TIP3    H147849   5.601   6.313   4.586  1.7073  2.0101  1.2902
 8786TIP3    H247850   5.646   6.276   4.726 -0.4902  0.6035  1.6791
 8787TIP3   OH247851   1.739   5.058   2.907 -0.5936  0.6410 -0.5547
 8787TIP3    H147852   1.659   5.090   2.865 -1.5136 -0.2437  0.4553
 8787TIP3    H247853   1.734   4.962   2.899  0.7506  0.5878 -1.1278
 8788TIP3   OH247854   5.711   6.682   1.934  0.2264 -0.3593 -0.2103
 8788TIP3    H147855   5.758   6.752   1.889  1.5085  0.0923  1.7130
 8788TIP3    H247856   5.764   6.604   1.916  0.6921 -0.1947  0.4310
 8789TIP3   OH247857   3.452   3.746   2.426  0.1239 -0.2437  0.1919
 8789TIP3    H147858   3.422   3.767   2.514 -1.9263 -0.6600 -0.3469
 8789TIP3    H247859   3.374   3.713   2.382  0.7008  1.3763 -2.2433
 8790TIP3   OH247860   4.103   3.283  13.437 -0.1579 -0.7834  0.7632
 8790TIP3    H147861   4.084   3.291  13.343 -0.5832 -0.4287  0.8742
 8790TIP3    H247862   4.195   3.257  13.441  0.2155  0.3973  0.2643
 8791TIP3   OH247863   3.951   2.505  11.459  0.2009 -0.4006  0.4583
 8791TIP3    H147864   4.037   2.500  11.500 -0.1837 -2.1735  1.1452
 8791TIP3    H247865   3.892   2.462  11.521 -1.0785  0.2363 -0.2715
 8792TIP3   OH247866   2.522   2.339  12.712 -0.1030  0.2221 -0.2267
 8792TIP3    H147867   2.486   2.423  12.738 -1.6693 -0.5887  0.3552
 8792TIP3    H247868   2.556   2.353  12.623 -1.2821  1.1961 -0.5439
 8793TIP3   OH247869   3.204   6.643   3.442  0.4565  0.6274  0.0006
 8793TIP3    H147870   3.167   6.680   3.361  1.4079  0.4595 -0.5209
 8793TIP3    H247871   3.188   6.710   3.508 -0.1625  0.8511 -0.3596
 8794TIP3   OH247872   5.804   5.784  12.081 -0.1315 -0.7473 -0.2207
 8794TIP3    H147873   5.748   5.732  12.022 -0.2375 -0.4237 -0.4082
 8794TIP3    H247874   5.891   5.745  12.072 -0.1671 -0.7599 -0.5217
 8795TIP3   OH247875   2.669   3.231   6.274 -0.3543  0.5251  0.0526
 8795TIP3    H147876   2.660   3.188   6.359  0.4481  1.8591  0.8475
 8795TIP3    H247877   2.649   3.323   6.291  1.1255  1.0605 -0.8954
 8796TIP3   OH247878   5.806   0.626   0.817  0.6075 -0.6237  0.2369
 8796TIP3    H147879   5.808   0.667   0.731 -2.5062  4.4204  2.1331
 8796TIP3    H247880   5.891   0.648   0.856  0.6060  0.4231 -0.3119
 8797TIP3   OH247881   3.360   1.206  13.273 -0.5804 -0.1785 -0.4579
 8797TIP3    H147882   3.334   1.192  13.182 -1.0474  2.1307 -0.7394
 8797TIP3    H247883   3.447   1.245  13.269 -0.1678 -0.9893  0.1590
 8798TIP3   OH247884   3.084   2.622  15.756 -0.0219 -0.2167  0.0005
 8798TIP3    H147885   3.173   2.616  15.721 -1.3023 -0.5683 -3.6393
 8798TIP3    H247886   3.069   2.716  15.768  0.9327 -0.1818  1.0092
 8799TIP3   OH247887   3.384   4.758   2.843  0.3216  0.1914 -1.1563
 8799TIP3    H147888   3.383   4.844   2.885  2.1687  0.7072 -2.0425
 8799TIP3    H247889   3.338   4.771   2.761 -0.5446 -0.0183 -0.7134
 8800TIP3   OH247890   4.062   1.980  16.863 -0.1414  0.2198  0.7257
 8800TIP3    H147891   3.987   1.936  16.823  1.5348  0.2702 -2.7889
 8800TIP3    H247892   4.029   2.067  16.886 -1.6896 -0.5010  1.4033
 8801TIP3   OH247893   4.052   0.469   3.521 -0.3630  0.2742 -0.0320
 8801TIP3    H147894   4.011   0.486   3.436  0.8771  1.1140 -0.4912
 8801TIP3    H247895   4.044   0.375   3.533  1.3003 -0.2225 -2.1172
 8802TIP3   OH247896   6.496   1.064   4.254 -0.4258 -0.2502 -0.0328
 8802TIP3    H147897   6.424   1.005   4.278  0.1171 -1.1935 -0.6526
 8802TIP3    H247898   6.454   1.131   4.201 -1.1385  0.2187  1.0940
 8803TIP3   OH247899   6.596   0.364   0.879 -0.4704 -0.4129  0.2768
 8803TIP3    H147900   6.662   0.419   0.920  0.3778 -0.0971 -1.4271
 8803TIP3    H247901   6.564   0.307   0.950  1.5470 -0.5133  1.1623
 8804TIP3   OH247902   5.276   4.606   3.354 -0.3663 -0.3008  0.5089
 8804TIP3    H147903   5.248   4.547   3.284  2.1027 -2.4588  1.1884
 8804TIP3    H247904   5.353   4.564   3.392  0.6834  2.6861  2.0359
 8805TIP3   OH247905   2.746   4.438  13.935 -0.3704  0.0828  0.0073
 8805TIP3    H147906   2.834   4.477  13.937 -0.9917  1.5545 -0.1887
 8805TIP3    H247907   2.735   4.400  14.021  0.1848  0.5573  0.2991
 8806TIP3   OH247908   0.488   0.287  12.552  0.0559  0.1025 -1.1206
 8806TIP3    H147909   0.460   0.195  12.553  0.2767  0.0381 -0.3740
 8806TIP3    H247910   0.440   0.325  12.478 -1.0916 -0.2868 -0.6058
 8807TIP3   OH247911   3.935   4.443   2.158  0.4850  1.0523  0.0068
 8807TIP3    H147912   3.928   4.511   2.091  0.2191  0.9399 -0.0833
 8807TIP3    H247913   3.850   4.446   2.204  0.3140  0.5050 -0.2665
 8808TIP3   OH247914   5.098   5.918   5.616 -0.6995  0.0570 -1.1853
 8808TIP3    H147915   5.093   6.004   5.575  0.2913  0.2476 -0.9245
 8808TIP3    H247916   5.047   5.861   5.558 -0.2178  0.5380 -2.1041
 8809TIP3   OH247917   3.780   2.197   1.228  0.8536 -0.2615  0.0878
 8809TIP3    H147918   3.727   2.273   1.252  0.7659 -0.5139  0.7252
 8809TIP3    H247919   3.728   2.122   1.259 -0.3196 -0.7777 -2.7944
 8810TIP3   OH247920   5.564   1.177  14.727 -0.5501 -0.5171 -0.3402
 8810TIP3    H147921   5.622   1.154  14.655  1.1487 -0.6711  1.0062
 8810TIP3    H247922   5.513   1.251  14.694  3.4256  2.5983 -0.3055
 8811TIP3   OH247923   0.046   4.961   1.513 -0.4050  0.2393  0.2948
 8811TIP3    H147924  -0.012   4.982   1.586  0.5532 -0.2265  1.2194
 8811TIP3    H247925   0.012   5.012   1.440 -1.6095  0.4338  0.9642
 8812TIP3   OH247926   0.214   5.375   2.751  0.2037  0.0036  0.3895
 8812TIP3    H147927   0.246   5.461   2.723 -0.5351  0.2616  0.3223
 8812TIP3    H247928   0.281   5.343   2.811  2.3229 -0.9519 -2.2368
 8813TIP3   OH247929   5.800   2.842  13.083  0.6387 -0.2906  0.4061
 8813TIP3    H147930   5.810   2.783  13.008  0.9579  0.1216  0.1165
 8813TIP3    H247931   5.872   2.818  13.141  0.7604 -0.1965  0.2947
 8814TIP3   OH247932   2.001   4.624   5.331 -0.5559 -0.1184  0.9060
 8814TIP3    H147933   1.973   4.610   5.241 -1.0195 -2.3572  1.3182
 8814TIP3    H247934   2.038   4.540   5.358  0.2327  0.7080  2.5877
 8815TIP3   OH247935   6.298   1.616  14.063 -0.2786  0.4557 -0.0291
 8815TIP3    H147936   6.315   1.522  14.053  0.1261  0.3396  1.4831
 8815TIP3    H247937   6.329   1.655  13.981  0.0886 -0.6617 -0.4415
 8816TIP3   OH247938   1.919   2.938  16.329 -0.5009  0.0780  0.5436
 8816TIP3    H147939   1.853   3.005  16.343 -1.3754 -0.8489  0.9159
 8816TIP3    H247940   1.951   2.917  16.417  1.1671  1.3460  0.3027
 8817TIP3   OH247941   2.659   1.862   2.075  0.0207 -0.0814  0.2779
 8817TIP3    H147942   2.601   1.938   2.084  0.6690  0.5804 -0.8003
 8817TIP3    H247943   2.700   1.853   2.161 -0.4893  0.4432  0.5844
 8818TIP3   OH247944   1.574   6.765   2.118 -0.0064  0.0065  0.3161
 8818TIP3    H147945   1.541   6.680   2.147  0.4443 -0.6662 -1.0532
 8818TIP3    H247946   1.496   6.814   2.094 -0.1469 -1.0442 -1.5091
 8819TIP3   OH247947   1.721   1.133  11.390  0.3632  0.6491  0.4770
 8819TIP3    H147948   1.727   1.119  11.295  0.1235  0.7087  0.4530
 8819TIP3    H247949   1.667   1.212  11.399  1.0907  1.1408  0.6384
 8820TIP3   OH247950   1.248   2.341   0.600  0.2841 -0.0133  0.2936
 8820TIP3    H147951   1.312   2.348   0.671  0.0159  2.5602  0.3861
 8820TIP3    H247952   1.190   2.417   0.612  0.4144  0.7450 -2.8167
 8821TIP3   OH247953   3.548   5.422   1.416 -0.2548 -0.6601 -0.0133
 8821TIP3    H147954   3.608   5.375   1.357 -2.5787 -2.1368 -1.3624
 8821TIP3    H247955   3.504   5.486   1.359 -1.2396 -0.8489  0.5123
 8822TIP3   OH247956   5.583   2.911   5.045  0.3986 -0.1105  0.2377
 8822TIP3    H147957   5.506   2.907   4.989  0.5999  0.3939 -0.0788
 8822TIP3    H247958   5.645   2.850   5.006  0.2465 -0.3489  0.3655
 8823TIP3   OH247959   3.418   2.066  14.880  0.3935  0.6130 -0.8261
 8823TIP3    H147960   3.491   2.051  14.940 -0.4283  1.1988  0.3821
 8823TIP3    H247961   3.458   2.092  14.798  1.5560  2.6310  0.2991
 8824TIP3   OH247962   4.174   1.482  13.063 -0.4030 -0.4822 -0.3326
 8824TIP3    H147963   4.245   1.529  13.107 -1.2663  0.0251  0.5652
 8824TIP3    H247964   4.171   1.397  13.106 -0.9791 -0.1366  0.3252
 8825TIP3   OH247965   3.428   4.947   0.484  0.0362  0.2120 -0.2561
 8825TIP3    H147966   3.381   4.919   0.563  0.4049  1.0731  0.2851
 8825TIP3    H247967   3.363   4.997   0.434  0.5001  2.0442  0.8427
 8826TIP3   OH247968   0.107   2.271  14.876  0.6059 -0.0898  0.2296
 8826TIP3    H147969   0.138   2.208  14.811  1.1444  0.3414  0.0602
 8826TIP3    H247970   0.186   2.318  14.904  0.2546  0.3224  0.5549
 8827TIP3   OH247971   0.784   1.284  11.634 -0.5572 -0.4920 -1.1209
 8827TIP3    H147972   0.826   1.205  11.601 -0.7962 -1.5203  0.8823
 8827TIP3    H247973   0.704   1.253  11.675 -0.4612  0.7253  0.0641
 8828TIP3   OH247974   1.631   1.620   0.629  0.1149 -0.2000  0.1645
 8828TIP3    H147975   1.559   1.657   0.578  1.4671  3.4114  0.6277
 8828TIP3    H247976   1.706   1.624   0.569  1.0958  1.3842  1.4434
 8829TIP3   OH247977   3.871   3.434  10.868 -0.3080  0.4339 -0.0091
 8829TIP3    H147978   3.829   3.464  10.787  0.0504 -0.4375 -0.5387
 8829TIP3    H247979   3.954   3.396  10.839  0.3470  1.1256  0.9031
 8830TIP3   OH247980   4.888   2.747  12.723 -0.5021  0.2293  0.3894
 8830TIP3    H147981   4.951   2.692  12.675  1.6959  1.9419  1.1378
 8830TIP3    H247982   4.867   2.817  12.661 -0.9106  0.2068  0.5028
 8831TIP3   OH247983   0.910   5.141  11.907 -0.3870  0.1887  0.5529
 8831TIP3    H147984   0.983   5.151  11.846  0.3004  0.0691  1.3445
 8831TIP3    H247985   0.851   5.079  11.863 -0.7470  1.3940 -0.7445
 8832TIP3   OH247986   3.239   1.630  11.619  0.3804  0.0090 -0.4524
 8832TIP3    H147987   3.251   1.725  11.610  1.6972  0.0280  0.9951
 8832TIP3    H247988   3.222   1.599  11.530  2.1348  1.3511 -1.3127
 8833TIP3   OH247989   1.727   2.439   1.571 -0.1603  0.3779  0.2780
 8833TIP3    H147990   1.788   2.458   1.643  0.2257  1.1245 -0.2296
 8833TIP3    H247991   1.783   2.405   1.501 -0.5509 -0.4520  0.3570
 8834TIP3   OH247992   5.700   1.553  14.727 -0.0605 -0.5516  0.0503
 8834TIP3    H147993   5.648   1.634  14.728  0.9863  0.1403  1.4300
 8834TIP3    H247994   5.693   1.522  14.636 -0.7660  0.8998 -0.4318
 8835TIP3   OH247995   4.073   5.534   0.847  0.4299  0.0668  0.2960
 8835TIP3    H147996   4.163   5.565   0.839  0.7900 -0.0254  3.1087
 8835TIP3    H247997   4.076   5.443   0.816  1.1287  0.2857 -0.2923
 8836TIP3   OH247998   6.241   4.844  13.070 -0.0651  0.3213 -0.0774
 8836TIP3    H147999   6.181   4.880  13.004 -0.3017  0.5462  0.2575
 8836TIP3    H248000   6.261   4.756  13.039 -2.9266 -0.9416  1.2687
 8837TIP3   OH248001   6.338   1.552  11.854  0.9033  0.0044 -0.5527
 8837TIP3    H148002   6.416   1.503  11.880 -0.1151 -1.6806 -0.5578
 8837TIP3    H248003   6.270   1.521  11.913 -0.0468  0.5760 -1.3359
 8838TIP3   OH248004   1.544   3.752   1.287  0.1752 -0.0609 -0.5940
 8838TIP3    H148005   1.516   3.711   1.369 -0.4260 -1.2696 -1.3689
 8838TIP3    H248006   1.462   3.781   1.245  0.4310  0.0926 -1.0040
 8839TIP3   OH248007   4.647   3.013   2.746 -0.2822  0.1939 -0.5927
 8839TIP3    H148008   4.612   2.968   2.823  0.9929  1.3957  0.7678
 8839TIP3    H248009   4.723   2.961   2.721 -0.0289  0.4272 -0.3172
 8840TIP3   OH248010   1.401   5.647  16.794  0.0879 -0.2849 -0.0600
 8840TIP3    H148011   1.458   5.686  16.861  0.5147 -0.2350 -0.4487
 8840TIP3    H248012   1.357   5.721  16.754  0.4711 -0.2435 -0.4111
 8841TIP3   OH248013   5.370   0.068   4.999 -0.1006 -0.5178  0.2117
 8841TIP3    H148014   5.409   0.045   4.915 -2.0045 -2.4791 -0.2225
 8841TIP3    H248015   5.389  -0.006   5.056  0.0140  0.1879  1.1107
 8842TIP3   OH248016   3.475   3.917  14.694 -0.2202  0.2319 -0.4095
 8842TIP3    H148017   3.563   3.951  14.708  0.1059 -1.0618  0.9134
 8842TIP3    H248018   3.487   3.841  14.637 -0.3364 -0.5789  0.6259
 8843TIP3   OH248019   0.845   5.393   2.693 -0.4354  0.0852  0.0791
 8843TIP3    H148020   0.918   5.391   2.631 -0.7078 -0.0033 -0.2411
 8843TIP3    H248021   0.887   5.392   2.779 -0.0275  0.9344 -0.0931
 8844TIP3   OH248022   1.496   6.786  14.818 -0.3202 -0.7395  0.0326
 8844TIP3    H148023   1.506   6.700  14.778 -0.6021 -0.0668 -1.5579
 8844TIP3    H248024   1.405   6.809  14.803  0.0668  0.3726 -0.7400
 8845TIP3   OH248025   2.525   6.246  11.675  0.7546  0.1377  0.4214
 8845TIP3    H148026   2.530   6.307  11.748  0.3301  0.8229 -0.1147
 8845TIP3    H248027   2.436   6.255  11.642 -0.2178 -2.6491  1.9301
 8846TIP3   OH248028   2.366   3.505  12.070 -0.2382 -0.0068 -0.0431
 8846TIP3    H148029   2.375   3.451  11.991 -1.4074 -0.7224  0.2852
 8846TIP3    H248030   2.455   3.534  12.090  0.2747 -0.9971 -0.7998
 8847TIP3   OH248031   4.211   3.788  12.583  0.2494 -0.4703 -0.1700
 8847TIP3    H148032   4.180   3.754  12.499 -2.0454 -1.9919  1.1897
 8847TIP3    H248033   4.307   3.785  12.577  0.1226 -2.0194 -2.1497
 8848TIP3   OH248034   3.923   1.545  16.142 -0.3618 -1.0402 -0.9003
 8848TIP3    H148035   3.997   1.485  16.154  0.6512 -0.0946 -2.2507
 8848TIP3    H248036   3.850   1.501  16.187  0.6107 -2.7531 -0.9081
 8849TIP3   OH248037   5.340   0.128  13.256 -0.0427  0.0966 -0.5709
 8849TIP3    H148038   5.430   0.129  13.288  0.2030  1.5646 -1.2407
 8849TIP3    H248039   5.326   0.215  13.218 -2.5057  0.7439  1.5489
 8850TIP3   OH248040   4.419   0.697  11.825  0.3995  0.6261 -0.4884
 8850TIP3    H148041   4.511   0.686  11.800  0.2806  0.7437 -0.9839
 8850TIP3    H248042   4.372   0.635  11.769  0.3179 -0.4842  0.7660
 8851TIP3   OH248043   1.239   4.536   3.672 -0.3127 -0.3626 -0.1978
 8851TIP3    H148044   1.212   4.446   3.692 -0.0783 -0.6696 -1.2136
 8851TIP3    H248045   1.229   4.583   3.755 -2.7176 -0.7515 -0.2013
 8852TIP3   OH248046   0.702   1.367  16.677  0.2793  0.3048 -0.0875
 8852TIP3    H148047   0.759   1.312  16.623 -1.1938 -0.2774 -1.1153
 8852TIP3    H248048   0.701   1.323  16.762 -0.9041 -1.3385 -0.9068
 8853TIP3   OH248049   0.882   3.733   2.713  0.1144  0.2707  0.7562
 8853TIP3    H148050   0.868   3.825   2.736 -1.2303 -0.1167  1.5742
 8853TIP3    H248051   0.800   3.689   2.736  0.3776 -0.9708 -0.5449
 8854TIP3   OH248052   6.499   6.731  14.760 -0.3732  0.3104 -0.3624
 8854TIP3    H148053   6.499   6.658  14.822 -0.4931  0.0891 -0.6214
 8854TIP3    H248054   6.410   6.732  14.724 -0.5045  0.8600 -0.0406
 8855TIP3   OH248055   1.324   2.883  15.900  0.2138 -0.0870  0.0027
 8855TIP3    H148056   1.234   2.896  15.869 -0.0017  0.3189  0.7922
 8855TIP3    H248057   1.345   2.962  15.948  0.9730 -0.2183 -0.1039
 8856TIP3   OH248058   4.960   1.462  14.721  0.2235  0.8928  0.0726
 8856TIP3    H148059   4.874   1.451  14.762  0.3408  0.9532  0.3411
 8856TIP3    H248060   5.015   1.497  14.791  0.6281  0.2445  0.0925
 8857TIP3   OH248061   4.139   5.752  11.609 -0.1125 -0.0509 -0.4546
 8857TIP3    H148062   4.222   5.710  11.628 -1.2011 -1.1901  2.3189
 8857TIP3    H248063   4.159   5.845  11.601  1.5640 -0.4461 -1.2696
 8858TIP3   OH248064   3.634   2.389   0.966 -0.1894 -0.0862 -0.0021
 8858TIP3    H148065   3.710   2.385   0.908 -2.3459 -0.1997 -3.0700
 8858TIP3    H248066   3.647   2.469   1.017  0.6763  1.5001 -2.4967
 8859TIP3   OH248067   3.055   5.637  13.825 -0.4631 -0.3259  0.1621
 8859TIP3    H148068   3.027   5.725  13.853  1.2563  0.6068 -0.8532
 8859TIP3    H248069   3.057   5.586  13.906  1.9717  1.5892  1.4551
 8860TIP3   OH248070   5.490   5.397  12.199 -0.4463 -0.2719 -0.2543
 8860TIP3    H148071   5.535   5.313  12.187  0.0447 -0.2741  1.4027
 8860TIP3    H248072   5.403   5.382  12.161  0.1206 -1.0374 -1.3196
 8861TIP3   OH248073   2.440   2.666  16.044  0.7107  0.0127  0.6392
 8861TIP3    H148074   2.475   2.690  15.958  0.8347 -3.6680 -0.5265
 8861TIP3    H248075   2.346   2.686  16.038  0.6770 -0.3723 -0.4968
 8862TIP3   OH248076   1.539   5.384  14.946  0.0400 -0.2827 -0.1007
 8862TIP3    H148077   1.583   5.365  15.029  0.0319 -0.0040 -0.0321
 8862TIP3    H248078   1.609   5.415  14.889  0.0490 -0.4963 -0.2028
 8863TIP3   OH248079   6.526   4.071  14.201  0.1298  0.3648 -0.4922
 8863TIP3    H148080   6.551   4.139  14.264 -0.0880  0.8278 -0.8935
 8863TIP3    H248081   6.494   3.999  14.255  0.9029  0.3580 -0.0374
 8864TIP3   OH248082   3.118   1.440  14.314 -0.1172 -0.4321 -0.1588
 8864TIP3    H148083   3.109   1.444  14.409 -0.4955  3.1478 -0.1997
 8864TIP3    H248084   3.042   1.487  14.281  2.4399  2.8558 -1.9134
 8865TIP3   OH248085   2.743   1.181   0.986 -0.5109  0.5513 -0.6119
 8865TIP3    H148086   2.688   1.133   1.048  0.2005  0.0435 -0.3543
 8865TIP3    H248087   2.731   1.136   0.902  1.9537 -1.6619  0.0953
 8866TIP3   OH248088   2.193   0.192  11.506 -0.8155 -0.5216 -0.0208
 8866TIP3    H148089   2.212   0.109  11.462 -1.4580 -0.9529  0.5133
 8866TIP3    H248090   2.219   0.259  11.442 -0.0019 -1.1227 -0.3306
 8867TIP3   OH248091   2.528   5.374   3.736 -0.1672  0.6384 -0.1871
 8867TIP3    H148092   2.573   5.404   3.657  0.0018  0.8111 -0.0247
 8867TIP3    H248093   2.593   5.322   3.783 -0.7536 -0.8650 -0.9618
 8868TIP3   OH248094   6.171   5.930   0.495 -0.6990  0.4385  0.0155
 8868TIP3    H148095   6.207   6.003   0.445  1.1122 -0.3975  0.0409
 8868TIP3    H248096   6.206   5.852   0.452 -1.1357 -0.3690  1.0816
 8869TIP3   OH248097   6.338   4.519  10.563  0.0656  0.1409  0.0311
 8869TIP3    H148098   6.305   4.511  10.474  0.2864 -0.7998  0.0226
 8869TIP3    H248099   6.387   4.601  10.563  0.7212 -0.2317 -0.9327
 8870TIP3   OH248100   2.680   2.319   4.254 -0.3669 -0.6666 -0.1205
 8870TIP3    H148101   2.623   2.295   4.181 -1.5191 -1.1464  0.9136
 8870TIP3    H248102   2.640   2.278   4.331 -1.0099  2.3850  1.3350
 8871TIP3   OH248103   5.775   3.991  10.260 -0.0172 -0.3766 -0.2632
 8871TIP3    H148104   5.858   3.944  10.271  0.0016 -0.1021  0.8283
 8871TIP3    H248105   5.718   3.929  10.214  1.0772 -0.2313 -1.9092
 8872TIP3   OH248106   6.330   2.326   6.639  0.0149 -0.2477 -0.4816
 8872TIP3    H148107   6.268   2.398   6.647  1.5425  1.2499 -1.4946
 8872TIP3    H248108   6.415   2.365   6.658  0.7281 -2.1454  0.4697
 8873TIP3   OH248109   3.591   3.684   6.357 -0.3491  0.2557 -0.0829
 8873TIP3    H148110   3.594   3.598   6.316 -1.8373  0.0290  0.2280
 8873TIP3    H248111   3.659   3.681   6.424  0.8047 -0.0381 -1.2306
 8874TIP3   OH248112   0.442   4.432  15.025 -0.0129  0.1223  0.6073
 8874TIP3    H148113   0.467   4.377  14.951 -0.4182  1.7687 -0.8218
 8874TIP3    H248114   0.472   4.384  15.102 -0.8190 -2.3080 -0.5117
 8875TIP3   OH248115   3.010   2.753  14.414 -0.2203  0.2931  0.2282
 8875TIP3    H148116   3.084   2.692  14.403 -1.8382 -1.7698  0.2393
 8875TIP3    H248117   2.995   2.787  14.326 -0.1547 -0.3869 -0.0537
 8876TIP3   OH248118   6.608   2.763   3.126  0.5273  0.0513 -0.1156
 8876TIP3    H148119   6.529   2.782   3.177 -0.1535  1.3997 -1.5906
 8876TIP3    H248120   6.591   2.678   3.085 -0.7896  0.9120 -1.4692
 8877TIP3   OH248121   5.748   4.359   1.225 -0.2426 -0.5960  0.2252
 8877TIP3    H148122   5.703   4.336   1.143 -1.7731 -0.3015  0.9458
 8877TIP3    H248123   5.837   4.381   1.198 -1.0917  0.8911 -1.5616
 8878TIP3   OH248124   6.728   1.366   0.732 -0.1609  0.1351 -0.3115
 8878TIP3    H148125   6.766   1.448   0.763  2.3247 -1.2426  0.6121
 8878TIP3    H248126   6.702   1.384   0.642 -3.1220  2.8923  0.9125
 8879TIP3   OH248127   2.781   6.702   5.459  0.2529  0.6954  0.2945
 8879TIP3    H148128   2.868   6.668   5.437  0.1200 -1.3760  2.5009
 8879TIP3    H248129   2.799   6.778   5.514  0.7070  0.1277  0.9549
 8880TIP3   OH248130   5.629   1.999   0.093  0.5650  0.2388 -0.2589
 8880TIP3    H148131   5.655   1.955   0.174 -0.4480  1.7757  0.9657
 8880TIP3    H248132   5.543   2.035   0.112  0.2036  0.4586 -2.1192
 8881TIP3   OH248133   3.439   5.058   2.614 -0.0727  0.5248  0.1314
 8881TIP3    H148134   3.434   5.140   2.663  2.5253  0.6803  0.2622
 8881TIP3    H248135   3.361   5.058   2.558 -0.4317  2.7901  0.5530
 8882TIP3   OH248136   3.003   4.385  11.050  0.4794  0.1370 -0.5899
 8882TIP3    H148137   3.049   4.359  10.970  0.3229 -0.8694 -0.3677
 8882TIP3    H248138   3.028   4.319  11.115 -0.2170  0.3398 -0.0980
 8883TIP3   OH248139   3.025   1.848   1.413 -0.7983 -0.3102 -0.4394
 8883TIP3    H148140   2.961   1.785   1.378 -0.5571 -0.1829 -1.1015
 8883TIP3    H248141   3.077   1.796   1.474  0.5407 -1.2176 -2.2591
 8884TIP3   OH248142   0.237   3.857  13.637 -0.4142 -0.3189  0.2199
 8884TIP3    H148143   0.325   3.891  13.655 -1.0206  1.9034 -0.6575
 8884TIP3    H248144   0.252   3.768  13.607  1.6914  0.4405 -1.2202
 8885TIP3   OH248145   2.587   6.144  12.186  0.0853 -0.4443 -0.0514
 8885TIP3    H148146   2.627   6.106  12.264 -0.5865 -0.0254  0.5088
 8885TIP3    H248147   2.641   6.220  12.166 -0.5901  0.3217  0.9057
 8886TIP3   OH248148   6.071   4.257  12.756  0.5233 -0.0203  0.1687
 8886TIP3    H148149   6.093   4.166  12.775  0.8954  0.1482  0.5553
 8886TIP3    H248150   5.994   4.251  12.699 -0.3981 -0.5406  1.4203
 8887TIP3   OH248151   5.402   3.694  14.814  0.1667 -0.1012 -0.0753
 8887TIP3    H148152   5.472   3.718  14.753  1.0412  0.6071  1.1724
 8887TIP3    H248153   5.344   3.769  14.815  0.0614 -0.1804 -0.1388
 8888TIP3   OH248154   2.898   4.585   2.546 -0.0936 -0.1778  0.0746
 8888TIP3    H148155   2.921   4.506   2.497  0.4025 -0.0545  0.0978
 8888TIP3    H248156   2.812   4.566   2.584 -0.2742 -0.4447 -0.4680
 8889TIP3   OH248157   3.019   5.616   4.121 -0.1651 -0.7462  0.3646
 8889TIP3    H148158   2.958   5.556   4.164  0.6387 -1.6544  0.2699
 8889TIP3    H248159   3.106   5.581   4.142  0.2912 -0.1149 -0.4214
 8890TIP3   OH248160   4.807   2.855   2.583 -0.7977  0.4401 -0.2868
 8890TIP3    H148161   4.861   2.779   2.560 -1.7304 -0.2823 -0.1778
 8890TIP3    H248162   4.799   2.904   2.502 -0.5022  0.2132 -0.4559
 8891TIP3   OH248163   6.089   0.749   5.189 -0.1705  0.3462 -0.0882
 8891TIP3    H148164   6.044   0.778   5.109 -0.1431  0.9494  0.1073
 8891TIP3    H248165   6.024   0.762   5.259 -0.1500 -0.0512  0.0040
 8892TIP3   OH248166   6.157   5.615   2.441 -0.1223  0.4821  0.1301
 8892TIP3    H148167   6.064   5.630   2.460 -0.2906  1.1798 -1.0923
 8892TIP3    H248168   6.168   5.647   2.351  0.9109 -1.2236 -0.4058
 8893TIP3   OH248169   5.391   5.219   1.046  0.0742 -0.2389 -0.0837
 8893TIP3    H148170   5.486   5.220   1.042  0.0570  0.8570 -0.7304
 8893TIP3    H248171   5.368   5.128   1.060  1.2063 -0.5689 -0.2950
 8894TIP3   OH248172   5.099   4.284  14.715  0.5040  0.1412  0.2587
 8894TIP3    H148173   5.053   4.364  14.740  0.8253  0.3019  0.3361
 8894TIP3    H248174   5.177   4.314  14.668  0.2937 -0.1384 -0.2822
 8895TIP3   OH248175   4.435   3.469  16.015  0.1115 -0.6215 -0.1891
 8895TIP3    H148176   4.507   3.425  15.969  0.7221  0.5321 -0.3735
 8895TIP3    H248177   4.441   3.560  15.987 -1.3757 -0.4756 -0.1324
 8896TIP3   OH248178   2.179   3.957  12.786  0.0646 -0.1997  0.3194
 8896TIP3    H148179   2.158   4.023  12.720  1.6226 -0.3968 -0.4273
 8896TIP3    H248180   2.175   4.004  12.870 -0.3050  0.4644 -0.0639
 8897TIP3   OH248181   1.109   0.810  12.837 -0.0793 -0.1752  0.3238
 8897TIP3    H148182   1.062   0.777  12.914 -2.5632  1.4534 -0.3493
 8897TIP3    H248183   1.117   0.734  12.779 -2.0043 -0.5664  0.4885
 8898TIP3   OH248184   4.508   5.070   0.737 -0.4100 -0.0164  0.4272
 8898TIP3    H148185   4.519   5.086   0.830  1.7887  0.0037  0.2133
 8898TIP3    H248186   4.518   4.975   0.727 -2.3920 -0.2624  0.3756
 8899TIP3   OH248187   0.984   5.015  13.290  0.4155  0.2361  0.3865
 8899TIP3    H148188   1.078   5.018  13.303  0.3608  3.0449  0.7560
 8899TIP3    H248189   0.969   5.064  13.209 -0.8062  1.8014  1.4716
 8900TIP3   OH248190   0.015   0.204  16.260 -0.2410 -0.6274  0.7690
 8900TIP3    H148191  -0.045   0.255  16.314 -0.4671 -1.4844  1.3415
 8900TIP3    H248192  -0.041   0.169  16.190  0.2766  1.5480 -0.8530
 8901TIP3   OH248193   5.292   0.379  15.466  0.0615  0.3197 -0.9890
 8901TIP3    H148194   5.327   0.295  15.495  0.9584 -0.1965 -3.4318
 8901TIP3    H248195   5.367   0.438  15.464 -0.3018  0.8088 -0.7024
 8902TIP3   OH248196   3.990   0.747  15.082  0.3261 -0.4973  0.3624
 8902TIP3    H148197   4.013   0.814  15.146  0.0208 -1.3060  1.3448
 8902TIP3    H248198   4.071   0.730  15.034  0.3960  0.5814  0.0901
 8903TIP3   OH248199   4.577   3.344   5.301 -0.0299  0.4562  0.1154
 8903TIP3    H148200   4.528   3.416   5.340  0.5411  1.0889 -0.3181
 8903TIP3    H248201   4.645   3.324   5.365 -0.6867 -0.2745  0.6155
 8904TIP3   OH248202   4.961   2.159   1.337 -0.7069 -0.7368 -0.1054
 8904TIP3    H148203   4.928   2.077   1.373  1.2323 -1.2246  0.7168
 8904TIP3    H248204   5.051   2.140   1.311 -0.6271  0.7954 -1.1319
 8905TIP3   OH248205   0.290   3.716   3.454  0.0389 -0.5516  0.1914
 8905TIP3    H148206   0.212   3.687   3.501 -0.5187 -0.3826 -0.6005
 8905TIP3    H248207   0.262   3.794   3.405  1.0750  0.3595  0.9835
 8906TIP3   OH248208   3.729   1.647   0.519 -0.7577  0.5175  0.0807
 8906TIP3    H148209   3.776   1.672   0.598  2.6215 -0.3924 -1.4857
 8906TIP3    H248210   3.761   1.559   0.498 -2.7703  0.0744 -1.4611
 8907TIP3   OH248211   2.392   3.465  16.604 -0.1035 -0.3288  0.1702
 8907TIP3    H148212   2.457   3.411  16.650 -0.8746 -1.1002  0.3854
 8907TIP3    H248213   2.335   3.498  16.673  0.0107  0.2950 -0.0249
 8908TIP3   OH248214   3.394   4.979   3.044  0.1450 -0.3943 -0.3130
 8908TIP3    H148215   3.329   5.024   3.098  0.9693  0.6581 -0.1578
 8908TIP3    H248216   3.474   4.982   3.096  0.4212 -1.3235 -0.6694
 8909TIP3   OH248217   4.932   5.508   2.833 -0.4213  0.8992  0.0073
 8909TIP3    H148218   4.906   5.496   2.742  2.1865 -0.0915 -0.6863
 8909TIP3    H248219   4.864   5.465   2.884 -2.1921  1.9120 -1.3970
 8910TIP3   OH248220   4.240   2.865   0.342 -0.0451 -0.3657  0.2385
 8910TIP3    H148221   4.269   2.858   0.251  2.1599  0.9462  0.7626
 8910TIP3    H248222   4.282   2.791   0.386 -1.9223 -1.5933  0.0577
 8911TIP3   OH248223   2.217   5.014   2.703 -0.4932  0.3123  0.2653
 8911TIP3    H148224   2.181   4.925   2.696  0.0939  0.1059 -0.1777
 8911TIP3    H248225   2.222   5.030   2.798  0.0899 -0.4108  0.3638
 8912TIP3   OH248226   4.134   1.064   5.761  0.3682 -0.8890  0.6206
 8912TIP3    H148227   4.210   1.051   5.819  0.7129 -2.4514 -0.1304
 8912TIP3    H248228   4.077   0.990   5.780  0.1497 -1.0240 -0.5110
 8913TIP3   OH248229   4.031   6.205  11.867 -0.5494  0.0328  0.2509
 8913TIP3    H148230   4.055   6.297  11.865 -1.3264  0.3349  2.2683
 8913TIP3    H248231   4.059   6.171  11.782 -0.1940  2.0948 -0.5193
 8914TIP3   OH248232   6.181   3.884   5.321 -0.0180  0.2864 -0.1097
 8914TIP3    H148233   6.205   3.831   5.245 -0.1328 -1.2665  0.8797
 8914TIP3    H248234   6.088   3.865   5.334  0.0431  0.4031  0.5030
 8915TIP3   OH248235   3.230   3.035   4.841 -0.3602 -0.0883  0.2593
 8915TIP3    H148236   3.158   3.015   4.780 -1.0047  0.1809  0.9176
 8915TIP3    H248237   3.194   3.016   4.928  0.6614 -0.8070  0.5490
 8916TIP3   OH248238   0.061   2.580  13.941  0.4228  0.5681  0.1973
 8916TIP3    H148239   0.051   2.604  14.033  3.5876 -0.5947  0.9943
 8916TIP3    H248240   0.021   2.652  13.893  0.2482  2.1065  2.4730
 8917TIP3   OH248241   6.195   6.800  11.760 -0.2141 -0.2141  0.3528
 8917TIP3    H148242   6.228   6.868  11.702 -1.1558 -1.0450 -1.2155
 8917TIP3    H248243   6.247   6.723  11.739 -0.6148 -0.5470  0.5730
 8918TIP3   OH248244   0.062   1.239   5.612 -0.3694  0.6568  0.0074
 8918TIP3    H148245   0.152   1.248   5.581  0.1228  1.2177  1.4929
 8918TIP3    H248246   0.068   1.247   5.707 -1.4379 -3.4853  0.6504
 8919TIP3   OH248247   4.666   1.409  16.877  0.3816 -0.3256  0.4534
 8919TIP3    H148248   4.742   1.351  16.875  0.6807  0.0802 -0.8067
 8919TIP3    H248249   4.682   1.467  16.952  1.2510 -0.3427  0.2950
 8920TIP3   OH248250   1.751   2.030   3.785 -0.0985  0.1243 -0.2452
 8920TIP3    H148251   1.806   1.953   3.801  0.1921  0.7914  2.3999
 8920TIP3    H248252   1.812   2.104   3.784 -0.4435  0.4592 -2.1945
 8921TIP3   OH248253   1.964   3.271  11.400  0.2342  0.5240  0.7934
 8921TIP3    H148254   1.982   3.359  11.434  2.9862 -0.1435  1.3406
 8921TIP3    H248255   1.965   3.282  11.305 -0.2107  1.2180  0.8611
 8922TIP3   OH248256   1.399   6.451  15.292 -0.0681 -0.3637  0.1716
 8922TIP3    H148257   1.494   6.444  15.299 -0.2763 -1.9410  2.1654
 8922TIP3    H248258   1.370   6.478  15.378 -1.5275 -1.3640  0.0309
 8923TIP3   OH248259   4.676   0.048   0.905  0.2242 -0.2336 -0.3043
 8923TIP3    H148260   4.589   0.018   0.880  0.8910 -0.8400 -2.0637
 8923TIP3    H248261   4.711  -0.022   0.961 -0.4299  0.0643  0.4984
 8924TIP3   OH248262   4.473   1.686   1.699  0.3494 -0.5149  0.3827
 8924TIP3    H148263   4.541   1.724   1.642 -0.6025 -0.5236 -0.8061
 8924TIP3    H248264   4.399   1.746   1.692 -1.0768 -2.2950 -1.2952
 8925TIP3   OH248265   5.995   3.931   4.186  0.0201  0.7975 -0.0902
 8925TIP3    H148266   6.056   3.968   4.121 -1.2721  0.6065 -1.4542
 8925TIP3    H248267   6.052   3.889   4.250  1.3678  1.3905 -0.8456
 8926TIP3   OH248268   2.604   3.683  12.653 -0.4107  0.8773 -0.0979
 8926TIP3    H148269   2.539   3.681  12.583 -0.5113 -1.5581 -0.0205
 8926TIP3    H248270   2.566   3.740  12.720 -1.8629  0.5351 -0.6046
 8927TIP3   OH248271   5.121   1.145   5.098 -0.2434 -0.0524  0.0304
 8927TIP3    H148272   5.057   1.108   5.159 -0.3815 -0.0760 -0.1270
 8927TIP3    H248273   5.088   1.121   5.012 -1.4113  2.0816 -0.1847
 8928TIP3   OH248274   6.539   2.182  16.213  0.3147 -0.5128  0.0260
 8928TIP3    H148275   6.474   2.172  16.282  0.1096 -0.5375 -0.1708
 8928TIP3    H248276   6.601   2.111  16.228  0.0410 -0.7746 -0.0659
 8929TIP3   OH248277   5.386   1.899  14.906  0.4312  0.1954  0.5639
 8929TIP3    H148278   5.445   1.856  14.845  1.3108  0.9505  0.8561
 8929TIP3    H248279   5.426   1.886  14.992  0.6231  1.4197  0.6767
 8930TIP3   OH248280   5.699   1.437   0.711 -0.1135 -0.0790 -0.5036
 8930TIP3    H148281   5.655   1.404   0.789 -0.2286  0.3506 -0.3798
 8930TIP3    H248282   5.789   1.454   0.739  0.3419 -1.6429 -0.9462
 8931TIP3   OH248283   4.356   5.251   4.678  0.6870 -0.1959 -0.0985
 8931TIP3    H148284   4.351   5.267   4.583 -0.0467 -0.1237 -0.0568
 8931TIP3    H248285   4.412   5.321   4.711  0.4234  0.1655 -0.3973
 8932TIP3   OH248286   2.411   4.857  12.415 -0.3594 -0.6973  0.0152
 8932TIP3    H148287   2.464   4.883  12.340  0.0032 -1.9747 -0.1772
 8932TIP3    H248288   2.471   4.863  12.490 -0.2681 -1.0157 -0.0332
 8933TIP3   OH248289   6.071   5.556  12.499  0.2512 -0.0412  0.0642
 8933TIP3    H148290   6.020   5.522  12.426 -0.5206 -0.5941  0.8352
 8933TIP3    H248291   6.113   5.634  12.465  1.0071 -1.0263 -1.3701
 8934TIP3   OH248292   3.919   3.584  11.419 -0.5448  0.1468  0.1653
 8934TIP3    H148293   3.884   3.586  11.330  1.0765 -0.6864 -0.5364
 8934TIP3    H248294   3.879   3.506  11.458  1.6370 -1.7455 -1.1697
 8935TIP3   OH248295   5.943   2.213  11.779  0.7351  0.0214  0.1528
 8935TIP3    H148296   6.038   2.201  11.781  0.6125 -1.0009  0.3970
 8935TIP3    H248297   5.925   2.274  11.850  1.2550  0.5948 -0.1982
 8936TIP3   OH248298   3.765   2.966  11.775  0.1706  0.2772  0.2065
 8936TIP3    H148299   3.760   3.058  11.748  0.1940  0.1639 -0.1969
 8936TIP3    H248300   3.782   2.918  11.694  0.1022 -0.0897  0.4043
 8937TIP3   OH248301   4.136   3.481   5.973  0.0245  0.3336  0.0466
 8937TIP3    H148302   4.199   3.512   6.038 -0.1738  2.5763 -0.7278
 8937TIP3    H248303   4.061   3.451   6.024  0.8959 -0.4466  0.9049
 8938TIP3   OH248304   0.853   2.305   4.524 -0.3542  0.0935 -0.0946
 8938TIP3    H148305   0.806   2.388   4.530  0.0582  0.3306 -0.0856
 8938TIP3    H248306   0.789   2.239   4.550 -0.5078  0.4711  0.5064
 8939TIP3   OH248307   5.487   2.457   3.537  0.4399  0.0477  0.8748
 8939TIP3    H148308   5.494   2.526   3.603  1.2389 -0.9596  1.8747
 8939TIP3    H248309   5.414   2.484   3.482 -1.5071  0.0307  3.2722
 8940TIP3   OH248310   5.194   3.172  15.435 -0.1599  1.0341  0.0581
 8940TIP3    H148311   5.136   3.123  15.494  1.8597  0.0681  1.3430
 8940TIP3    H248312   5.274   3.187  15.486  0.3693  3.2614 -1.2737
 8941TIP3   OH248313   4.604   5.984   3.365 -0.4636 -0.0812  0.0497
 8941TIP3    H148314   4.670   6.022   3.306 -0.2217 -0.5401  0.0169
 8941TIP3    H248315   4.521   5.999   3.321 -0.2695 -0.5586 -0.4978
 8942TIP3   OH248316   0.472   3.588   5.079 -0.0754  0.4411 -0.2217
 8942TIP3    H148317   0.532   3.570   5.152  0.7225 -3.1250 -1.5498
 8942TIP3    H248318   0.398   3.529   5.095 -0.2792  0.2370 -1.7911
 8943TIP3   OH248319   2.627   5.844   4.351  0.1396 -0.6855  0.6281
 8943TIP3    H148320   2.590   5.917   4.301  0.0913 -1.6653 -0.8054
 8943TIP3    H248321   2.557   5.779   4.353  0.6431 -1.2274  0.7587
 8944TIP3   OH248322   5.103   6.403   0.827  0.8263 -0.4817  0.5343
 8944TIP3    H148323   5.163   6.368   0.893 -0.8650 -1.2843  1.7413
 8944TIP3    H248324   5.035   6.447   0.877  0.0316 -0.1952 -0.7415
 8945TIP3   OH248325   0.749   2.696  11.108 -0.2675 -0.4207 -0.1842
 8945TIP3    H148326   0.701   2.640  11.046  0.2027 -0.8657 -0.1550
 8945TIP3    H248327   0.756   2.780  11.063 -0.2863 -0.6195 -0.5711
 8946TIP3   OH248328   3.798   1.670   1.154  0.6062  0.3584 -0.5755
 8946TIP3    H148329   3.837   1.622   1.080  0.6428 -0.9491  0.2502
 8946TIP3    H248330   3.866   1.730   1.183  0.5821  0.9001 -1.6079
 8947TIP3   OH248331   4.346   5.048   4.392  0.1668  0.3301 -0.2082
 8947TIP3    H148332   4.391   5.031   4.475 -1.0137  3.1384  1.1470
 8947TIP3    H248333   4.269   4.992   4.395 -0.0575  0.6631  0.8124
 8948TIP3   OH248334   2.505   6.733   0.068  0.2012 -0.4763 -0.3863
 8948TIP3    H148335   2.411   6.727   0.052  0.3631  1.0372 -2.2072
 8948TIP3    H248336   2.512   6.769   0.156 -0.9877  1.3796 -1.0074
 8949TIP3   OH248337   1.693   2.349   4.450  0.9487  0.1076 -0.0966
 8949TIP3    H148338   1.646   2.267   4.433  0.9186 -0.2956  1.7458
 8949TIP3    H248339   1.753   2.357   4.376  2.1766 -2.4820  0.5055
 8950TIP3   OH248340   6.073   3.556  16.365  0.0180 -0.0713 -0.4539
 8950TIP3    H148341   6.106   3.610  16.294 -0.8180 -0.1795 -0.9394
 8950TIP3    H248342   6.139   3.563  16.434  0.1866  1.1235 -0.7223
 8951TIP3   OH248343   5.600   2.644   3.754  0.1920 -0.0069 -0.3231
 8951TIP3    H148344   5.532   2.701   3.791  2.3650  2.5234  0.0432
 8951TIP3    H248345   5.645   2.608   3.830 -1.3934 -2.7121 -0.5408
 8952TIP3   OH248346   2.011   2.445   2.852  0.6056 -0.0354 -0.0502
 8952TIP3    H148347   2.026   2.516   2.915  0.8495  0.6813 -0.9007
 8952TIP3    H248348   2.095   2.434   2.808  0.6670 -1.0925  0.2922
 8953TIP3   OH248349   5.668   1.691  16.206  0.1159  0.2595  0.1232
 8953TIP3    H148350   5.601   1.730  16.263 -1.3878 -1.1621 -0.5721
 8953TIP3    H248351   5.735   1.659  16.266 -1.4623 -1.2748  1.1984
 8954TIP3   OH248352   3.316   2.549  15.046  0.2747 -0.3328 -0.3613
 8954TIP3    H148353   3.397   2.590  15.016  0.0377  0.1472 -0.3479
 8954TIP3    H248354   3.299   2.480  14.982  0.1427  0.2338 -0.9408
 8955TIP3   OH248355   2.034   3.914   0.605 -0.1044 -0.3610 -0.9024
 8955TIP3    H148356   1.984   3.923   0.524 -0.4561  1.2657 -0.5479
 8955TIP3    H248357   2.088   3.993   0.608 -0.8588  0.1240  0.9431
 8956TIP3   OH248358   3.118   4.150  14.507  0.1089  0.1460 -0.1902
 8956TIP3    H148359   3.162   4.129  14.589 -0.6882 -0.4731  0.0949
 8956TIP3    H248360   3.025   4.148  14.528 -0.0894  0.7747 -0.9289
 8957TIP3   OH248361   2.315   3.536   3.243  0.6353 -0.0639 -0.6357
 8957TIP3    H148362   2.409   3.546   3.256  0.6968 -1.8308  0.5784
 8957TIP3    H248363   2.276   3.594   3.309  0.8918 -0.5157 -0.0810
 8958TIP3   OH248364   3.536   5.132  15.116 -0.2912  0.3334 -0.3863
 8958TIP3    H148365   3.618   5.081  15.116  0.4511  1.3969  1.9945
 8958TIP3    H248366   3.532   5.169  15.028  0.8820 -1.1086 -1.1067
 8959TIP3   OH248367   2.864   0.112  11.090  0.2875  0.5375 -0.2794
 8959TIP3    H148368   2.915   0.095  11.011 -0.1846 -0.5989 -0.3529
 8959TIP3    H248369   2.906   0.058  11.158 -0.5852 -0.1436 -0.2610
 8960TIP3   OH248370   5.496   4.621   3.721  0.8750 -0.1166 -0.2341
 8960TIP3    H148371   5.518   4.561   3.792  0.7460  1.0176  0.8162
 8960TIP3    H248372   5.489   4.566   3.643  0.0174 -1.5504  0.8189
 8961TIP3   OH248373   6.668   2.839   2.689 -0.3332 -0.1536  0.1014
 8961TIP3    H148374   6.730   2.907   2.663  1.8222 -0.8234  3.0139
 8961TIP3    H248375   6.711   2.757   2.665 -0.8248 -0.5923  0.6894
 8962TIP3   OH248376   0.205   2.418  10.776 -0.6541 -0.1597 -0.0172
 8962TIP3    H148377   0.212   2.462  10.692 -0.2428  1.8302  1.0025
 8962TIP3    H248378   0.293   2.384  10.793 -1.0989 -1.9981 -1.0599
 8963TIP3   OH248379   6.142   5.907  13.330  0.2655 -0.8933  0.2204
 8963TIP3    H148380   6.176   5.821  13.354  2.7152 -0.5169 -1.4941
 8963TIP3    H248381   6.110   5.895  13.240  1.1398  0.0616 -0.2370
 8964TIP3   OH248382   6.568   3.977   1.657 -0.3452 -0.3072  0.1024
 8964TIP3    H148383   6.652   3.959   1.699 -0.0386 -3.1294 -1.4521
 8964TIP3    H248384   6.585   4.054   1.602  1.8288 -1.8300 -1.5490
 8965TIP3   OH248385   2.308   2.538  11.965  0.4005  0.5859 -0.0552
 8965TIP3    H148386   2.316   2.600  12.038  0.1390  0.4062  0.1304
 8965TIP3    H248387   2.226   2.561  11.923 -0.2201 -0.2891  0.6451
 8966TIP3   OH248388   6.266   6.422   4.542  0.3234  0.2021  0.0813
 8966TIP3    H148389   6.241   6.330   4.539  2.0487 -0.2842 -1.0959
 8966TIP3    H248390   6.258   6.447   4.634 -0.7386 -0.9469  0.3110
 8967TIP3   OH248391   0.210   3.203  11.063 -0.0933 -0.0276  0.2626
 8967TIP3    H148392   0.140   3.139  11.075  0.5553 -0.8847 -0.4037
 8967TIP3    H248393   0.204   3.260  11.140 -1.0585 -0.5167  0.5687
 8968TIP3   OH248394   0.715   3.803  15.596  0.5699  0.3253  0.2055
 8968TIP3    H148395   0.668   3.840  15.671  0.6029  1.8241 -0.4927
 8968TIP3    H248396   0.784   3.749  15.636 -0.1125  0.1835  1.2374
 8969TIP3   OH248397   3.491   1.638  12.996 -0.4020 -0.8676 -0.6158
 8969TIP3    H148398   3.426   1.698  13.033 -0.4751 -0.4148 -1.4472
 8969TIP3    H248399   3.571   1.690  12.991 -0.4826 -0.8046 -1.3977
 8970TIP3   OH248400   6.224   0.224   2.384  0.3077  0.3417  0.3962
 8970TIP3    H148401   6.163   0.297   2.380 -0.4592 -0.3249 -0.9160
 8970TIP3    H248402   6.279   0.242   2.460 -1.3223  1.1096  1.4316
 8971TIP3   OH248403   0.072   3.997  12.063  0.3616 -0.0659 -0.3357
 8971TIP3    H148404   0.129   4.039  11.999 -1.7672  3.6301 -0.0810
 8971TIP3    H248405   0.128   3.982  12.140  1.6151  0.7207 -1.0688
 8972TIP3   OH248406   1.404   6.142  14.425  0.1183 -0.2650  0.2964
 8972TIP3    H148407   1.478   6.141  14.365 -0.5244  0.4568 -0.5413
 8972TIP3    H248408   1.333   6.100  14.376 -0.1911 -0.4309  0.8759
 8973TIP3   OH248409   5.700   4.187   1.989 -0.1394 -0.0464 -0.2486
 8973TIP3    H148410   5.773   4.204   2.049 -0.8854  0.5863  0.5081
 8973TIP3    H248411   5.687   4.092   1.992 -0.5600  0.0294  1.0989
 8974TIP3   OH248412   1.369   0.077  14.252  0.5775 -0.1568  0.0027
 8974TIP3    H148413   1.456   0.112  14.273 -0.0134  1.3354  0.1149
 8974TIP3    H248414   1.327   0.147  14.201  0.4330 -1.9620 -2.5112
 8975TIP3   OH248415   2.305   3.684  11.373  0.9943 -0.6439  0.4717
 8975TIP3    H148416   2.299   3.702  11.279 -0.5409 -0.0326  0.6551
 8975TIP3    H248417   2.261   3.758  11.414  0.9798 -1.2826  1.6401
 8976TIP3   OH248418   0.119   2.032  11.258 -0.0515 -0.2761 -0.3928
 8976TIP3    H148419   0.149   1.943  11.242  0.1178 -0.0978 -1.1268
 8976TIP3    H248420   0.189   2.088  11.224  0.7469  0.1549  1.8374
 8977TIP3   OH248421   1.594   5.197  15.290  0.2689 -0.1272 -0.2129
 8977TIP3    H148422   1.617   5.113  15.248 -1.5844 -0.7247 -0.1202
 8977TIP3    H248423   1.642   5.196  15.373 -0.8254 -1.8208  0.4693
 8978TIP3   OH248424   0.960   2.266   1.002  0.0588  0.1159  0.1363
 8978TIP3    H148425   0.883   2.226   0.961 -0.6042  1.4856 -0.0302
 8978TIP3    H248426   0.959   2.233   1.092 -2.0241  1.7364  0.7954
 8979TIP3   OH248427   5.635   3.589  13.540 -0.1572  0.1611  0.3073
 8979TIP3    H148428   5.574   3.534  13.491 -0.8970  1.7606 -0.6260
 8979TIP3    H248429   5.582   3.632  13.607  0.4747 -0.4538  1.2356
 8980TIP3   OH248430   3.229   4.811   2.314  0.2232 -0.0317  0.7925
 8980TIP3    H148431   3.148   4.760   2.324 -0.6597  1.4949  1.8183
 8980TIP3    H248432   3.259   4.792   2.226 -1.3121 -0.5622  0.3587
 8981TIP3   OH248433   2.076   5.608   0.352 -0.3097 -0.2193  0.4288
 8981TIP3    H148434   1.999   5.661   0.332  0.6849  1.6844  1.4626
 8981TIP3    H248435   2.072   5.595   0.446  0.4389 -0.4390  0.4317
 8982TIP3   OH248436   2.876   3.008   5.191  0.2710 -0.2635 -0.1141
 8982TIP3    H148437   2.810   2.998   5.123 -1.2056  1.2876  1.0043
 8982TIP3    H248438   2.959   2.994   5.146 -0.5649  1.7351 -2.5077
 8983TIP3   OH248439   2.850   2.121  10.943 -0.0704 -0.3718 -0.5507
 8983TIP3    H148440   2.911   2.156  10.878 -0.2116 -0.6164 -0.8179
 8983TIP3    H248441   2.890   2.142  11.028  0.4083 -0.5811 -0.7247
 8984TIP3   OH248442   2.373   3.863  13.628  0.4824  1.0504 -0.1544
 8984TIP3    H148443   2.424   3.944  13.628  0.2364  1.2713 -2.7728
 8984TIP3    H248444   2.363   3.840  13.536 -1.5997 -0.6141  0.3990
 8985TIP3   OH248445   1.971   0.645  12.701 -0.6738  0.1018 -0.0988
 8985TIP3    H148446   2.047   0.684  12.745 -1.0102  1.1214 -0.3959
 8985TIP3    H248447   2.004   0.564  12.663  0.4099  0.8167 -0.7081
 8986TIP3   OH248448   6.062   1.233   3.245 -0.5289 -0.0092 -0.6531
 8986TIP3    H148449   6.044   1.146   3.280 -0.0387 -0.1212 -0.6805
 8986TIP3    H248450   6.087   1.285   3.321 -0.2930 -0.0324 -0.7146
 8987TIP3   OH248451   2.122   1.648   0.745 -0.3287 -0.1935  0.1865
 8987TIP3    H148452   2.053   1.667   0.808  0.6409  0.8212  1.0022
 8987TIP3    H248453   2.161   1.566   0.775  1.5998  1.3728  2.3620
 8988TIP3   OH248454   2.307   0.427   3.589 -0.5970  0.0896  0.3864
 8988TIP3    H148455   2.220   0.444   3.624 -1.1218 -1.4860 -0.1078
 8988TIP3    H248456   2.326   0.503   3.534 -1.6972  0.3965  0.4194
 8989TIP3   OH248457   6.376   0.668   2.556 -0.4461 -0.1003 -0.1933
 8989TIP3    H148458   6.334   0.613   2.490 -0.2323 -0.8453  0.2806
 8989TIP3    H248459   6.422   0.735   2.506  1.0386 -1.5874 -0.9035
 8990TIP3   OH248460   1.901   4.041   3.602  0.5109  0.6381  0.4398
 8990TIP3    H148461   1.896   3.991   3.683 -0.3892 -0.5024 -0.2847
 8990TIP3    H248462   1.911   4.132   3.630 -0.1865  0.3096  1.8307
 8991TIP3   OH248463   0.579   3.061  16.785 -0.3409  0.0843  0.6946
 8991TIP3    H148464   0.577   3.015  16.869 -3.1626  1.2650  1.3863
 8991TIP3    H248465   0.486   3.073  16.762  0.3227  2.2506 -1.2132
 8992TIP3   OH248466   4.735   0.113   4.698  0.2918  0.2107  0.5771
 8992TIP3    H148467   4.718   0.206   4.711  2.0603  0.6111  0.2960
 8992TIP3    H248468   4.696   0.094   4.612  1.2890  1.1086 -0.1083
 8993TIP3   OH248469   3.619   3.295  13.210 -0.0452 -0.1493 -0.1837
 8993TIP3    H148470   3.644   3.205  13.232  0.4307 -0.1288 -0.6122
 8993TIP3    H248471   3.676   3.318  13.136 -1.6759 -0.2685 -1.5538
 8994TIP3   OH248472   4.352   1.899  16.913 -0.0452  0.1317  0.4136
 8994TIP3    H148473   4.259   1.907  16.894 -0.3332  0.5792  1.8310
 8994TIP3    H248474   4.356   1.893  17.009  1.4071  0.4663  0.3994
 8995TIP3   OH248475   0.719   3.194  16.515 -0.0166  0.1360  0.5392
 8995TIP3    H148476   0.676   3.276  16.493  1.3298  1.1780  1.6866
 8995TIP3    H248477   0.648   3.129  16.514 -1.0196  1.1883 -0.8276
 8996TIP3   OH248478   4.836   0.889  12.063  0.1734 -0.1955  0.0251
 8996TIP3    H148479   4.745   0.918  12.052 -0.4844 -2.6306 -1.7434
 8996TIP3    H248480   4.867   0.870  11.975  1.8975 -0.8938  0.7197
 8997TIP3   OH248481   3.599   0.079   3.937 -0.4985  0.1541  0.2748
 8997TIP3    H148482   3.554   0.017   3.994  2.0160 -1.0515  1.0916
 8997TIP3    H248483   3.691   0.071   3.961  0.2579  2.0946 -1.6608
 8998TIP3   OH248484   5.453   4.051  15.272 -0.0850  0.2541 -0.9535
 8998TIP3    H148485   5.398   4.004  15.209 -0.7894  2.2647 -1.9300
 8998TIP3    H248486   5.394   4.115  15.312  0.9877  0.8100 -0.2140
 8999TIP3   OH248487   4.511   6.005   1.131 -0.2428 -0.5335  0.2006
 8999TIP3    H148488   4.439   5.944   1.147 -0.1934 -0.5569  0.3340
 8999TIP3    H248489   4.468   6.082   1.093  0.0683 -2.0237 -3.6371
 9000TIP3   OH248490   5.673   3.570  11.748 -0.2834  0.2349  0.5039
 9000TIP3    H148491   5.752   3.623  11.754 -1.0962  1.3748  1.6833
 9000TIP3    H248492   5.632   3.598  11.667  0.5775 -0.4715 -0.1938
 9001TIP3   OH248493   0.046   5.213   4.776 -0.0172  0.4822 -0.0562
 9001TIP3    H148494   0.019   5.305   4.781 -0.3187  0.4592 -1.0606
 9001TIP3    H248495   0.105   5.209   4.701  2.7344  0.4916  1.9460
 9002TIP3   OH248496   1.034   1.312   3.758 -0.2783 -0.5771 -0.1387
 9002TIP3    H148497   1.011   1.327   3.849  0.4916 -0.2430  0.0124
 9002TIP3    H248498   0.961   1.349   3.708 -0.3315 -0.0445  0.3275
 9003TIP3   OH248499   0.762   3.228  13.072  0.3099 -0.7679  0.4224
 9003TIP3    H148500   0.735   3.196  12.986  1.2628  0.3290 -0.3149
 9003TIP3    H248501   0.853   3.256  13.061 -0.0005  0.7893  1.3758
 9004TIP3   OH248502   5.193   5.292   1.230 -1.0939 -0.6541  0.0716
 9004TIP3    H148503   5.248   5.258   1.160  0.7328 -0.8544  1.5437
 9004TIP3    H248504   5.154   5.372   1.194  2.7364  1.3938 -0.0429
 9005TIP3   OH248505   4.301   1.694   2.854 -0.1338 -0.0965  0.2062
 9005TIP3    H148506   4.224   1.675   2.802 -0.2201  1.1853 -0.1562
 9005TIP3    H248507   4.369   1.636   2.819 -1.1802 -2.0916  1.2964
 9006TIP3   OH248508   3.700   0.347   3.945 -0.0802 -0.1617 -0.3762
 9006TIP3    H148509   3.694   0.274   4.007  0.3553  0.0347 -0.0939
 9006TIP3    H248510   3.620   0.342   3.893 -0.4331 -0.3509  0.1792
 9007TIP3   OH248511   0.658   1.028  15.482 -0.0252  0.4380 -0.4963
 9007TIP3    H148512   0.631   0.983  15.563 -1.3692  0.1297 -1.0745
 9007TIP3    H248513   0.751   1.007  15.473 -0.4190 -1.6830 -0.3585
 9008TIP3   OH248514   5.208   2.024   2.349  0.0241 -0.1053 -0.3206
 9008TIP3    H148515   5.162   1.977   2.419  0.6158  0.0683  0.2008
 9008TIP3    H248516   5.178   1.983   2.268 -0.4201 -0.5344  0.0583
 9009TIP3   OH248517   2.360   1.439   5.546 -0.1882 -0.3635 -0.0671
 9009TIP3    H148518   2.347   1.478   5.632  0.5584  0.3788 -0.2833
 9009TIP3    H248519   2.345   1.345   5.560 -1.3517 -0.1041  0.5937
 9010TIP3   OH248520   2.206   2.334   2.531 -0.4437 -0.3084  0.5850
 9010TIP3    H148521   2.183   2.258   2.584  0.6243 -0.1093  1.3567
 9010TIP3    H248522   2.186   2.409   2.586 -3.8821  0.1838 -1.0513
 9011TIP3   OH248523   6.090   2.716  13.841  0.0349  0.4050  0.0943
 9011TIP3    H148524   6.052   2.685  13.759 -1.5214  1.9216  0.1640
 9011TIP3    H248525   6.051   2.660  13.908 -1.3486  1.2575  0.0580
 9012TIP3   OH248526   6.064   3.892   0.549 -0.0899  0.7624  0.1756
 9012TIP3    H148527   6.088   3.823   0.611  1.4396  0.3123 -0.8656
 9012TIP3    H248528   6.047   3.846   0.467 -1.7968  1.3811  0.1392
 9013TIP3   OH248529   4.809   2.743  14.082 -0.0804 -0.3092 -0.7019
 9013TIP3    H148530   4.843   2.768  13.996 -3.4223  4.9948 -0.9668
 9013TIP3    H248531   4.743   2.676  14.064  1.0524 -1.1626 -1.8338
 9014TIP3   OH248532   2.298   6.132  11.333 -0.0019 -0.1187  0.1455
 9014TIP3    H148533   2.364   6.073  11.369  2.2233  0.4745 -2.6250
 9014TIP3    H248534   2.263   6.178  11.410  2.2530 -1.0207  1.8305
 9015TIP3   OH248535   5.644   0.141   2.332 -0.2657 -0.4528  0.2414
 9015TIP3    H148536   5.622   0.234   2.323 -1.4927 -0.7944 -0.4930
 9015TIP3    H248537   5.727   0.141   2.379 -1.9643  0.8907  3.5065
 9016TIP3   OH248538   6.501   3.792  14.052  0.0882  0.1763  0.6817
 9016TIP3    H148539   6.461   3.821  14.133 -1.3006 -0.9572  0.4347
 9016TIP3    H248540   6.436   3.812  13.984  1.1585  0.9676 -0.1566
 9017TIP3   OH248541   4.020   2.734  10.921 -0.3281 -0.0447 -0.3178
 9017TIP3    H148542   3.965   2.659  10.945 -1.6115  1.0711  0.3956
 9017TIP3    H248543   3.989   2.759  10.834 -0.3283  0.0119 -0.3014
 9018TIP3   OH248544   6.756   6.775  13.020  0.2637 -0.3023  0.2013
 9018TIP3    H148545   6.683   6.802  12.965  0.0498 -0.7032  0.2892
 9018TIP3    H248546   6.763   6.845  13.086  0.4889  0.1513 -0.2939
 9019TIP3   OH248547   3.401   5.905  13.606 -0.6975 -0.1094 -0.5692
 9019TIP3    H148548   3.390   5.848  13.530  0.4861  0.8954 -1.5446
 9019TIP3    H248549   3.384   5.849  13.681 -0.3629 -1.5457 -1.5234
 9020TIP3   OH248550   3.519   3.976  14.028 -0.1063  0.2136  0.0049
 9020TIP3    H148551   3.432   3.948  14.056  0.0468  1.4167  1.8163
 9020TIP3    H248552   3.553   3.903  13.976 -2.0010 -0.4549 -0.3578
 9021TIP3   OH248553   1.354   5.476   1.740 -0.0339 -0.2958 -0.5430
 9021TIP3    H148554   1.446   5.450   1.739  0.3927  1.1238 -0.5353
 9021TIP3    H248555   1.343   5.528   1.660 -0.0145  2.0636  0.8790
 9022TIP3   OH248556   2.775   3.138  14.971  0.0142 -0.0401 -0.1845
 9022TIP3    H148557   2.850   3.151  14.914  0.3105  1.1656  0.4483
 9022TIP3    H248558   2.785   3.203  15.040 -1.2319 -0.3325  0.3112
 9023TIP3   OH248559   0.665   4.027   3.025  0.3698  0.0342  0.6281
 9023TIP3    H148560   0.584   4.078   3.033  0.2739 -0.0011 -0.0156
 9023TIP3    H248561   0.655   3.980   2.942  0.6518 -0.6914  0.9965
 9024TIP3   OH248562   5.676   0.180   2.779  0.1271  0.2815 -0.6494
 9024TIP3    H148563   5.724   0.215   2.855  1.8007 -0.0295 -1.5275
 9024TIP3    H248564   5.699   0.239   2.708  0.1346 -0.5666 -1.3553
 9025TIP3   OH248565   3.616   5.550  11.405  0.4724 -0.0386 -0.1608
 9025TIP3    H148566   3.629   5.600  11.486  2.8417 -1.4537  0.4220
 9025TIP3    H248567   3.668   5.596  11.339 -0.4029  0.3631 -0.5947
 9026TIP3   OH248568   5.158   3.657   3.880 -0.7494  0.1355 -0.2963
 9026TIP3    H148569   5.137   3.676   3.789 -1.4799 -1.8795 -0.6103
 9026TIP3    H248570   5.177   3.563   3.881  0.0699  0.2760  1.4857
 9027TIP3   OH248571   5.305   5.871  14.084  0.1120  0.2901 -0.3991
 9027TIP3    H148572   5.369   5.936  14.111  1.0142 -0.4071 -0.7857
 9027TIP3    H248573   5.280   5.825  14.164 -1.0189  1.5067 -0.0223
 9028TIP3   OH248574   4.819   4.198   3.202  0.1754  0.0862 -0.1878
 9028TIP3    H148575   4.789   4.109   3.186 -1.2398  0.6981 -1.2048
 9028TIP3    H248576   4.839   4.233   3.115 -0.4285  1.1234  0.0703
 9029TIP3   OH248577   0.632   4.446  13.489 -0.5423 -0.0945  0.4261
 9029TIP3    H148578   0.640   4.498  13.570 -1.2624 -0.5184  0.7779
 9029TIP3    H248579   0.644   4.356  13.517  2.0662 -0.0891 -0.3866
 9030TIP3   OH248580   4.896   0.565  14.456 -0.0576  0.3574 -0.0130
 9030TIP3    H148581   4.855   0.638  14.503  2.4909  0.1283  2.8314
 9030TIP3    H248582   4.845   0.488  14.481  0.2524  0.4862  1.0296
 9031TIP3   OH248583   2.970   5.828   3.474 -0.0303  0.6395 -0.0461
 9031TIP3    H148584   3.023   5.850   3.397  0.0981  0.7770  0.0817
 9031TIP3    H248585   2.883   5.860   3.453 -0.2389 -0.2355 -0.5604
 9032TIP3   OH248586   0.945   3.270  13.375 -0.0190  0.7484  0.5119
 9032TIP3    H148587   0.909   3.233  13.455  0.3815  0.7951  0.7157
 9032TIP3    H248588   1.023   3.217  13.357 -0.3810  0.4265 -0.1152
 9033TIP3   OH248589   2.819   3.781  15.062  1.0521  0.3112  0.1274
 9033TIP3    H148590   2.764   3.835  15.119  0.8739 -0.8595  1.1026
 9033TIP3    H248591   2.886   3.746  15.120  0.7480 -1.0728 -0.3181
 9034TIP3   OH248592   0.110   4.514   4.754  0.3452 -0.0544  0.1780
 9034TIP3    H148593   0.204   4.499   4.756  0.7683  2.1195  2.9797
 9034TIP3    H248594   0.074   4.444   4.809  0.3025 -0.8006 -0.7771
 9035TIP3   OH248595   3.261   1.542  11.959 -0.4381  0.6438 -0.1464
 9035TIP3    H148596   3.299   1.517  11.875  0.5484  0.9397  0.2069
 9035TIP3    H248597   3.177   1.495  11.961 -0.2898  0.2992 -1.1022
 9036TIP3   OH248598   0.733   0.367  13.910 -0.3076  0.6351  0.2148
 9036TIP3    H148599   0.656   0.420  13.929  0.3889  1.7930 -0.1094
 9036TIP3    H248600   0.732   0.299  13.977 -0.3885  1.9567  1.6116
 9037TIP3   OH248601   5.097   5.342   2.475  0.5856  0.0680 -0.1239
 9037TIP3    H148602   5.022   5.394   2.505 -0.2177 -0.8969 -0.3694
 9037TIP3    H248603   5.113   5.371   2.386 -0.5488 -0.8000 -0.6426
 9038TIP3   OH248604   2.073   5.422  13.269 -0.1067  0.1719 -0.0730
 9038TIP3    H148605   2.051   5.334  13.238 -0.5419  0.1015  0.4355
 9038TIP3    H248606   2.027   5.431  13.352 -0.8179  1.2233 -0.5571
 9039TIP3   OH248607   4.523   4.341  10.403  0.5983  0.2809 -0.2680
 9039TIP3    H148608   4.451   4.381  10.355 -0.3639 -0.0151  0.8841
 9039TIP3    H248609   4.485   4.264  10.444  1.0232  1.1591  1.9516
 9040TIP3   OH248610   4.502   3.297  16.669 -0.0604 -0.1406 -0.1650
 9040TIP3    H148611   4.587   3.322  16.706 -1.0385 -0.3085  2.4430
 9040TIP3    H248612   4.438   3.347  16.719 -1.5718 -0.7847 -1.3625
 9041TIP3   OH248613   0.821   5.179   4.130  0.0513  0.6260 -0.6750
 9041TIP3    H148614   0.802   5.223   4.047  0.4747 -0.1837 -1.2127
 9041TIP3    H248615   0.771   5.229   4.195  0.4825  1.8689 -1.2573
 9042TIP3   OH248616   5.498   2.936  16.275  0.3902 -0.6027 -0.0457
 9042TIP3    H148617   5.581   2.981  16.260 -0.3207  0.4285 -1.1008
 9042TIP3    H248618   5.519   2.843  16.267  1.5123 -0.3742  0.1157
 9043TIP3   OH248619   2.875   1.207  12.417  0.1687  0.4968 -0.1720
 9043TIP3    H148620   2.888   1.176  12.507  2.1977 -0.3113 -0.6986
 9043TIP3    H248621   2.889   1.302  12.422 -0.1437  0.5174  0.4281
 9044TIP3   OH248622   0.186   0.224   4.685  0.0099 -0.5195 -0.1473
 9044TIP3    H148623   0.154   0.226   4.775 -0.4559 -1.0567 -0.2914
 9044TIP3    H248624   0.131   0.158   4.642 -0.5661  0.5697 -1.1273
 9045TIP3   OH248625   3.710   6.794  11.485 -0.6684  0.2593 -0.6284
 9045TIP3    H148626   3.800   6.796  11.453 -0.9025 -1.1606 -1.4544
 9045TIP3    H248627   3.658   6.827  11.412 -1.0173 -1.1231 -1.0302
 9046TIP3   OH248628   6.258   5.366   1.866  0.2643  0.5058 -0.1494
 9046TIP3    H148629   6.292   5.455   1.860  1.6006 -0.0581 -1.9831
 9046TIP3    H248630   6.317   5.321   1.927  0.0625  0.6650  0.1656
 9047TIP3   OH248631   5.254   4.687  12.757  0.6399  0.6430 -0.4472
 9047TIP3    H148632   5.302   4.649  12.831 -2.2253 -1.6772  0.4007
 9047TIP3    H248633   5.252   4.781  12.776 -0.0772  0.1354  2.5684
 9048TIP3   OH248634   0.841   2.266   5.104  0.4286 -0.3580  0.5521
 9048TIP3    H148635   0.752   2.244   5.129 -0.0849  1.5875  0.5764
 9048TIP3    H248636   0.893   2.252   5.183  0.0162 -0.7078  0.7644
 9049TIP3   OH248637   1.746   0.611   1.917  0.2175  0.1204 -0.4937
 9049TIP3    H148638   1.667   0.665   1.923  0.8502  1.1673 -1.3602
 9049TIP3    H248639   1.777   0.604   2.008 -0.6188  0.0575 -0.2016
 9050TIP3   OH248640   0.082   1.314  11.505  0.3707 -0.2171 -0.3074
 9050TIP3    H148641   0.075   1.246  11.571 -0.3048 -0.7481 -0.9063
 9050TIP3    H248642   0.014   1.293  11.441 -0.1474  1.2593 -0.2866
 9051TIP3   OH248643   6.020   4.547  11.210  0.3005  0.1986 -0.0698
 9051TIP3    H148644   6.082   4.525  11.140 -0.3123  0.2070 -0.6207
 9051TIP3    H248645   6.075   4.561  11.287  1.0320  0.7522 -0.6778
 9052TIP3   OH248646   4.483   3.327   6.289  0.2496  0.3815  0.1523
 9052TIP3    H148647   4.475   3.406   6.237  0.0130 -0.0918 -0.5505
 9052TIP3    H248648   4.544   3.271   6.240 -0.3357 -0.2569  0.1255
 9053TIP3   OH248649   0.320   0.523  11.247 -0.1252 -0.3313  0.2683
 9053TIP3    H148650   0.305   0.429  11.249  0.6203 -0.4514  1.3436
 9053TIP3    H248651   0.338   0.544  11.156  1.8777 -1.6149  0.3042
 9054TIP3   OH248652   1.964   5.987  14.059 -0.3226 -0.4508  0.2438
 9054TIP3    H148653   2.039   6.047  14.066 -1.1847  0.5875  0.7531
 9054TIP3    H248654   1.932   6.000  13.969 -0.6505  0.0404  0.4267
 9055TIP3   OH248655   5.064   5.897   4.278  0.0473  0.1962  0.8044
 9055TIP3    H148656   5.106   5.983   4.278 -1.5639  1.1144 -1.8695
 9055TIP3    H248657   5.106   5.849   4.207 -2.4799  0.7487 -1.2025
 9056TIP3   OH248658   1.221   4.494  10.582  0.5792  0.0168 -0.3422
 9056TIP3    H148659   1.143   4.439  10.592 -0.5123  1.2775 -1.6055
 9056TIP3    H248660   1.272   4.477  10.662 -1.2204 -0.4438  0.7716
 9057TIP3   OH248661   6.388   0.907   1.950 -0.0435 -0.0191  0.0665
 9057TIP3    H148662   6.477   0.909   1.985  0.3040  0.4863 -0.8090
 9057TIP3    H248663   6.389   0.970   1.877  0.0731 -3.0317 -2.7561
 9058TIP3   OH248664   4.545   4.381   4.323  0.7856 -0.0727  0.0729
 9058TIP3    H148665   4.640   4.382   4.314  0.6099 -0.8429 -2.9086
 9058TIP3    H248666   4.514   4.443   4.257 -0.8068  0.2023  1.0123
 9059TIP3   OH248667   5.071   5.373  13.236  0.4764  0.1991  0.1474
 9059TIP3    H148668   4.978   5.392  13.244  0.6461  0.7580  0.9109
 9059TIP3    H248669   5.102   5.435  13.170  0.4828  0.6655  0.5818
 9060TIP3   OH248670   0.003   1.007  12.216  0.4191  0.3318 -0.4819
 9060TIP3    H148671   0.036   1.017  12.306  0.6017  1.4080 -0.6575
 9060TIP3    H248672  -0.086   1.041  12.219 -0.2367 -1.2749 -0.3314
 9061TIP3   OH248673   3.359   4.024   4.062  0.2383 -0.1817  0.4597
 9061TIP3    H148674   3.445   4.017   4.103  0.7457 -1.1869 -0.7317
 9061TIP3    H248675   3.358   3.955   3.996 -2.3311 -1.7312  1.9387
 9062TIP3   OH248676   4.778   4.762   0.538 -0.1233  0.2075 -0.1460
 9062TIP3    H148677   4.845   4.704   0.573  0.4220  1.3819  0.7990
 9062TIP3    H248678   4.821   4.846   0.527 -0.1628 -0.0820 -3.9469
 9063TIP3   OH248679   0.497   6.318  13.091  0.9645 -0.0486 -0.3105
 9063TIP3    H148680   0.529   6.277  13.011  0.2618  0.8847 -1.0856
 9063TIP3    H248681   0.573   6.362  13.128  0.7907  1.5362 -1.7481
 9064TIP3   OH248682   2.228   6.405  11.897  0.0226  0.4502 -0.4606
 9064TIP3    H148683   2.145   6.426  11.941 -0.5588  0.3032 -1.4605
 9064TIP3    H248684   2.209   6.324  11.849  0.7529  0.4086 -0.6870
 9065TIP3   OH248685   5.766   4.781  14.087 -0.7747 -0.3088 -0.3180
 9065TIP3    H148686   5.727   4.702  14.048 -1.0887  0.0577 -0.7605
 9065TIP3    H248687   5.714   4.853  14.051  0.4393  0.2092 -1.0978
 9066TIP3   OH248688   1.443   4.504   1.990  0.1888  0.0665 -0.1037
 9066TIP3    H148689   1.525   4.506   2.039 -0.3784 -1.1367  0.9569
 9066TIP3    H248690   1.460   4.443   1.918  0.2215 -0.2339  0.1528
 9067TIP3   OH248691   0.796   2.697   4.071  0.3631  0.1124 -0.1282
 9067TIP3    H148692   0.744   2.769   4.106  0.6184  0.7384 -1.0082
 9067TIP3    H248693   0.761   2.682   3.983  0.2027 -0.9551  0.1064
 9068TIP3   OH248694   2.200   6.638  14.033 -0.3388 -0.0427 -0.0009
 9068TIP3    H148695   2.128   6.695  14.061  0.4400  0.7597  0.4448
 9068TIP3    H248696   2.278   6.693  14.042  0.5774 -1.4774  1.3643
 9069TIP3   OH248697   1.227   1.384  15.295 -0.1114  0.1737  0.6245
 9069TIP3    H148698   1.137   1.351  15.304 -1.2374  1.8800 -2.6076
 9069TIP3    H248699   1.229   1.463  15.348 -0.6153  0.2625  0.5152
 9070TIP3   OH248700   4.101   0.286  15.931 -0.2618  0.0909 -0.4878
 9070TIP3    H148701   4.035   0.224  15.898 -0.8698  0.7759 -0.5676
 9070TIP3    H248702   4.052   0.351  15.980  0.5072 -0.1555  0.6551
 9071TIP3   OH248703   4.639   6.091  15.446 -0.6944  0.0707 -0.6484
 9071TIP3    H148704   4.717   6.132  15.409 -0.6897  1.0734  0.4168
 9071TIP3    H248705   4.579   6.164  15.461 -1.2456 -0.4936 -0.0654
 9072TIP3   OH248706   0.611   3.952  15.799 -0.1957  0.0227  0.5584
 9072TIP3    H148707   0.586   4.042  15.819 -0.4744  0.2534 -0.7202
 9072TIP3    H248708   0.534   3.900  15.820  0.0004  0.0513  1.4004
 9073TIP3   OH248709   0.660   1.664   1.465 -0.0181  0.3373 -0.4231
 9073TIP3    H148710   0.628   1.725   1.398 -1.1613  0.6975  0.4329
 9073TIP3    H248711   0.598   1.591   1.462  1.6554 -1.1296 -1.8460
 9074TIP3   OH248712   0.400   3.688  12.407 -0.0697  0.2668  0.3691
 9074TIP3    H148713   0.370   3.675  12.497  1.3633  0.0137  0.8404
 9074TIP3    H248714   0.373   3.609  12.361 -2.4061  1.1610  0.0850
 9075TIP3   OH248715   6.547   5.245  17.051 -0.1310  0.6131  0.0267
 9075TIP3    H148716   6.517   5.310  16.988 -0.2383  0.5985  0.0636
 9075TIP3    H248717   6.496   5.166  17.031  1.5477 -0.1593 -1.4681
 9076TIP3   OH248718   5.226   0.437   4.253 -0.2233  0.0041 -0.3955
 9076TIP3    H148719   5.244   0.375   4.181  3.2948 -0.5433  0.7630
 9076TIP3    H248720   5.216   0.381   4.330 -1.3588  0.7306  0.0046
 9077TIP3   OH248721   2.213   2.352   1.561 -0.0887 -0.4834  0.2891
 9077TIP3    H148722   2.242   2.423   1.503 -2.5591  0.0760 -0.4020
 9077TIP3    H248723   2.180   2.285   1.501 -0.6929 -0.8374  1.0037
 9078TIP3   OH248724   5.408   5.832   4.280  0.0560 -0.3521 -0.2963
 9078TIP3    H148725   5.456   5.864   4.204 -0.9535 -1.1830 -1.2929
 9078TIP3    H248726   5.419   5.737   4.278  0.1411 -0.3793  0.6916
 9079TIP3   OH248727   6.444   5.962   3.462  0.3483  0.5421 -0.3289
 9079TIP3    H148728   6.405   6.045   3.492 -0.1125  0.3100 -0.2897
 9079TIP3    H248729   6.525   5.955   3.513 -0.7420 -0.1743  1.4024
 9080TIP3   OH248730   4.305   1.873  14.856  0.3289  0.0982 -0.3186
 9080TIP3    H148731   4.391   1.886  14.816 -0.3120 -0.7145 -2.0521
 9080TIP3    H248732   4.254   1.950  14.831 -0.2895 -0.7359 -1.7517
 9081TIP3   OH248733   4.966   2.304   0.184 -0.5971 -0.3211  0.0861
 9081TIP3    H148734   4.904   2.316   0.112 -1.1273  0.9069  0.7010
 9081TIP3    H248735   5.052   2.318   0.144 -0.8985  0.5644 -0.2853
 9082TIP3   OH248736   4.717   3.618  14.065 -0.8539  0.5271 -0.1654
 9082TIP3    H148737   4.655   3.642  14.134  0.2399  1.3782  0.5573
 9082TIP3    H248738   4.663   3.580  13.996 -1.9796 -0.5326  1.2282
 9083TIP3   OH248739   2.762   0.727   3.761 -0.2718  0.9239  0.0516
 9083TIP3    H148740   2.782   0.676   3.682 -0.1483  0.8513  0.1294
 9083TIP3    H248741   2.694   0.677   3.805  0.8799  0.0364  0.8907
 9084TIP3   OH248742   4.185   3.616  14.969  0.4386  0.4211  0.7840
 9084TIP3    H148743   4.277   3.642  14.976  0.8984 -1.1262  0.9729
 9084TIP3    H248744   4.188   3.521  14.956 -1.0457  0.6576 -2.0243
 9085TIP3   OH248745   3.485   1.438   1.765 -0.3211 -0.1623  0.1138
 9085TIP3    H148746   3.530   1.421   1.682 -1.9884 -0.2951 -0.8137
 9085TIP3    H248747   3.473   1.533   1.766  1.3834  0.0862  1.1664
 9086TIP3   OH248748   1.364   0.174  16.406 -0.2994 -0.3310 -0.4170
 9086TIP3    H148749   1.340   0.099  16.351 -3.5636  0.0956  0.2778
 9086TIP3    H248750   1.293   0.182  16.469  0.7995  2.3437  0.6301
 9087TIP3   OH248751   0.170   6.147   0.096  0.4637  0.0551  0.2825
 9087TIP3    H148752   0.231   6.178   0.029  0.0272 -0.4557 -0.3672
 9087TIP3    H248753   0.084   6.162   0.059  0.2055  0.0426  0.8645
 9088TIP3   OH248754   2.535   3.499  15.619 -0.0953  0.3164 -0.0590
 9088TIP3    H148755   2.441   3.514  15.626 -0.0083  0.3868  1.3402
 9088TIP3    H248756   2.551   3.486  15.526 -1.4470  0.5621 -0.3428
 9089TIP3   OH248757   6.338   1.045  14.009 -0.5570  0.0565  0.4535
 9089TIP3    H148758   6.379   1.031  13.924 -1.9600 -2.0336  0.0559
 9089TIP3    H248759   6.324   0.957  14.045  0.0746  0.8650  2.9165
 9090TIP3   OH248760   0.454   6.130   6.820  0.1907 -0.3929 -0.8622
 9090TIP3    H148761   0.528   6.112   6.762 -1.1762  0.0135 -2.8251
 9090TIP3    H248762   0.410   6.046   6.830 -1.1564  0.0134 -2.7912
 9091TIP3   OH248763   0.265   4.266  14.601  0.4697  0.5673  0.0541
 9091TIP3    H148764   0.196   4.307  14.550 -1.7606 -0.5644  1.9662
 9091TIP3    H248765   0.268   4.176  14.569  0.0767  0.2533  0.8634
 9092TIP3   OH248766   2.352   4.448   3.004  0.6072  0.3708 -0.6237
 9092TIP3    H148767   2.281   4.459   3.067  1.7172  1.9920  0.4124
 9092TIP3    H248768   2.384   4.359   3.021 -0.3177  0.0921 -0.2199
 9093TIP3   OH248769   5.092   2.326  12.344 -0.4985  0.1391 -0.6749
 9093TIP3    H148770   5.117   2.248  12.294 -0.6803 -0.7669  0.6035
 9093TIP3    H248771   5.151   2.326  12.419 -1.2707  0.5782 -0.0583
 9094TIP3   OH248772   3.542   6.192  16.229 -0.5591  0.3817  0.3593
 9094TIP3    H148773   3.603   6.246  16.178 -0.6849  0.6122  0.4534
 9094TIP3    H248774   3.456   6.211  16.192 -0.4342 -1.1325 -0.8468
 9095TIP3   OH248775   3.524   5.500  14.588 -0.0523  0.1833 -0.1990
 9095TIP3    H148776   3.497   5.409  14.572 -1.5592  0.4898  0.3881
 9095TIP3    H248777   3.531   5.506  14.683  0.2495  0.6273 -0.2469
 9096TIP3   OH248778   4.874   6.745   5.914  0.5115  0.7221 -0.1895
 9096TIP3    H148779   4.811   6.813   5.890 -1.1945 -0.6145  0.2694
 9096TIP3    H248780   4.894   6.762   6.006 -0.2941  0.3525  0.0668
 9097TIP3   OH248781   0.937   2.179  16.621  1.0848  0.3864  0.0573
 9097TIP3    H148782   1.030   2.185  16.596  1.4943 -0.4988  1.2745
 9097TIP3    H248783   0.926   2.248  16.687  0.8025  0.6571 -0.2692
 9098TIP3   OH248784   2.468   0.985  16.239  0.0933 -0.2763  0.1894
 9098TIP3    H148785   2.551   0.946  16.268 -0.0746 -0.2175  0.7653
 9098TIP3    H248786   2.415   0.911  16.211  0.1966 -0.3528  0.1965
 9099TIP3   OH248787   1.765   0.637  15.402 -0.8070 -0.4619  0.0395
 9099TIP3    H148788   1.703   0.640  15.474 -0.2757 -3.3317  0.7276
 9099TIP3    H248789   1.738   0.562  15.349  0.5426 -0.1856 -1.1149
 9100TIP3   OH248790   2.782   3.906   1.647  0.4393 -0.7580 -0.1335
 9100TIP3    H148791   2.785   3.926   1.553  0.5587  2.9470  0.5182
 9100TIP3    H248792   2.872   3.923   1.678  0.1583 -0.9214  0.7985
 9101TIP3   OH248793   0.620   0.434   4.990 -0.0945 -0.3629  0.2158
 9101TIP3    H148794   0.648   0.450   5.081 -0.4531  1.8912 -0.0246
 9101TIP3    H248795   0.663   0.503   4.939 -2.1387  0.1738 -0.9005
 9102TIP3   OH248796   2.895   5.512  14.798  0.0670 -0.0785 -0.4979
 9102TIP3    H148797   2.918   5.605  14.792 -0.7258  0.1092 -0.6716
 9102TIP3    H248798   2.883   5.484  14.707 -0.1002 -0.2483 -0.4243
 9103TIP3   OH248799   5.685   0.440   4.194  0.4496  0.0257  0.1437
 9103TIP3    H148800   5.602   0.486   4.183  0.6614  0.0857 -1.5614
 9103TIP3    H248801   5.750   0.510   4.202  0.3205 -0.0213  1.8518
 9104TIP3   OH248802   1.214   1.303   5.535  0.3819  0.6925 -0.4583
 9104TIP3    H148803   1.243   1.220   5.498 -1.1932 -0.1919  0.2059
 9104TIP3    H248804   1.263   1.312   5.616  1.4327  1.0176 -1.1156
 9105TIP3   OH248805   4.053   1.597   1.004 -0.3118 -0.1407  0.2863
 9105TIP3    H148806   4.145   1.569   1.013 -0.5824 -1.0826  0.2791
 9105TIP3    H248807   4.058   1.692   0.995  0.5099  0.1798  2.9938
 9106TIP3   OH248808   5.021   5.768   6.633  0.3973  0.2163 -0.4457
 9106TIP3    H148809   4.982   5.836   6.578  0.1150  0.0695 -0.4245
 9106TIP3    H248810   4.961   5.759   6.706  0.7383  0.3639 -0.1411
 9107TIP3   OH248811   2.583   3.897   3.057 -0.2907  0.2341  0.1652
 9107TIP3    H148812   2.524   3.873   3.129  1.8555 -0.9018  1.6560
 9107TIP3    H248813   2.565   3.832   2.989  1.4606 -2.3295  1.9420
 9108TIP3   OH248814   6.676   2.395   6.069 -0.1938 -0.1463 -0.2405
 9108TIP3    H148815   6.659   2.457   6.140  1.3881 -0.7054  0.6756
 9108TIP3    H248816   6.624   2.318   6.091  0.5768 -0.4634  0.5629
 9109TIP3   OH248817   6.500   1.445   3.924  0.3612  0.2683  0.6122
 9109TIP3    H148818   6.442   1.495   3.865 -1.0462 -0.6696  1.1445
 9109TIP3    H248819   6.564   1.404   3.866 -1.1332 -0.8184 -0.3452
 9110TIP3   OH248820   3.991   1.857  11.811  0.2400  0.5603 -0.0496
 9110TIP3    H148821   3.946   1.940  11.828 -0.2546  0.1052  0.9370
 9110TIP3    H248822   3.941   1.817  11.739 -0.2787  0.5607  0.3075
 9111TIP3   OH248823   5.079   5.351   4.782 -0.5305  0.1167  0.4874
 9111TIP3    H148824   5.004   5.409   4.767 -0.1359  0.2132 -1.4790
 9111TIP3    H248825   5.048   5.265   4.756 -0.5623 -0.2465  1.6765
 9112TIP3   OH248826   4.391   2.147   3.163 -0.3702  0.4161  0.2747
 9112TIP3    H148827   4.454   2.142   3.235  0.1566  0.0493 -0.2087
 9112TIP3    H248828   4.380   2.241   3.148 -0.6923  0.5024  1.0097
 9113TIP3   OH248829   5.639   1.269   2.665  0.0314  0.6764  0.4763
 9113TIP3    H148830   5.576   1.308   2.724 -1.1050 -3.2607  2.1790
 9113TIP3    H248831   5.718   1.257   2.718 -0.0720 -0.3673  0.4280
 9114TIP3   OH248832   1.182   2.921   0.749  0.2600 -0.1374 -0.9030
 9114TIP3    H148833   1.095   2.925   0.708  0.0510 -0.3060 -0.4738
 9114TIP3    H248834   1.191   3.006   0.792  0.1194 -0.2940 -0.5640
 9115TIP3   OH248835   5.269   0.957   0.447 -0.1709 -0.2468 -0.1036
 9115TIP3    H148836   5.298   1.003   0.368 -1.7655  1.9887  0.5144
 9115TIP3    H248837   5.175   0.941   0.432  0.0107 -2.0064  0.3754
 9116TIP3   OH248838   4.824   1.639   0.732  0.2404 -0.1862 -0.2375
 9116TIP3    H148839   4.908   1.592   0.726  0.2020 -0.5629  1.5973
 9116TIP3    H248840   4.759   1.570   0.741  0.1031  0.1645  1.7377
 9117TIP3   OH248841   3.868   0.659  13.715  0.2000 -0.4627 -0.7402
 9117TIP3    H148842   3.801   0.613  13.665 -1.4496 -0.5926  1.3911
 9117TIP3    H248843   3.878   0.607  13.795  0.4041  1.2970  0.4424
 9118TIP3   OH248844   5.455   4.413  12.784 -0.0534  0.5012  0.4530
 9118TIP3    H148845   5.463   4.465  12.704  2.7009  0.2460  0.4580
 9118TIP3    H248846   5.503   4.462  12.850  1.1369 -1.1480  0.8928
 9119TIP3   OH248847   5.292   3.171   4.386 -0.2405 -0.6485 -0.0997
 9119TIP3    H148848   5.251   3.090   4.357 -0.6215 -0.9847  1.2992
 9119TIP3    H248849   5.371   3.143   4.432 -0.3414 -0.2420  0.3363
 9120TIP3   OH248850   6.427   6.641   5.676 -0.0429 -0.2632  0.0336
 9120TIP3    H148851   6.449   6.552   5.703 -2.1378 -1.0436 -0.6321
 9120TIP3    H248852   6.417   6.636   5.580  1.0224  0.9865 -0.1731
 9121TIP3   OH248853   6.346   3.737  13.341  0.6810 -0.2043  0.1115
 9121TIP3    H148854   6.342   3.643  13.356 -0.3564  0.1182  2.1478
 9121TIP3    H248855   6.398   3.772  13.413 -0.0524  0.9134  0.1310
 9122TIP3   OH248856   6.696   1.241  14.566  0.0485 -0.4687 -0.2434
 9122TIP3    H148857   6.755   1.283  14.505  0.2405  0.2731  0.4424
 9122TIP3    H248858   6.730   1.263  14.653 -2.6168  2.1901  0.2846
 9123TIP3   OH248859   4.927   5.167  12.342 -0.0553  0.2159  0.4525
 9123TIP3    H148860   4.844   5.121  12.350 -0.3021  0.1058 -2.0531
 9123TIP3    H248861   4.987   5.103  12.304  0.1020  1.3587 -1.3392
 9124TIP3   OH248862   2.700   3.941   2.187  0.7862 -0.2187 -0.1786
 9124TIP3    H148863   2.701   3.915   2.095  0.6569 -0.3295 -0.1485
 9124TIP3    H248864   2.783   3.987   2.199  0.9790 -0.5415 -0.2508
 9125TIP3   OH248865   1.039   6.601   2.675 -0.5945 -0.8062  0.0688
 9125TIP3    H148866   0.944   6.608   2.668 -0.8271 -0.5640  2.4929
 9125TIP3    H248867   1.062   6.659   2.748  1.3518 -1.3036 -0.0881
 9126TIP3   OH248868   3.422   0.733   4.942 -1.1356 -0.7709 -0.0040
 9126TIP3    H148869   3.468   0.710   4.861  0.0690 -0.1786  0.4853
 9126TIP3    H248870   3.492   0.758   5.003 -2.1551  1.8427  0.2518
 9127TIP3   OH248871   6.643   1.509  12.595 -0.5515  0.1257 -0.1379
 9127TIP3    H148872   6.681   1.430  12.558 -2.1903 -0.2615 -1.1357
 9127TIP3    H248873   6.707   1.540  12.660  0.5201 -1.4934 -0.3798
 9128TIP3   OH248874   5.697   0.196  11.617 -0.0173  0.2083  0.0115
 9128TIP3    H148875   5.712   0.198  11.712  2.4249 -0.5874 -0.2953
 9128TIP3    H248876   5.660   0.282  11.597  0.9665  1.0189  1.4620
 9129TIP3   OH248877   1.298   5.538   4.985 -0.1245 -0.3922 -0.5576
 9129TIP3    H148878   1.266   5.449   4.971  3.7912 -1.8595 -1.3274
 9129TIP3    H248879   1.299   5.576   4.897  2.0432 -1.1315 -0.9041
 9130TIP3   OH248880   0.476   2.516   4.955 -0.1739  0.9954  0.1014
 9130TIP3    H148881   0.534   2.565   5.014  1.2149  1.8620 -1.8958
 9130TIP3    H248882   0.526   2.507   4.874 -0.9513 -2.4857 -0.1510
 9131TIP3   OH248883   6.626   3.572   6.254  0.5170  0.6428  0.1947
 9131TIP3    H148884   6.696   3.625   6.292  0.8660 -0.5653  1.2826
 9131TIP3    H248885   6.670   3.497   6.216  0.0132  1.0416 -1.2695
 9132TIP3   OH248886   4.442   2.560  15.039 -0.1731 -0.0121  0.8106
 9132TIP3    H148887   4.392   2.537  15.117 -1.9240 -1.8114 -0.7490
 9132TIP3    H248888   4.452   2.477  14.991 -0.1926  1.2233 -1.4590
 9133TIP3   OH248889   0.409   0.522  11.991  0.6127 -0.2434  0.0812
 9133TIP3    H148890   0.372   0.441  12.026  1.2827 -0.5245  0.1457
 9133TIP3    H248891   0.354   0.591  12.028  0.3979 -0.6268  0.4920
 9134TIP3   OH248892   4.197   4.310   3.442  0.3646 -0.1016  0.1430
 9134TIP3    H148893   4.193   4.301   3.347  0.1366 -1.0587  0.2323
 9134TIP3    H248894   4.208   4.404   3.457 -0.7688  0.2059 -0.7876
 9135TIP3   OH248895   4.748   3.220  12.458  0.2421 -0.2338  0.3329
 9135TIP3    H148896   4.802   3.235  12.535  1.1894 -2.7486  0.2684
 9135TIP3    H248897   4.810   3.218  12.385 -0.6056  1.7924 -0.5054
 9136TIP3   OH248898   5.047   3.294   4.607 -0.1463  0.3774 -0.0176
 9136TIP3    H148899   5.058   3.356   4.535  0.5146  0.1147 -0.1434
 9136TIP3    H248900   5.025   3.211   4.564 -0.5440  0.4075  0.1249
 9137TIP3   OH248901   2.219   0.715  14.917  0.1064  0.1251 -0.4952
 9137TIP3    H148902   2.259   0.658  14.852 -2.5051 -1.0504 -1.1819
 9137TIP3    H248903   2.133   0.676  14.934 -0.5422  2.1577  1.3382
 9138TIP3   OH248904   0.074   6.177  12.775  0.6576  0.6268 -0.5809
 9138TIP3    H148905   0.121   6.259  12.756  1.1037  0.8810  1.4368
 9138TIP3    H248906   0.137   6.123  12.821  0.0262 -0.4439 -0.9382
 9139TIP3   OH248907   4.027   1.388   4.964 -0.3207  0.6056 -0.0042
 9139TIP3    H148908   4.121   1.405   4.952 -0.0866 -1.0302 -0.7091
 9139TIP3    H248909   4.007   1.319   4.901 -1.8924  0.5377  0.5317
 9140TIP3   OH248910   2.507   5.511   6.197  0.2534 -0.5398  0.7687
 9140TIP3    H148911   2.498   5.606   6.204  0.9161 -0.4929  1.1354
 9140TIP3    H248912   2.573   5.498   6.129 -2.0091 -0.8485 -1.5162
 9141TIP3   OH248913   1.676   4.667  15.732 -0.2808  0.0711 -0.2688
 9141TIP3    H148914   1.659   4.573  15.721 -0.1750  0.0709 -0.4369
 9141TIP3    H248915   1.672   4.681  15.826  0.6215 -0.2873 -0.1614
 9142TIP3   OH248916   4.646   4.080  12.024  0.0341  0.4859  0.4498
 9142TIP3    H148917   4.710   4.030  11.973  0.5010  1.8629 -0.3522
 9142TIP3    H248918   4.562   4.063  11.981  0.4349  1.6960 -0.8747
 9143TIP3   OH248919   6.602   4.045   3.971  0.1463  0.4385 -0.1004
 9143TIP3    H148920   6.578   4.137   3.986 -3.2179  0.2266 -2.8369
 9143TIP3    H248921   6.567   3.999   4.048  0.6512  1.2432  0.6371
 9144TIP3   OH248922   4.713   4.977   0.347  0.4769 -0.3948 -0.3072
 9144TIP3    H148923   4.746   5.020   0.268  0.6655  0.0264 -0.0011
 9144TIP3    H248924   4.787   4.978   0.408  0.4900 -1.1748 -0.3010
 9145TIP3   OH248925   1.912   2.210  14.606 -0.1039 -0.0898 -0.0030
 9145TIP3    H148926   1.917   2.134  14.664 -0.8856  0.6163  1.0428
 9145TIP3    H248927   1.984   2.198  14.544 -0.0409 -1.5249  0.3149
 9146TIP3   OH248928   1.987   1.889   1.322  0.0536 -0.8253 -0.0721
 9146TIP3    H148929   1.938   1.829   1.265 -3.2179  1.5330 -0.0126
 9146TIP3    H248930   1.958   1.868   1.410 -0.8208  0.5296 -0.0163
 9147TIP3   OH248931   0.907   6.289  15.879 -0.0652  0.4131 -0.1148
 9147TIP3    H148932   0.915   6.270  15.786 -2.3449 -0.8886 -0.1468
 9147TIP3    H248933   0.906   6.202  15.921 -2.8023  0.7211  0.6615
 9148TIP3   OH248934   2.761   1.374   1.653 -0.1359 -0.1073  0.6763
 9148TIP3    H148935   2.780   1.326   1.733  0.3301  2.2292  2.0765
 9148TIP3    H248936   2.822   1.340   1.588 -0.1278 -1.6377  1.4641
 9149TIP3   OH248937   1.223   2.764   0.370  0.0633  0.5222  0.0778
 9149TIP3    H148938   1.264   2.739   0.287 -0.9214 -0.5319 -0.1041
 9149TIP3    H248939   1.272   2.842   0.398  0.3120  0.9853 -1.5620
 9150TIP3   OH248940   6.700   4.116   5.085 -0.3394 -0.2789 -0.8815
 9150TIP3    H148941   6.659   4.131   5.170 -1.5650  1.3976 -1.7262
 9150TIP3    H248942   6.794   4.122   5.103 -0.5670 -0.2513  0.3921
 9151TIP3   OH248943   2.332   5.651  11.717  0.6467 -0.5285  0.4622
 9151TIP3    H148944   2.270   5.585  11.747  1.2812 -1.7527 -0.7797
 9151TIP3    H248945   2.320   5.654  11.622 -0.2608  2.1304  0.5649
 9152TIP3   OH248946   2.539   0.621   3.311  0.0105 -0.4724 -0.4766
 9152TIP3    H148947   2.552   0.699   3.257  2.2239 -1.0412 -0.8582
 9152TIP3    H248948   2.478   0.567   3.261 -0.1707  0.2457 -1.0444
 9153TIP3   OH248949   3.062   0.627  12.475  0.0968  0.5702 -0.3347
 9153TIP3    H148950   3.148   0.591  12.453 -0.2296 -0.0639 -0.5981
 9153TIP3    H248951   3.078   0.684  12.550  0.7698  0.5701 -0.4736
 9154TIP3   OH248952   4.430   6.301   3.380 -0.2489  0.1485 -0.2062
 9154TIP3    H148953   4.427   6.393   3.408  0.2566 -0.4353  2.0189
 9154TIP3    H248954   4.339   6.274   3.376 -0.5198  1.1562 -2.6383
 9155TIP3   OH248955   1.649   2.843   2.437  0.1451  0.0423  0.1247
 9155TIP3    H148956   1.575   2.828   2.497 -1.3282 -0.9539 -1.8372
 9155TIP3    H248957   1.642   2.936   2.413 -0.2530  0.0344  0.2054
 9156TIP3   OH248958   0.553   3.906   6.099  0.1952 -0.2706  0.6837
 9156TIP3    H148959   0.594   3.870   6.178 -1.4375  0.6166  2.0240
 9156TIP3    H248960   0.584   3.996   6.094  0.6572 -0.4614  0.0257
 9157TIP3   OH248961   6.533   6.816  12.880 -0.0641 -0.0518  0.9984
 9157TIP3    H148962   6.457   6.856  12.837 -0.6013 -0.1899  1.8016
 9157TIP3    H248963   6.502   6.730  12.908  0.9943 -0.9478 -0.4390
 9158TIP3   OH248964   4.661   5.793   5.471 -0.7656  0.1245 -0.1125
 9158TIP3    H148965   4.584   5.742   5.446  0.1972 -0.7470 -1.4369
 9158TIP3    H248966   4.691   5.831   5.389  0.7039 -0.2601  0.2283
 9159TIP3   OH248967   5.763   1.913   2.042  0.8348  0.4175  0.3101
 9159TIP3    H148968   5.763   1.863   1.960 -0.6864 -1.3943  1.3386
 9159TIP3    H248969   5.811   1.993   2.021 -0.0516  0.3133 -2.5233
 9160TIP3   OH248970   4.286   3.393  11.742 -0.5089 -0.1640 -0.4927
 9160TIP3    H148971   4.326   3.474  11.774 -0.5404 -0.2328 -0.2783
 9160TIP3    H248972   4.253   3.415  11.655 -0.1210 -0.0686 -0.6190
 9161TIP3   OH248973   2.189   0.974  16.084 -0.0347 -0.1300  0.1172
 9161TIP3    H148974   2.184   0.922  16.004 -0.3690 -0.2494  0.2103
 9161TIP3    H248975   2.105   1.020  16.088 -0.2831 -0.6188  0.7216
 9162TIP3   OH248976   0.027   1.018   1.451  0.3750  0.2281  0.0539
 9162TIP3    H148977   0.064   0.988   1.368  1.0731  2.4415 -0.4853
 9162TIP3    H248978   0.085   0.980   1.518  0.7841 -0.2253 -0.5460
 9163TIP3   OH248979   6.614   3.463   4.967 -0.4064  0.2509 -0.0031
 9163TIP3    H148980   6.640   3.536   4.912 -1.3094  1.7266  1.4412
 9163TIP3    H248981   6.667   3.472   5.047  0.0428 -1.1488 -0.1114
 9164TIP3   OH248982   0.225   1.973  12.899 -0.4130 -0.1515 -0.0245
 9164TIP3    H148983   0.184   1.926  12.972 -0.8838 -0.3433 -0.4171
 9164TIP3    H248984   0.318   1.977  12.924 -0.9359  2.4975  2.1107
 9165TIP3   OH248985   6.716   4.102  15.240 -0.1710  0.2435  0.0449
 9165TIP3    H148986   6.653   4.123  15.171  1.0471  0.7329 -0.9473
 9165TIP3    H248987   6.664   4.104  15.321 -1.2377  1.6358 -0.6343
 9166TIP3   OH248988   3.370   6.428  16.294  0.2580  0.3660 -0.0487
 9166TIP3    H148989   3.329   6.343  16.308 -0.9555  0.6598 -1.5486
 9166TIP3    H248990   3.431   6.438  16.368 -0.8687 -0.9990  1.1224
 9167TIP3   OH248991   4.266   0.954  12.493 -0.2303 -0.0110 -0.0714
 9167TIP3    H148992   4.304   1.033  12.532 -1.7516  1.4395 -1.4032
 9167TIP3    H248993   4.188   0.936  12.546 -1.3765  1.0006 -1.3365
 9168TIP3   OH248994   6.802   0.622   4.955  0.4914  0.6511  0.3324
 9168TIP3    H148995   6.797   0.580   5.042  2.8279 -2.7155 -0.9630
 9168TIP3    H248996   6.730   0.582   4.906 -0.5383  2.2182  0.4706
 9169TIP3   OH248997   1.585   6.753   0.423  0.2657 -0.1415 -0.0969
 9169TIP3    H148998   1.521   6.682   0.420 -1.5511  1.4073 -1.2051
 9169TIP3    H248999   1.643   6.737   0.349 -0.4835 -0.2025 -0.6883
 9170TIP3   OH249000   4.220   0.691   2.839  0.4720  0.5382  0.0469
 9170TIP3    H149001   4.136   0.737   2.845 -0.1756 -0.6613  0.6647
 9170TIP3    H249002   4.205   0.622   2.774  0.2811 -1.0039  1.6537
 9171TIP3   OH249003   1.908   0.338   4.501 -0.1141 -0.3927  0.0827
 9171TIP3    H149004   1.895   0.359   4.409 -0.7395  1.4635  0.5495
 9171TIP3    H249005   2.001   0.356   4.517 -0.5307  1.7649  0.3536
 9172TIP3   OH249006   0.125   4.187  13.287 -0.4735 -0.1884  0.3236
 9172TIP3    H149007   0.134   4.213  13.379 -1.2752 -0.9876  0.6379
 9172TIP3    H249008   0.167   4.102  13.282 -0.5575 -0.2101 -0.0222
 9173TIP3   OH249009   4.282   1.388   0.010 -0.0473 -0.4987 -0.3036
 9173TIP3    H149010   4.287   1.475  -0.029 -1.5637 -0.9445 -1.5763
 9173TIP3    H249011   4.264   1.404   0.103  0.6166  0.5307 -0.3326
 9174TIP3   OH249012   0.047   2.205  16.909 -0.3703  0.0758 -0.4819
 9174TIP3    H149013   0.126   2.171  16.950 -0.3089 -0.4701 -1.0419
 9174TIP3    H249014  -0.025   2.175  16.966 -0.2623 -0.4259 -0.6035
 9175TIP3   OH249015   1.290   2.503   1.089 -1.3237  0.2822  0.0769
 9175TIP3    H149016   1.244   2.445   1.150 -0.6454  0.6996  0.9993
 9175TIP3    H249017   1.382   2.488   1.107 -1.0641 -0.4867 -1.7057
 9176TIP3   OH249018   4.865   1.715   3.016 -0.1148 -0.1952  0.7926
 9176TIP3    H149019   4.879   1.664   3.095  0.5403 -2.0138 -0.4274
 9176TIP3    H249020   4.777   1.690   2.987 -0.0323 -0.1787  0.5210
 9177TIP3   OH249021   2.554   5.644  12.802 -0.5752  0.0216 -0.0575
 9177TIP3    H149022   2.564   5.551  12.824 -1.7414 -0.3589 -1.0102
 9177TIP3    H249023   2.640   5.670  12.768 -0.7788 -1.3121 -1.7704
 9178TIP3   OH249024   1.982   6.509   0.304 -0.1163 -0.2283 -0.3810
 9178TIP3    H149025   1.989   6.429   0.252  0.0155 -0.3048 -0.2448
 9178TIP3    H249026   2.071   6.545   0.306  0.1694 -0.9533  0.9563
 9179TIP3   OH249027   4.947   4.556   0.602 -0.7431  0.2345  0.1528
 9179TIP3    H149028   4.939   4.466   0.573  0.2437 -0.2683  1.3323
 9179TIP3    H249029   4.931   4.552   0.697 -1.9423  1.4995  0.0369
 9180TIP3   OH249030   4.659   0.926   2.846 -0.9883 -0.0667  0.0647
 9180TIP3    H149031   4.682   0.858   2.783 -2.3269 -1.4886  1.0433
 9180TIP3    H249032   4.569   0.905   2.873 -0.3764  0.3277  2.6381
 9181TIP3   OH249033   0.327   3.834  12.671  0.5713  0.6073  0.4536
 9181TIP3    H149034   0.372   3.753  12.696  1.5656  1.1932  0.6174
 9181TIP3    H249035   0.269   3.853  12.744 -2.2559 -1.7411 -0.9938
 9182TIP3   OH249036   6.754   4.895  10.736  0.1030 -0.2886 -0.1929
 9182TIP3    H149037   6.786   4.839  10.665  1.1505 -0.1540  0.1584
 9182TIP3    H249038   6.832   4.939  10.769 -0.3898 -0.2195  0.9374
 9183TIP3   OH249039   4.846   6.736   0.698 -0.0433  0.0176  0.1463
 9183TIP3    H149040   4.803   6.721   0.613 -1.1644  0.2266  0.6551
 9183TIP3    H249041   4.782   6.787   0.748  0.7670  0.2251  0.9797
 9184TIP3   OH249042   6.594   0.326  11.715 -0.1292  0.1022  0.3827
 9184TIP3    H149043   6.510   0.365  11.690 -0.6033  1.1903  3.3217
 9184TIP3    H249044   6.655   0.400  11.717  0.6364 -0.4721 -0.4518
 9185TIP3   OH249045   0.184   0.353   2.334  0.3998  0.0552  0.1394
 9185TIP3    H149046   0.199   0.338   2.427 -0.3868 -0.6401  0.1652
 9185TIP3    H249047   0.134   0.434   2.330  0.2724 -0.0150  0.3262
 9186TIP3   OH249048   6.486   0.392   0.302 -0.1847 -0.1799 -0.5697
 9186TIP3    H149049   6.410   0.431   0.345  0.4698  0.6503 -0.1393
 9186TIP3    H249050   6.532   0.465   0.263  1.2421 -0.4386  0.5399
 9187TIP3   OH249051   4.033   3.353  12.906  0.3736  0.0283 -1.0210
 9187TIP3    H149052   4.104   3.412  12.931  0.6219 -0.1049 -1.3926
 9187TIP3    H249053   4.057   3.324  12.818 -0.6295  0.7340 -1.5458
 9188TIP3   OH249054   2.475   5.950  11.446  0.3611 -0.5946 -0.5924
 9188TIP3    H149055   2.531   6.023  11.420  0.1738  0.0411  0.7026
 9188TIP3    H249056   2.530   5.896  11.502 -0.0177 -0.4757 -0.0939
 9189TIP3   OH249057   3.663   1.013  14.926  0.0020 -0.5615 -0.1778
 9189TIP3    H149058   3.598   1.025  14.996 -0.3419 -2.1358 -0.1826
 9189TIP3    H249059   3.735   1.072  14.950 -0.1711 -0.9399  1.4290
 9190TIP3   OH249060   6.296   3.930  13.823  0.1060  0.0249  0.5077
 9190TIP3    H149061   6.341   3.916  13.740  1.5091  2.9950  0.6135
 9190TIP3    H249062   6.248   4.013  13.810  0.8177  0.8639  2.7836
 9191TIP3   OH249063   5.137   6.311   2.390 -0.3114 -0.0921  0.4220
 9191TIP3    H149064   5.217   6.363   2.383  0.9318 -1.8829  0.7583
 9191TIP3    H249065   5.166   6.226   2.422 -2.2347 -1.0989 -0.3272
 9192TIP3   OH249066   3.124   1.117  17.036  0.2915 -0.4650  0.5581
 9192TIP3    H149067   3.210   1.156  17.018 -0.4350  1.3919  0.9088
 9192TIP3    H249068   3.073   1.136  16.957 -0.6142  0.9219  1.4530
 9193TIP3   OH249069   6.692   4.183  12.902  0.1931  0.6303 -0.1959
 9193TIP3    H149070   6.651   4.246  12.961 -1.4973 -1.3491  0.8677
 9193TIP3    H249071   6.679   4.219  12.815 -0.1943  2.0190  0.4166
 9194TIP3   OH249072   1.930   0.058   3.723  0.2175 -0.0282  0.0419
 9194TIP3    H149073   1.896   0.147   3.735  1.3837  0.3318  0.9406
 9194TIP3    H249074   2.023   0.071   3.703  0.2070 -1.0264 -0.7212
 9195TIP3   OH249075   5.449   2.231  16.825  0.2112 -0.0606  0.2047
 9195TIP3    H149076   5.405   2.280  16.755 -0.3182 -1.2661 -0.3486
 9195TIP3    H249077   5.459   2.294  16.896 -1.4203  0.5598 -0.0689
 9196TIP3   OH249078   4.032   0.041  12.779  0.0691  0.4070 -0.0746
 9196TIP3    H149079   4.050   0.080  12.865  3.4588 -0.9534 -0.0460
 9196TIP3    H249080   3.967  -0.028  12.798 -1.1542  1.7687  0.9058
 9197TIP3   OH249081   0.389   5.078   4.288 -0.3135 -0.4014  0.0777
 9197TIP3    H149082   0.328   5.150   4.300  0.1277 -0.3102  2.3809
 9197TIP3    H249083   0.474   5.115   4.312 -0.3277 -2.0279  3.1758
 9198TIP3   OH249084   0.690   6.010  13.713 -0.0419 -0.3114 -0.9878
 9198TIP3    H149085   0.777   6.048  13.721  0.3151 -0.9894 -1.5341
 9198TIP3    H249086   0.696   5.951  13.638 -0.5509 -1.4693 -0.1482
 9199TIP3   OH249087   3.484   1.146  11.997 -0.1770  0.0810  0.0272
 9199TIP3    H149088   3.543   1.085  12.041  0.8816  1.8912  1.2236
 9199TIP3    H249089   3.396   1.115  12.022  0.3063 -1.1164  0.3496
 9200TIP3   OH249090   5.696   6.153  16.078  0.3317 -0.2038 -0.4184
 9200TIP3    H149091   5.623   6.092  16.084 -0.2951  0.1561 -3.0792
 9200TIP3    H249092   5.744   6.142  16.160 -1.1671 -2.4245  0.2357
 9201TIP3   OH249093   2.017   2.011  15.703  0.0990  0.2914  0.0023
 9201TIP3    H149094   1.932   1.991  15.665 -1.1032 -0.7686  2.9306
 9201TIP3    H249095   2.079   1.958  15.654 -0.5782  2.1371 -3.1335
 9202TIP3   OH249096   3.788   0.899   1.776  0.0475  0.0721 -0.5285
 9202TIP3    H149097   3.795   0.809   1.807 -0.9334 -0.2224 -1.1201
 9202TIP3    H249098   3.804   0.953   1.853 -0.3778 -0.6183  0.0463
 9203TIP3   OH249099   0.805   1.810   5.061  0.0824  0.5094  0.5052
 9203TIP3    H149100   0.729   1.758   5.085 -0.2377 -0.1369 -1.6552
 9203TIP3    H249101   0.868   1.747   5.026  1.0370  1.2051  0.9161
 9204TIP3   OH249102   0.316   5.914   5.514  0.0241  0.1333 -0.2496
 9204TIP3    H149103   0.336   5.970   5.439 -0.5562 -0.1310 -0.6087
 9204TIP3    H249104   0.306   5.975   5.587  0.6819  0.3873 -0.3558
 9205TIP3   OH249105   5.574   6.238  13.783  0.0479  0.5285 -0.1719
 9205TIP3    H149106   5.552   6.149  13.756 -0.4125  0.6396 -0.1731
 9205TIP3    H249107   5.516   6.255  13.858  1.4066  0.1634  1.0086
 9206TIP3   OH249108   1.922   4.477  11.906 -0.1889 -0.0166 -0.4432
 9206TIP3    H149109   1.985   4.536  11.946 -0.0489 -0.6635  0.2948
 9206TIP3    H249110   1.973   4.425  11.844 -0.3993  0.9570 -1.4814
 9207TIP3   OH249111   4.312   2.213   2.891  0.1425  0.3490 -0.4436
 9207TIP3    H149112   4.380   2.215   2.958 -0.4635  0.2866  0.1889
 9207TIP3    H249113   4.345   2.270   2.822  0.9396  0.1290 -0.2493
 9208TIP3   OH249114   3.710   0.621  14.733  0.1923 -0.0867  0.3026
 9208TIP3    H149115   3.717   0.583  14.820  0.3112  0.9091  0.7383
 9208TIP3    H249116   3.616   0.620  14.714  0.2259 -0.9424  0.1394
 9209TIP3   OH249117   5.367   3.838  10.470  0.4542 -0.0625  0.1489
 9209TIP3    H149118   5.400   3.797  10.550  2.1164  3.1669  1.3288
 9209TIP3    H249119   5.317   3.913  10.501  0.6822  0.9580 -1.8222
 9210TIP3   OH249120   3.092   2.869   0.963  0.9156 -0.1031  0.1638
 9210TIP3    H149121   3.016   2.816   0.987  0.4120 -0.2090 -1.4877
 9210TIP3    H249122   3.137   2.886   1.045 -0.3777 -0.8413  1.0620
 9211TIP3   OH249123   2.682   0.182   6.460 -0.5785 -0.3045 -0.0251
 9211TIP3    H149124   2.664   0.230   6.379 -0.5051  0.0114  0.1454
 9211TIP3    H249125   2.684   0.249   6.528  0.2386 -0.4671  0.1119
 9212TIP3   OH249126   3.104   5.224  15.605 -0.0781 -0.3393 -0.3178
 9212TIP3    H149127   3.100   5.131  15.626 -1.3892 -0.1732  0.2493
 9212TIP3    H249128   3.186   5.255  15.645 -0.2011 -1.0072  0.4577
 9213TIP3   OH249129   3.984   6.478   1.615 -0.5345  0.3432 -0.3190
 9213TIP3    H149130   3.906   6.429   1.642 -0.7615  0.7774 -0.1625
 9213TIP3    H249131   3.976   6.485   1.520  0.5569 -1.6750 -0.6036
 9214TIP3   OH249132   3.070   3.836  13.757 -0.0213  0.4084 -0.0264
 9214TIP3    H149133   3.126   3.872  13.826 -1.4329  0.1836  1.2667
 9214TIP3    H249134   3.128   3.780  13.706  0.9136  0.1068  1.3307
 9215TIP3   OH249135   3.723   5.453  15.808 -0.4506 -0.1701  0.1472
 9215TIP3    H149136   3.631   5.472  15.787 -0.6019 -0.2899  0.6731
 9215TIP3    H249137   3.763   5.432  15.724 -0.6374  0.9735 -0.2439
 9216TIP3   OH249138   5.785   0.918  12.012 -0.1439  0.0005 -0.1364
 9216TIP3    H149139   5.740   0.908  12.096 -0.4010  2.3121  0.0528
 9216TIP3    H249140   5.715   0.911  11.947 -0.0645 -0.9681 -0.1309
 9217TIP3   OH249141   5.124   2.130  16.093 -0.0673 -0.2396 -0.1005
 9217TIP3    H149142   5.077   2.197  16.044 -0.0375 -1.1597 -1.4166
 9217TIP3    H249143   5.176   2.084  16.028  0.7025 -0.8993  0.9449
 9218TIP3   OH249144   0.086   0.104   2.286  0.3126 -0.1884  0.6792
 9218TIP3    H149145   0.120   0.192   2.303  2.5544 -0.6932 -0.7593
 9218TIP3    H249146   0.161   0.046   2.300 -0.5558 -1.6640 -0.4650
 9219TIP3   OH249147   5.513   0.028   1.765  0.3640 -0.6469  0.1816
 9219TIP3    H149148   5.451   0.085   1.811 -0.7943  0.3244 -2.4146
 9219TIP3    H249149   5.574   0.000   1.833  0.3142  2.7588  1.8099
 9220TIP3   OH249150   6.309   5.657  12.156  0.1270  0.2489 -0.1583
 9220TIP3    H149151   6.330   5.614  12.239 -1.3971  1.2457  0.8056
 9220TIP3    H249152   6.300   5.750  12.179  1.5411  0.8489 -1.8256
 9221TIP3   OH249153   2.658   2.999  16.383 -0.0665 -0.5079 -0.1260
 9221TIP3    H149154   2.696   2.926  16.431 -0.1086 -0.6606 -0.3270
 9221TIP3    H249155   2.703   3.076  16.418  1.9204 -0.8356 -1.7681
 9222TIP3   OH249156   5.705   2.330  14.144  0.3029 -0.4429 -0.2882
 9222TIP3    H149157   5.691   2.236  14.157 -0.3227 -0.0796  2.3914
 9222TIP3    H249158   5.774   2.352  14.207 -1.5340  1.3243  1.2425
 9223TIP3   OH249159   3.325   4.851   5.998  0.3178 -0.3535  0.0263
 9223TIP3    H149160   3.334   4.756   5.998  3.0892 -0.1703  1.1504
 9223TIP3    H249161   3.341   4.877   5.907 -0.9778 -0.9539 -0.3936
 9224TIP3   OH249162   4.913   0.942   1.554  0.2360  0.2194  0.0115
 9224TIP3    H149163   4.851   0.875   1.582  0.9247 -0.6259 -0.4278
 9224TIP3    H249164   4.915   1.004   1.627  1.4996 -1.5896  1.6179
 9225TIP3   OH249165   4.693   0.717  11.464  0.1201  0.5463 -0.3455
 9225TIP3    H149166   4.754   0.683  11.530 -0.7438 -2.1138 -0.8366
 9225TIP3    H249167   4.749   0.738  11.389  0.6218 -0.5898 -0.3118
 9226TIP3   OH249168   3.614   3.426  12.559 -0.0303  0.1207  0.3405
 9226TIP3    H149169   3.523   3.414  12.584 -0.1461 -3.4249 -1.2766
 9226TIP3    H249170   3.663   3.367  12.617  0.7083 -1.1445 -1.4970
 9227TIP3   OH249171   2.818   2.102  11.280  0.0487 -0.2262 -0.2098
 9227TIP3    H149172   2.834   2.009  11.299 -0.8341 -0.1989  0.7127
 9227TIP3    H249173   2.806   2.143  11.365  1.4418  0.9573 -0.5433
 9228TIP3   OH249174   6.009   6.466  10.807 -0.3498 -0.2383  0.0731
 9228TIP3    H149175   5.983   6.476  10.716  0.5165  1.2223 -0.0497
 9228TIP3    H249176   6.043   6.552  10.832 -1.6675 -0.2597  2.1421
 9229TIP3   OH249177   4.211   4.422   1.789  1.3132  0.2209 -0.2019
 9229TIP3    H149178   4.239   4.427   1.698 -0.2406 -2.2278 -0.9282
 9229TIP3    H249179   4.235   4.333   1.817 -0.0379  0.2108  1.0821
 9230TIP3   OH249180   0.477   6.112   2.551  0.4497  0.0269 -0.0529
 9230TIP3    H149181   0.428   6.178   2.502 -0.8613 -0.9675 -0.1399
 9230TIP3    H249182   0.545   6.082   2.491  1.4712  1.7202  0.2096
 9231TIP3   OH249183   0.066   1.404   4.340  0.5981 -0.0760  0.6495
 9231TIP3    H149184   0.009   1.334   4.310  1.3494 -0.3829 -0.1135
 9231TIP3    H249185   0.154   1.374   4.318  0.8689  1.5547 -0.6548
 9232TIP3   OH249186   0.017   3.676  12.843  0.0045  0.0027 -0.0380
 9232TIP3    H149187  -0.033   3.651  12.766  0.6611  0.2815 -0.5678
 9232TIP3    H249188  -0.027   3.754  12.876 -0.8959 -0.7086  0.4874
 9233TIP3   OH249189   6.206   3.656   3.518 -0.9199 -0.0134  0.4104
 9233TIP3    H149190   6.122   3.623   3.487 -0.5708  0.4875 -1.1370
 9233TIP3    H249191   6.271   3.609   3.467 -0.3599  1.6302 -0.4531
 9234TIP3   OH249192   0.110   4.102  16.780 -0.3494 -0.7426 -0.2026
 9234TIP3    H149193   0.071   4.159  16.847  0.0980 -1.2186  0.4762
 9234TIP3    H249194   0.070   4.017  16.796 -2.1004 -0.3733 -2.1062
 9235TIP3   OH249195   4.533   2.957   5.878 -0.4572  0.3875 -0.2756
 9235TIP3    H149196   4.559   2.866   5.867 -0.6496  0.1583  1.0369
 9235TIP3    H249197   4.615   3.006   5.872  0.1373 -0.1818  2.1185
 9236TIP3   OH249198   2.608   2.987  15.358 -0.0466  0.4376 -0.7774
 9236TIP3    H149199   2.634   3.021  15.272  0.9080  0.1426 -0.6128
 9236TIP3    H249200   2.661   3.037  15.420  0.8711 -0.8558 -0.4888
 9237TIP3   OH249201   5.926   2.382  13.381 -0.5792  0.4940  0.9429
 9237TIP3    H149202   5.968   2.435  13.314  2.1316 -0.6361  1.6256
 9237TIP3    H249203   5.889   2.307  13.333 -2.4848  1.7668  0.2711
 9238TIP3   OH249204   3.114   4.494  13.062 -0.1637  0.0235  0.3059
 9238TIP3    H149205   3.125   4.437  12.985  1.0631  0.0654  0.4315
 9238TIP3    H249206   3.024   4.480  13.089 -0.4434 -0.4268 -0.8067
 9239TIP3   OH249207   4.152   3.383  15.931  0.1111  0.5736  1.1759
 9239TIP3    H149208   4.080   3.437  15.965  0.9647  0.6855  2.9103
 9239TIP3    H249209   4.231   3.422  15.970  1.0100 -0.2355  0.2102
 9240TIP3   OH249210   3.918   5.121   0.594  0.1875  0.9209  0.5476
 9240TIP3    H149211   3.944   5.032   0.570 -0.6980  0.7764  0.0841
 9240TIP3    H249212   3.860   5.149   0.523  0.5725  1.9280  0.6129
 9241TIP3   OH249213   5.977   6.256   2.625 -0.3766  1.0629 -0.1561
 9241TIP3    H149214   5.981   6.318   2.698  0.9584 -0.0621  0.7599
 9241TIP3    H249215   6.055   6.202   2.635  0.3535  1.4538 -2.9628
 9242TIP3   OH249216   3.353   2.237   5.561 -0.2270  0.3907 -0.3850
 9242TIP3    H149217   3.395   2.305   5.507  0.9458  1.0237  1.2499
 9242TIP3    H249218   3.422   2.206   5.619 -0.8412 -1.9834 -0.8088
 9243TIP3   OH249219   4.686   6.697   1.834 -0.7350 -0.1202 -0.7576
 9243TIP3    H149220   4.605   6.656   1.803 -1.3319  0.1125  0.4488
 9243TIP3    H249221   4.685   6.784   1.795 -1.6558  0.2996  0.1568
 9244TIP3   OH249222   3.600   5.153   0.550  0.3570  0.2460 -0.5232
 9244TIP3    H149223   3.678   5.148   0.496  1.2534 -0.5877  0.8047
 9244TIP3    H249224   3.551   5.073   0.529 -1.0174  1.5181 -2.5540
 9245TIP3   OH249225   2.027   3.391   6.547 -0.4931  0.0491  0.3912
 9245TIP3    H149226   1.963   3.453   6.582 -1.8679 -0.1526 -1.5817
 9245TIP3    H249227   1.976   3.311   6.531  0.6942 -0.7624  0.5792
 9246TIP3   OH249228   4.875   5.497   2.558 -0.0321  0.7082 -0.3328
 9246TIP3    H149229   4.810   5.481   2.490 -0.1234  1.6114 -0.4607
 9246TIP3    H249230   4.852   5.581   2.596  1.0360  1.0333 -0.3527
 9247TIP3   OH249231   5.154   1.027  16.871  0.6777 -0.2658  0.3540
 9247TIP3    H149232   5.077   1.003  16.923  1.5158 -0.5976  1.4799
 9247TIP3    H249233   5.184   0.945  16.832  1.3694 -0.4284  1.1990
 9248TIP3   OH249234   0.721   1.468  14.705 -0.5997 -0.4337 -0.2551
 9248TIP3    H149235   0.636   1.504  14.731  0.0785 -0.4314  2.1427
 9248TIP3    H249236   0.710   1.373  14.712 -0.6779 -0.4856 -0.9584
 9249TIP3   OH249237   0.323   1.753  15.134 -0.0021  0.7477  0.7300
 9249TIP3    H149238   0.299   1.832  15.182 -2.5399 -0.9677  2.5082
 9249TIP3    H249239   0.310   1.682  15.197  0.0190 -1.3050 -1.4507
 9250TIP3   OH249240   2.467   5.488  15.057 -0.0653  0.0917 -0.1893
 9250TIP3    H149241   2.443   5.566  15.008  0.8892  0.2431 -0.4449
 9250TIP3    H249242   2.502   5.428  14.991 -0.6540 -0.5019  0.0265
 9251TIP3   OH249243   3.516   0.862  15.551  0.0278  0.5056  0.1582
 9251TIP3    H149244   3.521   0.918  15.629  0.0777  1.5923 -0.6052
 9251TIP3    H249245   3.583   0.795  15.566  0.3888  0.9992  0.8309
 9252TIP3   OH249246   0.488   3.197  14.789 -0.1406 -0.0353 -0.5520
 9252TIP3    H149247   0.417   3.173  14.849 -0.4712  2.2327  0.0758
 9252TIP3    H249248   0.462   3.161  14.705 -1.2547 -0.5863  0.0047
 9253TIP3   OH249249   1.073   2.260   3.221 -0.3462  0.2712  0.1262
 9253TIP3    H149250   1.055   2.282   3.130 -1.2624 -0.8291  0.0248
 9253TIP3    H249251   1.022   2.324   3.272 -1.3327 -0.2841 -0.1502
 9254TIP3   OH249252   6.285   1.722   3.945 -0.1773 -0.0020 -0.0776
 9254TIP3    H149253   6.253   1.641   3.906 -2.1608  0.8538 -0.3492
 9254TIP3    H249254   6.271   1.789   3.878  2.6945  0.4204 -0.4037
 9255TIP3   OH249255   2.862   0.125   1.294 -0.1900 -0.4105 -0.0062
 9255TIP3    H149256   2.904   0.183   1.231  2.3048 -0.3870  1.5601
 9255TIP3    H249257   2.811   0.184   1.350 -0.4554 -0.1639 -0.5014
 9256TIP3   OH249258   1.374   5.572   4.511 -0.2063  0.5145  0.2048
 9256TIP3    H149259   1.370   5.486   4.469  0.3757  0.6145 -0.0554
 9256TIP3    H249260   1.432   5.623   4.456  0.8120  0.5655  1.2830
 9257TIP3   OH249261   0.915   2.104   1.595  0.1022 -0.4918  0.2107
 9257TIP3    H149262   0.855   2.030   1.589 -0.6121  0.1314 -0.4987
 9257TIP3    H249263   0.859   2.179   1.615  0.4374  0.3408 -1.7343
 9258TIP3   OH249264   3.249   3.276   0.289 -0.1481  0.0694  0.7683
 9258TIP3    H149265   3.251   3.183   0.267 -0.8687  0.1082  0.5250
 9258TIP3    H249266   3.341   3.300   0.298  0.1232 -0.3072 -0.7258
 9259TIP3   OH249267   0.086   0.927  13.864 -0.0920 -0.1445  0.8184
 9259TIP3    H149268   0.005   0.889  13.897 -0.3262  0.3598  0.8236
 9259TIP3    H249269   0.112   0.868  13.793 -2.1485  1.3515 -1.3406
 9260TIP3   OH249270   0.292   6.695   2.011 -0.0010  0.6206 -0.1899
 9260TIP3    H149271   0.284   6.625   2.076  0.9987 -0.1761 -0.8928
 9260TIP3    H249272   0.351   6.759   2.052  1.0635 -0.1361 -0.5004
 9261TIP3   OH249273   4.935   3.128   4.883 -0.5801 -0.6081  0.0023
 9261TIP3    H149274   4.876   3.134   4.808 -0.3938  1.0541 -0.0443
 9261TIP3    H249275   4.981   3.212   4.884 -0.6870 -0.5320  2.0700
 9262TIP3   OH249276   5.114   3.054   0.853 -0.0021 -0.4243 -0.0065
 9262TIP3    H149277   5.092   2.973   0.808 -1.1589  0.3351 -0.8808
 9262TIP3    H249278   5.063   3.051   0.934 -0.2242 -0.4740 -0.1475
 9263TIP3   OH249279   4.046   4.772   1.807 -0.2944 -0.6050  0.6208
 9263TIP3    H149280   4.127   4.806   1.769 -0.0521 -1.6844  0.1282
 9263TIP3    H249281   4.065   4.764   1.901  1.0900 -3.1698  0.2140
 9264TIP3   OH249282   1.118   6.323   3.454  0.4992 -1.1237  0.0562
 9264TIP3    H149283   1.080   6.238   3.429  0.1678 -0.8460 -0.4042
 9264TIP3    H249284   1.057   6.359   3.518  0.3274 -0.9728 -0.1897
 9265TIP3   OH249285   5.046   3.369   0.077  0.1349  0.1019 -0.6381
 9265TIP3    H149286   5.001   3.419   0.145 -0.3327 -1.0190 -0.0921
 9265TIP3    H249287   5.097   3.434   0.029 -0.0712  1.0217  0.3491
 9266TIP3   OH249288   2.707   6.801   6.076 -0.8213  0.0088 -0.0556
 9266TIP3    H149289   2.735   6.755   5.997 -1.5093 -1.0841  0.3228
 9266TIP3    H249290   2.731   6.743   6.148 -2.5963 -0.2485  0.3659
 9267TIP3   OH249291   3.606   2.988   1.702  0.9465 -0.0652 -0.1738
 9267TIP3    H149292   3.515   2.979   1.729  1.2115 -0.7994  0.5264
 9267TIP3    H249293   3.610   3.073   1.659 -0.0047  0.1068  0.0563
 9268TIP3   OH249294   3.132   3.428  15.172  0.1258 -0.1791 -0.3799
 9268TIP3    H149295   3.118   3.333  15.165  3.1003 -0.6213 -1.6684
 9268TIP3    H249296   3.209   3.437  15.228 -2.0847  1.7793  2.6409
 9269TIP3   OH249297   4.958   3.558   2.422  0.3873  0.0855  0.1867
 9269TIP3    H149298   4.915   3.521   2.344  1.4854 -1.1786  0.1403
 9269TIP3    H249299   4.888   3.562   2.488  0.2015 -2.2807  0.2267
 9270TIP3   OH249300   1.494   1.326   5.368 -0.5888 -0.0375  0.8824
 9270TIP3    H149301   1.584   1.354   5.352 -1.0661  0.7223 -0.8354
 9270TIP3    H249302   1.491   1.235   5.338 -0.7860  0.5120 -0.9425
 9271TIP3   OH249303   0.236   3.581   0.758 -0.2902 -0.1308 -0.5018
 9271TIP3    H149304   0.242   3.659   0.812 -3.2047 -0.1165 -0.0569
 9271TIP3    H249305   0.206   3.512   0.817  3.1919 -2.0196 -0.6200
 9272TIP3   OH249306   5.897   0.142   1.416  0.1767 -0.4353 -0.4847
 9272TIP3    H149307   5.816   0.159   1.464 -0.3524  1.7157 -2.0197
 9272TIP3    H249308   5.946   0.224   1.421  1.1216 -0.8939 -1.6934
 9273TIP3   OH249309   4.301   5.714   0.357 -0.3022  0.1883 -0.1403
 9273TIP3    H149310   4.229   5.681   0.303 -0.2497  1.7567 -1.2261
 9273TIP3    H249311   4.258   5.762   0.428 -0.3322  0.8594 -0.6116
 9274TIP3   OH249312   2.195   0.351  13.025  0.0576  0.9095  0.0153
 9274TIP3    H149313   2.289   0.355  13.042  0.1916  1.9970 -0.8460
 9274TIP3    H249314   2.167   0.270  13.065  0.8462  1.8768  2.7317
 9275TIP3   OH249315   6.131   6.634   3.240  0.0061  0.0673 -0.3906
 9275TIP3    H149316   6.150   6.595   3.325 -0.7457  0.4737 -0.0261
 9275TIP3    H249317   6.087   6.716   3.260  2.0940  1.4635 -1.1111
 9276TIP3   OH249318   3.196   5.074   6.024 -0.3281  0.5081  0.7552
 9276TIP3    H149319   3.230   4.985   6.032  0.4011  0.4547 -1.8923
 9276TIP3    H249320   3.162   5.095   6.111  2.0237 -1.2936  2.2341
 9277TIP3   OH249321   1.918   3.777   2.887 -1.0132 -1.2161  0.9009
 9277TIP3    H149322   2.009   3.791   2.862 -1.5635 -1.1369 -1.2999
 9277TIP3    H249323   1.922   3.717   2.962  0.8600 -0.0288  1.8288
 9278TIP3   OH249324   1.123   4.450   0.734 -0.1753  0.5479 -0.0218
 9278TIP3    H149325   1.207   4.465   0.777  0.1326 -2.1427  0.5102
 9278TIP3    H249326   1.060   4.448   0.807 -0.2103 -0.3234 -0.0565
 9279TIP3   OH249327   0.149   4.662  15.166  1.0603 -0.1465 -0.5574
 9279TIP3    H149328   0.156   4.757  15.176  1.1614 -0.2389  0.3457
 9279TIP3    H249329   0.216   4.627  15.225  0.6574 -0.7853 -0.4702
 9280TIP3   OH249330   6.424   3.341  10.499 -0.2795  0.0123  0.1521
 9280TIP3    H149331   6.446   3.270  10.558 -0.0894 -0.7462 -0.8062
 9280TIP3    H249332   6.340   3.375  10.532  0.4611  0.4917  1.6184
 9281TIP3   OH249333   0.943   1.556   5.184  0.9513 -0.0108  0.0550
 9281TIP3    H149334   0.921   1.637   5.232 -0.9211 -0.0845 -0.5985
 9281TIP3    H249335   0.975   1.496   5.252  0.2452  0.5420  0.9015
 9282TIP3   OH249336   4.496   2.927   0.453  0.0335 -0.4093 -0.3088
 9282TIP3    H149337   4.566   2.941   0.517 -0.6708  0.1703  0.3598
 9282TIP3    H249338   4.416   2.954   0.498 -0.5581 -0.5186 -1.2500
 9283TIP3   OH249339   0.631   4.413   2.329 -0.0361 -0.5096  0.2593
 9283TIP3    H149340   0.693   4.480   2.358 -0.4004  0.1056 -0.3300
 9283TIP3    H249341   0.579   4.457   2.261  0.3994 -1.6976 -0.8935
 9284TIP3   OH249342   1.071   1.120  10.949  0.2863  0.3336  0.8791
 9284TIP3    H149343   1.052   1.209  10.919 -0.1117 -0.4233 -1.2945
 9284TIP3    H249344   1.134   1.086  10.885 -2.4328 -2.2132 -0.6929
 9285TIP3   OH249345   1.862   6.530   2.568 -0.0031 -0.4640 -0.0523
 9285TIP3    H149346   1.867   6.523   2.664 -0.3279  2.2928  0.2589
 9285TIP3    H249347   1.768   6.533   2.549  0.0635 -0.6899 -0.4208
 9286TIP3   OH249348   4.902   5.583  16.511 -0.3835 -0.2095  0.5740
 9286TIP3    H149349   4.875   5.674  16.522 -0.1820 -0.3070  2.1234
 9286TIP3    H249350   4.834   5.532  16.556 -0.2617 -0.7955  0.1150
 9287TIP3   OH249351   1.441   1.868   0.215 -0.0075 -0.0531  0.0679
 9287TIP3    H149352   1.359   1.825   0.239 -1.0244  1.0040 -1.3693
 9287TIP3    H249353   1.446   1.944   0.273 -0.3370  0.1917 -0.2216
 9288TIP3   OH249354   4.271   0.925   0.750  0.2887 -0.7893  0.4217
 9288TIP3    H149355   4.365   0.925   0.729  0.8605  0.1683  2.6722
 9288TIP3    H249356   4.235   0.996   0.697  1.5386  1.1251  1.9932
 9289TIP3   OH249357   3.675   3.711  13.652  0.2364  0.5342  0.1141
 9289TIP3    H149358   3.762   3.747  13.634  0.4369  0.1321  0.2703
 9289TIP3    H249359   3.641   3.687  13.565  1.3678 -1.7774  0.2263
 9290TIP3   OH249360   3.275   6.143  17.213  0.8220  0.0407  0.3254
 9290TIP3    H149361   3.306   6.113  17.299  0.4566 -0.1600  0.3882
 9290TIP3    H249362   3.183   6.117  17.211  1.0276 -0.6477 -0.4485
 9291TIP3   OH249363   5.169   6.141   4.358  0.9012  0.5105 -0.5644
 9291TIP3    H149364   5.191   6.222   4.404  1.8989  0.5746 -1.1339
 9291TIP3    H249365   5.215   6.147   4.274 -0.7697  0.3352 -1.5371
 9292TIP3   OH249366   4.502   2.968  16.863 -0.3898 -0.0234 -0.0351
 9292TIP3    H149367   4.582   2.955  16.914 -0.1346 -2.2831 -0.8917
 9292TIP3    H249368   4.532   2.972  16.772 -1.1613  0.1998 -0.2875
 9293TIP3   OH249369   4.262   5.184   2.807 -0.0635  0.3604 -0.5105
 9293TIP3    H149370   4.318   5.257   2.837  0.5687  0.5452 -2.0619
 9293TIP3    H249371   4.221   5.152   2.887  0.1821  1.9768  0.3123
 9294TIP3   OH249372   2.537   5.637  14.643 -0.0976 -0.2233 -0.1090
 9294TIP3    H149373   2.609   5.694  14.613  0.2850 -0.9287 -0.5743
 9294TIP3    H249374   2.575   5.549  14.642 -0.9348 -0.5913 -0.2341
 9295TIP3   OH249375   2.777   2.833  13.310  0.1181  0.2832  1.1796
 9295TIP3    H149376   2.818   2.747  13.317 -0.6616 -0.1881  0.1849
 9295TIP3    H249377   2.693   2.823  13.356 -0.8445 -0.0918 -0.5778
 9296TIP3   OH249378   4.237   6.301   2.175 -0.1959  0.2634  0.1960
 9296TIP3    H149379   4.329   6.295   2.201 -0.0033 -0.4812 -0.6295
 9296TIP3    H249380   4.238   6.354   2.096 -0.2957 -0.9834 -0.6614
 9297TIP3   OH249381   3.790   5.255  15.297  0.4277  0.0330 -0.0429
 9297TIP3    H149382   3.876   5.293  15.279 -0.8136  2.7947 -0.7805
 9297TIP3    H249383   3.756   5.306  15.370 -0.7984 -0.6569 -0.1027
 9298TIP3   OH249384   5.343   0.766  15.335  0.1169 -0.1692  0.5842
 9298TIP3    H149385   5.403   0.833  15.367  2.2926 -2.3733  1.3563
 9298TIP3    H249386   5.367   0.753  15.244 -0.7194  0.4686  0.2535
 9299TIP3   OH249387   3.972   4.538  15.349  0.0313 -0.6677 -0.1300
 9299TIP3    H149388   3.910   4.563  15.418 -0.3670 -0.1756 -0.6542
 9299TIP3    H249389   3.917   4.500  15.280  0.3615 -0.6379 -0.4111
 9300TIP3   OH249390   6.298   0.891   4.336 -0.1549  0.0419 -0.0514
 9300TIP3    H149391   6.224   0.897   4.396  0.4500 -0.6469  0.7959
 9300TIP3    H249392   6.341   0.809   4.359  1.7357  1.1316  0.5017
 9301TIP3   OH249393   0.290   3.953  12.249  1.0091  0.2626 -0.3898
 9301TIP3    H149394   0.287   4.017  12.321 -0.3507 -0.6335  0.3951
 9301TIP3    H249395   0.318   3.872  12.291 -0.1741 -0.3688 -0.7867
 9302TIP3   OH249396   4.178   3.314   0.054 -0.0344 -0.5462 -0.1783
 9302TIP3    H149397   4.245   3.268   0.105  0.0925 -1.2160 -0.9187
 9302TIP3    H249398   4.207   3.405   0.051 -0.6322 -0.2429  1.8793
 9303TIP3   OH249399   1.006   1.385   6.074 -0.1339 -0.0280 -0.7869
 9303TIP3    H149400   1.023   1.356   6.163 -1.0655  1.1882 -0.1911
 9303TIP3    H249401   1.065   1.459   6.061 -2.1888  1.8259 -0.0246
 9304TIP3   OH249402   1.131   0.642  13.817  0.0401 -0.2791 -0.3941
 9304TIP3    H149403   1.086   0.569  13.775  1.0719 -0.4495 -1.2437
 9304TIP3    H249404   1.183   0.601  13.886  0.1067 -0.2607 -0.4342
 9305TIP3   OH249405   0.670   3.406   2.285 -0.1619  0.5984 -0.1459
 9305TIP3    H149406   0.667   3.430   2.192  2.1561 -0.3858 -0.5316
 9305TIP3    H249407   0.708   3.482   2.328 -0.2898  0.6659 -0.1512
 9306TIP3   OH249408   4.410   6.390   4.105 -0.2403 -0.3163  0.2683
 9306TIP3    H149409   4.480   6.344   4.151  0.1731 -1.4754 -1.4491
 9306TIP3    H249410   4.332   6.335   4.119 -0.2175 -0.4217 -0.0179
 9307TIP3   OH249411   2.709   0.650   5.570  0.4101 -0.3987  0.1713
 9307TIP3    H149412   2.615   0.669   5.561 -0.0855 -2.2615  0.8634
 9307TIP3    H249413   2.738   0.706   5.642  0.0390  0.7776 -0.5608
 9308TIP3   OH249414   1.956   6.685  11.634  0.3362 -0.0528  0.1134
 9308TIP3    H149415   1.868   6.707  11.662  0.3299 -0.8874  0.7853
 9308TIP3    H249416   2.000   6.770  11.624 -0.4394  0.3541  0.0756
 9309TIP3   OH249417   3.257   3.702  13.465 -0.0139 -0.4777  0.1392
 9309TIP3    H149418   3.323   3.741  13.523  0.7644 -0.8303 -0.4849
 9309TIP3    H249419   3.197   3.656  13.524  0.2161 -0.0403  0.7283
 9310TIP3   OH249420   6.230   4.701   4.605  0.1646 -0.4811  0.4914
 9310TIP3    H149421   6.318   4.678   4.574 -0.3098  0.0367 -1.3542
 9310TIP3    H249422   6.227   4.667   4.695  1.7836 -1.6713  0.1469
 9311TIP3   OH249423   2.949   3.494  12.729  0.3915 -0.2113 -0.1077
 9311TIP3    H149424   2.915   3.507  12.640 -0.2959  1.3528  0.3379
 9311TIP3    H249425   2.894   3.424  12.765 -1.0427  0.8585 -0.1088
 9312TIP3   OH249426   6.784   1.573   5.995 -0.1830 -0.1029 -0.4816
 9312TIP3    H149427   6.766   1.666   5.984  2.7177  0.5999 -0.1458
 9312TIP3    H249428   6.769   1.557   6.088 -1.5555 -0.2222 -0.7074
 9313TIP3   OH249429   0.679   0.008  16.666  0.3437 -0.3522  0.2205
 9313TIP3    H149430   0.754  -0.052  16.669  0.7707  0.1998  0.6719
 9313TIP3    H249431   0.629  -0.011  16.745  1.2609  0.8742  1.1284
 9314TIP3   OH249432   0.277   5.860  13.194 -0.6065 -0.3975  0.3997
 9314TIP3    H149433   0.266   5.776  13.238  2.4716 -0.4536  1.3230
 9314TIP3    H249434   0.329   5.840  13.116 -0.7019  0.5067  0.0917
 9315TIP3   OH249435   1.070   2.806   3.017 -0.4835  0.1421  0.1752
 9315TIP3    H149436   1.137   2.869   3.043 -0.1186 -0.3152  0.3690
 9315TIP3    H249437   1.078   2.736   3.082  1.4154 -1.7429 -1.8838
 9316TIP3   OH249438   6.336   4.388  11.286  0.4733  0.1595  0.5143
 9316TIP3    H149439   6.285   4.463  11.316 -1.1043 -1.1189  1.1861
 9316TIP3    H249440   6.390   4.363  11.361  1.6827  1.1216  0.0054
 9317TIP3   OH249441   0.627   4.013   1.525  0.7815 -0.2499 -0.0165
 9317TIP3    H149442   0.654   4.105   1.535 -0.4938  0.0067  1.4232
 9317TIP3    H249443   0.653   3.972   1.607 -0.9394 -0.5468  0.4123
 9318TIP3   OH249444   0.023   1.227   3.312  0.0402 -0.0629  0.2458
 9318TIP3    H149445  -0.027   1.264   3.240 -0.6758  1.1166  1.3093
 9318TIP3    H249446   0.080   1.298   3.341  0.0682 -0.4038  1.0644
 9319TIP3   OH249447   4.754   2.411  16.596  0.3723  0.2861  0.0365
 9319TIP3    H149448   4.740   2.347  16.666 -0.8652 -1.4701 -1.6720
 9319TIP3    H249449   4.669   2.454  16.586  0.6517  0.8077 -0.1097
 9320TIP3   OH249450   6.609   3.369   2.291 -0.2091  0.5783 -0.1450
 9320TIP3    H149451   6.681   3.328   2.338  1.2139  1.8834 -1.0750
 9320TIP3    H249452   6.561   3.417   2.358  0.6665  0.8637  0.2951
 9321TIP3   OH249453   3.214   4.730  15.456 -0.2505  0.1829  0.2610
 9321TIP3    H149454   3.206   4.651  15.509 -0.4197 -0.7504 -1.1022
 9321TIP3    H249455   3.307   4.754  15.464 -0.3709  0.3211  1.3271
 9322TIP3   OH249456   1.896   2.549  17.240  0.0494  0.5210 -0.3941
 9322TIP3    H149457   1.963   2.480  17.241  1.6740  1.9260 -1.9525
 9322TIP3    H249458   1.939   2.625  17.280 -1.7128  0.6666  1.3540
 9323TIP3   OH249459   5.094   6.330  15.452  0.1800 -0.3896  0.4424
 9323TIP3    H149460   5.139   6.316  15.536  2.4866 -1.3579 -0.8800
 9323TIP3    H249461   5.104   6.247  15.405 -3.0291 -0.6608 -0.0056
 9324TIP3   OH249462   1.200   1.025   4.151  0.5679  0.0387 -0.6429
 9324TIP3    H149463   1.127   1.029   4.213  0.5250  0.8666 -0.7373
 9324TIP3    H249464   1.276   1.005   4.205  0.4417  0.2287 -0.3926
 9325TIP3   OH249465   3.273   4.669   6.245  0.2140 -0.4624  0.2516
 9325TIP3    H149466   3.368   4.658   6.243  0.0404 -2.1184  0.1586
 9325TIP3    H249467   3.238   4.580   6.251 -1.3389  0.1098  0.1716
 9326TIP3   OH249468   2.022   2.266  15.909  0.8657 -0.0635 -1.3997
 9326TIP3    H149469   1.968   2.206  15.857 -0.3528  0.9741 -1.3528
 9326TIP3    H249470   2.058   2.211  15.979  0.2246 -0.8631 -1.6836
 9327TIP3   OH249471   4.422   4.609  15.472 -0.1714 -0.8122 -0.0971
 9327TIP3    H149472   4.508   4.574  15.495 -1.0060 -2.5544  0.5450
 9327TIP3    H249473   4.429   4.630  15.379  0.5685 -2.2399 -0.3941
 9328TIP3   OH249474   2.372   3.863  15.752 -0.3727  0.1843  0.2455
 9328TIP3    H149475   2.328   3.943  15.722  1.3031  1.9740  2.1929
 9328TIP3    H249476   2.359   3.800  15.682 -2.6224  1.8464 -0.9491
 9329TIP3   OH249477   6.300   2.571  16.281 -0.3160 -0.3270  0.4040
 9329TIP3    H149478   6.249   2.603  16.356 -2.3947 -2.5360  0.0784
 9329TIP3    H249479   6.381   2.539  16.319  0.0561  1.4778  1.2332
 9330TIP3   OH249480   4.506   4.162  16.539  0.2915  0.3268 -0.5649
 9330TIP3    H149481   4.483   4.223  16.469  0.4245 -0.3640 -1.2349
 9330TIP3    H249482   4.564   4.099  16.497 -1.2861 -1.3279 -0.4182
 9331TIP3   OH249483   4.975   1.552  17.087  0.2448 -0.3190  0.2894
 9331TIP3    H149484   4.971   1.480  17.023  0.3442  1.4543 -1.8301
 9331TIP3    H249485   5.066   1.582  17.083  0.0944  0.2204  0.8092
 9332TIP3   OH249486   0.602   4.586  16.556  0.0276  0.6155  0.0191
 9332TIP3    H149487   0.625   4.665  16.604 -1.1148  0.2130  1.2837
 9332TIP3    H249488   0.516   4.604  16.520 -0.4862 -0.2358  0.7787
 9333TIP3   OH249489   3.672   1.814   5.559  0.6797  0.3518  0.5193
 9333TIP3    H149490   3.759   1.777   5.543  0.5368  0.4295 -0.5461
 9333TIP3    H249491   3.613   1.759   5.508  0.2691  1.0850  0.1875
 9334TIP3   OH249492   0.780   6.549  13.527 -0.6908 -0.0099  0.1692
 9334TIP3    H149493   0.800   6.642  13.520 -2.6937  0.4201 -0.3277
 9334TIP3    H249494   0.753   6.537  13.618  1.1634 -0.4984  0.7089
 9335TIP3   OH249495   6.531   1.822   1.785 -0.1185  0.2765  0.2239
 9335TIP3    H149496   6.588   1.813   1.861  0.8878  1.1874 -0.4037
 9335TIP3    H249497   6.455   1.871   1.818 -0.6287 -1.0110  1.0793
 9336TIP3   OH249498   1.603   1.943   5.711 -0.1811 -0.0317  0.5095
 9336TIP3    H149499   1.547   1.906   5.643 -1.8613  0.0345  1.8089
 9336TIP3    H249500   1.692   1.932   5.677 -0.9506 -0.2637 -1.5480
 9337TIP3   OH249501   1.102   6.146  11.941 -0.1929 -0.5493  0.3200
 9337TIP3    H149502   1.125   6.108  12.026  1.7041  1.3682  0.7652
 9337TIP3    H249503   1.040   6.215  11.962 -0.8695 -1.0398 -0.0484
 9338TIP3   OH249504   3.785   3.436   5.898 -0.0533  0.0190  0.1390
 9338TIP3    H149505   3.818   3.403   5.982  1.3419 -3.2417 -1.5050
 9338TIP3    H249506   3.847   3.504   5.873  0.4209 -0.0703  1.0230
 9339TIP3   OH249507   3.486   1.091   3.348 -1.0012 -0.1183 -0.3239
 9339TIP3    H149508   3.572   1.080   3.390 -0.9996 -1.9823 -0.7195
 9339TIP3    H249509   3.432   1.132   3.415 -0.4223 -1.0976  0.7854
 9340TIP3   OH249510   1.370   1.345  10.414 -0.1296 -0.3014 -0.4797
 9340TIP3    H149511   1.352   1.264  10.367 -0.3847 -0.6657  0.2323
 9340TIP3    H249512   1.446   1.324  10.470 -0.5136 -0.2139  0.0860
 9341TIP3   OH249513   4.377   5.564  11.816 -0.2792 -0.3192 -0.8991
 9341TIP3    H149514   4.456   5.545  11.767  0.0215  0.8614 -0.8954
 9341TIP3    H249515   4.351   5.479  11.854  0.6837 -0.8103 -1.3104
 9342TIP3   OH249516   4.804   0.439   0.626  0.3291  0.0074 -0.0528
 9342TIP3    H149517   4.822   0.345   0.635 -1.0544 -0.2437  0.2651
 9342TIP3    H249518   4.815   0.456   0.533  2.3248 -0.0578  0.1073
 9343TIP3   OH249519   6.533   2.744   1.511 -0.6031 -0.6709 -0.4563
 9343TIP3    H149520   6.534   2.695   1.593  1.0471 -2.7703 -1.6504
 9343TIP3    H249521   6.561   2.832   1.535 -1.6644 -0.7989  1.4349
 9344TIP3   OH249522   5.180   5.240  16.829 -0.0555 -0.0705  0.0754
 9344TIP3    H149523   5.183   5.289  16.747  2.9557 -1.4521 -0.7637
 9344TIP3    H249524   5.196   5.149  16.805 -0.7258 -0.7805  2.0595
 9345TIP3   OH249525   1.463   4.584  10.928 -0.2878  0.2022 -0.5740
 9345TIP3    H149526   1.556   4.563  10.935 -0.4291  0.0635  3.6892
 9345TIP3    H249527   1.458   4.677  10.953 -1.2507  0.5761 -2.0083
 9346TIP3   OH249528   5.497   2.342  10.937  0.1399 -0.3576 -0.1696
 9346TIP3    H149529   5.564   2.403  10.967 -1.6263  0.5687  2.2395
 9346TIP3    H249530   5.417   2.395  10.931 -0.8206 -1.8131 -1.0659
 9347TIP3   OH249531   3.915   4.280  17.134  0.0493  0.1875  0.0311
 9347TIP3    H149532   3.853   4.329  17.080 -0.0828 -1.0592 -0.9815
 9347TIP3    H249533   3.999   4.292  17.091  0.6284  2.0427  1.5108
 9348TIP3   OH249534   4.881   1.626   1.050 -0.1566 -0.1847  0.2422
 9348TIP3    H149535   4.902   1.533   1.043  0.1878 -0.3164  2.3328
 9348TIP3    H249536   4.882   1.658   0.960  0.1100 -2.1100 -0.4840
 9349TIP3   OH249537   6.559   4.356  17.004 -0.1175  0.2107 -0.3744
 9349TIP3    H149538   6.516   4.415  16.943 -0.1103  1.5123  0.8331
 9349TIP3    H249539   6.546   4.396  17.090  1.4866 -0.5635  0.2767
 9350TIP3   OH249540   0.569   2.982  16.378  0.1739 -0.0743 -0.1440
 9350TIP3    H149541   0.625   2.929  16.322  2.9244 -0.2104  2.4368
 9350TIP3    H249542   0.554   3.062  16.328  2.2268 -0.3107 -1.2570
 9351TIP3   OH249543   3.968   5.663  15.019  0.1381  0.5737 -0.3294
 9351TIP3    H149544   4.041   5.667  14.957 -0.7415  0.8138 -1.3826
 9351TIP3    H249545   3.890   5.655  14.964 -0.5276 -1.3960  0.8151
 9352TIP3   OH249546   1.927   3.483  13.717 -0.5261 -0.0935 -0.4378
 9352TIP3    H149547   2.018   3.511  13.713 -0.5157 -0.1344 -0.4907
 9352TIP3    H249548   1.909   3.474  13.810  0.3329 -2.6931 -0.4372
 9353TIP3   OH249549   5.307   6.484   3.492  0.1200 -0.2842  0.2459
 9353TIP3    H149550   5.362   6.515   3.421  1.5331 -1.9245  0.5502
 9353TIP3    H249551   5.286   6.563   3.543 -0.3856  0.8116 -1.5837
 9354TIP3   OH249552   3.077   5.857  16.521  0.1982  0.0287  0.1633
 9354TIP3    H149553   3.036   5.830  16.603 -0.9791  0.2726 -0.3392
 9354TIP3    H249554   3.005   5.873  16.462  1.0387 -0.1302 -0.9333
 9355TIP3   OH249555   1.362   0.751   5.766 -0.1095  1.0111 -0.1810
 9355TIP3    H149556   1.268   0.736   5.758 -0.0315  0.0221  0.6691
 9355TIP3    H249557   1.375   0.778   5.857  0.4237  1.2022 -0.3090
 9356TIP3   OH249558   5.539   0.650  11.770  0.5383  0.4306  0.3716
 9356TIP3    H149559   5.453   0.644  11.727  1.0901 -0.2934 -0.6864
 9356TIP3    H249560   5.528   0.601  11.851  0.2287 -0.6045 -0.2700
 9357TIP3   OH249561   0.605   1.051   2.206 -0.0603 -0.4670  0.1549
 9357TIP3    H149562   0.659   1.071   2.282  0.7711  0.5066 -0.6578
 9357TIP3    H249563   0.616   0.957   2.192  2.1121 -0.1819 -0.4557
 9358TIP3   OH249564   4.016   6.367  14.462  0.3152 -0.6449 -0.1130
 9358TIP3    H149565   3.992   6.323  14.543 -2.0255  0.3815 -0.1577
 9358TIP3    H249566   3.990   6.306  14.393 -1.7261  0.1835 -0.1415
 9359TIP3   OH249567   4.890   2.437   4.573 -0.3731  0.4287  1.1189
 9359TIP3    H149568   4.853   2.496   4.508  1.6057  1.7712  1.1083
 9359TIP3    H249569   4.949   2.493   4.624  1.3624 -1.4734  1.3078
 9360TIP3   OH249570   5.310   1.117  13.086 -0.0499  0.6752 -0.2421
 9360TIP3    H149571   5.394   1.161  13.073 -0.5972  1.6692 -0.5529
 9360TIP3    H249572   5.317   1.077  13.173  1.2856 -0.5536 -0.8750
 9361TIP3   OH249573   3.428   4.413  16.664 -0.3592 -0.2069 -0.0733
 9361TIP3    H149574   3.520   4.399  16.643 -0.9859 -0.3818 -3.0652
 9361TIP3    H249575   3.414   4.506  16.652 -0.2554  0.1483  2.1135
 9362TIP3   OH249576   3.528   3.208  15.310  0.3108 -0.2205  0.1256
 9362TIP3    H149577   3.612   3.212  15.356  0.6602 -0.9475 -0.4166
 9362TIP3    H249578   3.528   3.121  15.270  0.0114  0.3877 -1.2263
 9363TIP3   OH249579   2.196   2.815  15.144  0.0716  0.0698 -0.4736
 9363TIP3    H149580   2.290   2.825  15.127  0.2373 -1.1759 -0.3966
 9363TIP3    H249581   2.172   2.733  15.099 -0.4458 -0.9336  1.5113
 9364TIP3   OH249582   4.086   3.974  10.730 -0.2358 -0.1069  0.7222
 9364TIP3    H149583   4.146   3.954  10.802  0.1574 -1.0966  0.1388
 9364TIP3    H249584   4.068   3.889  10.690 -1.0116  0.3489  0.0885
 9365TIP3   OH249585   3.867   0.261   1.345  0.1594  0.1393  0.0835
 9365TIP3    H149586   3.851   0.167   1.361  0.6516  0.2870  1.6294
 9365TIP3    H249587   3.809   0.283   1.272  0.5227 -1.5144 -0.7454
 9366TIP3   OH249588   0.102   5.651  11.027  0.7841  0.1248 -0.1795
 9366TIP3    H149589   0.071   5.706  11.100  1.2432  0.1120  0.0312
 9366TIP3    H249590   0.172   5.703  10.987  0.3812  0.2288 -0.7562
 9367TIP3   OH249591   5.064   2.895   5.764 -0.1498 -0.1427  0.3356
 9367TIP3    H149592   5.011   2.932   5.834  1.5024 -1.3088  2.3321
 9367TIP3    H249593   5.091   2.809   5.797  0.5435 -0.8269 -1.8272
 9368TIP3   OH249594   2.872   5.203  12.940  0.1739  0.0446  0.4444
 9368TIP3    H149595   2.875   5.221  12.846  0.9961 -2.0304  0.0098
 9368TIP3    H249596   2.793   5.247  12.970  0.1597  1.1828 -1.1023
 9369TIP3   OH249597   1.639   1.814  12.191  0.3384 -0.2217 -0.3811
 9369TIP3    H149598   1.587   1.893  12.173  0.8860  0.4720  0.9138
 9369TIP3    H249599   1.579   1.757  12.240  0.6125  0.3509  0.6412
 9370TIP3   OH249600   0.214   6.150   0.366 -0.1210  0.3005  0.3075
 9370TIP3    H149601   0.205   6.055   0.372  1.3339  0.1663  0.6196
 9370TIP3    H249602   0.218   6.167   0.272  0.2808 -0.0127  0.2662
 9371TIP3   OH249603   2.510   1.115   1.643  0.0998  0.2073 -0.2341
 9371TIP3    H149604   2.439   1.052   1.629  0.0274  0.2331  0.0240
 9371TIP3    H249605   2.492   1.154   1.728  1.5600 -1.2929  0.8216
 9372TIP3   OH249606   1.342   5.133   4.484  0.1576 -0.4474 -0.3016
 9372TIP3    H149607   1.335   5.062   4.421  1.2820  0.0509 -1.0335
 9372TIP3    H249608   1.437   5.145   4.495 -0.0195 -0.1527  1.0615
 9373TIP3   OH249609   3.190   2.617   4.911  0.2147  0.0439 -0.5980
 9373TIP3    H149610   3.122   2.561   4.874 -0.8206  1.6991 -1.3094
 9373TIP3    H249611   3.239   2.648   4.835 -1.2547  2.6247 -0.5929
 9374TIP3   OH249612   2.920   1.345   5.359 -0.4697 -0.7345  0.3501
 9374TIP3    H149613   2.980   1.289   5.309 -1.6862 -1.7503 -0.0088
 9374TIP3    H249614   2.956   1.433   5.349  0.1602 -1.1276 -1.0513
 9375TIP3   OH249615   4.740   2.428  16.898  0.6493 -0.3979 -0.1436
 9375TIP3    H149616   4.779   2.506  16.936  0.8264 -0.5902  0.0699
 9375TIP3    H249617   4.648   2.451  16.886  0.6570 -0.2287  0.1148
 9376TIP3   OH249618   5.663   4.051  14.474 -0.4278 -0.1825  0.2874
 9376TIP3    H149619   5.733   4.114  14.455 -1.2264  0.6197 -0.0731
 9376TIP3    H249620   5.638   4.017  14.388  0.2408 -1.3079  0.5010
 9377TIP3   OH249621   4.673   3.329  11.685 -0.0513 -0.2333  0.2700
 9377TIP3    H149622   4.679   3.356  11.777 -1.5058  1.8971 -0.1849
 9377TIP3    H249623   4.673   3.412  11.636 -0.6440 -1.2694 -1.5569
 9378TIP3   OH249624   2.783   3.395   5.864  0.3187  0.7120  0.1691
 9378TIP3    H149625   2.794   3.304   5.836 -1.8971  0.5902 -0.4806
 9378TIP3    H249626   2.817   3.397   5.953  1.1935 -0.5270 -0.1079
 9379TIP3   OH249627   3.851   2.077  11.866 -0.1717  0.0625  0.4775
 9379TIP3    H149628   3.775   2.058  11.811 -0.2950 -0.0376  0.6765
 9379TIP3    H249629   3.828   2.158  11.911  0.5514  0.9381 -0.7164
 9380TIP3   OH249630   1.065   0.196  12.057 -0.5972  0.1126 -0.0571
 9380TIP3    H149631   0.994   0.149  12.013 -0.8527 -2.0317  2.3822
 9380TIP3    H249632   1.024   0.274  12.094 -1.5612 -0.6866  0.6273
 9381TIP3   OH249633   2.024   3.086  12.729 -0.4197 -0.4341 -0.0091
 9381TIP3    H149634   2.095   3.125  12.779 -1.4749 -0.6711  1.7879
 9381TIP3    H249635   1.985   3.158  12.681 -0.2670  0.0994  0.6541
 9382TIP3   OH249636   1.270   2.442  15.231  0.0482 -0.3174  0.0114
 9382TIP3    H149637   1.347   2.424  15.284 -0.1130 -2.6463 -0.4194
 9382TIP3    H249638   1.196   2.438  15.292  0.1227  0.1479  0.1314
 9383TIP3   OH249639   2.368   1.157   5.658  0.3066 -0.8029  0.3955
 9383TIP3    H149640   2.282   1.136   5.624 -0.0498 -0.3712  1.0023
 9383TIP3    H249641   2.403   1.074   5.689  1.0877 -1.4074 -1.9362
 9384TIP3   OH249642   2.771   1.656  12.966  0.6710  0.2952  0.8772
 9384TIP3    H149643   2.744   1.747  12.977  1.1521  0.7646 -1.3538
 9384TIP3    H249644   2.867   1.659  12.964  0.6626  0.0505 -1.2139
 9385TIP3   OH249645   1.401   2.172  14.531 -0.1540  0.3939  0.1487
 9385TIP3    H149646   1.365   2.111  14.467  2.6238 -2.4448  1.0211
 9385TIP3    H249647   1.478   2.209  14.487 -0.7827  1.9272  0.2960
 9386TIP3   OH249648   1.164   3.719  11.915  0.9566 -0.0799 -0.8942
 9386TIP3    H149649   1.094   3.674  11.963  0.4446  0.9846 -0.6242
 9386TIP3    H249650   1.224   3.649  11.889  0.8878 -0.7570  0.6911
 9387TIP3   OH249651   5.837   5.221   4.353  0.6183  0.5225  0.4491
 9387TIP3    H149652   5.823   5.316   4.357 -0.6519  0.3242  1.3023
 9387TIP3    H249653   5.795   5.187   4.432 -1.6646 -1.0644 -1.3229
 9388TIP3   OH249654   4.290   2.949  15.582  0.2058 -0.0874  0.1843
 9388TIP3    H149655   4.247   2.883  15.637  2.2340  0.1509  2.1731
 9388TIP3    H249656   4.222   3.014  15.567 -1.1321 -1.4077  0.2540
 9389TIP3   OH249657   5.178   2.063   0.426  0.4742  1.0441  0.3953
 9389TIP3    H149658   5.238   2.136   0.412  0.7328  0.6620 -0.5141
 9389TIP3    H249659   5.133   2.051   0.343 -1.2865  1.6724  1.1975
 9390TIP3   OH249660   0.048   2.923   0.261  0.6105 -0.3300  1.0309
 9390TIP3    H149661   0.007   2.882   0.336  1.5237 -1.7108  0.8231
 9390TIP3    H249662   0.008   3.010   0.255 -0.7064 -0.8420  2.0575
 9391TIP3   OH249663   0.257   5.712  10.375 -0.0907 -0.0122  0.1619
 9391TIP3    H149664   0.169   5.724  10.340  0.6691 -1.2586 -2.4522
 9391TIP3    H249665   0.261   5.619  10.400  0.5076  0.0082  0.1735
 9392TIP3   OH249666   5.107   2.979  15.797 -0.0778 -0.1437  0.5978
 9392TIP3    H149667   5.123   3.065  15.835 -0.5135  0.5359 -0.7046
 9392TIP3    H249668   5.191   2.953  15.760 -0.4536  0.7779 -1.0168
 9393TIP3   OH249669   2.915   0.967  16.832 -0.2357  0.1002  0.1742
 9393TIP3    H149670   3.007   0.968  16.806 -0.4030  0.4754 -0.4087
 9393TIP3    H249671   2.887   0.876  16.821 -0.3939  0.3137 -1.2790
 9394TIP3   OH249672   3.364   1.844  17.220  0.2140  0.3330 -0.0685
 9394TIP3    H149673   3.409   1.908  17.275 -0.0255 -0.3889  1.0008
 9394TIP3    H249674   3.434   1.783  17.192  0.3562  0.7672 -0.6787
 9395TIP3   OH249675   3.055   4.924   0.496 -0.1615 -0.4681 -0.1025
 9395TIP3    H149676   3.090   5.010   0.520 -0.2133 -0.3633 -0.4003
 9395TIP3    H249677   3.123   4.862   0.525 -0.4335 -0.3874  0.7475
 9396TIP3   OH249678   5.660   1.708  12.307  0.1649  0.4229  0.3013
 9396TIP3    H149679   5.742   1.723  12.353  0.2946  1.0580 -0.1245
 9396TIP3    H249680   5.687   1.672  12.222 -0.0688 -0.7048  0.6911
 9397TIP3   OH249681   3.317   6.710   1.468 -0.0791 -0.5478  0.9501
 9397TIP3    H149682   3.280   6.780   1.414 -0.5189 -1.1657  0.4319
 9397TIP3    H249683   3.310   6.632   1.413  2.6516 -0.5991  0.5250
 9398TIP3   OH249684   4.503   3.001  14.487  0.3357 -0.0651 -0.4680
 9398TIP3    H149685   4.582   2.980  14.538 -1.7155  0.0632  3.0899
 9398TIP3    H249686   4.474   3.086  14.521 -0.8001  0.3974 -2.4424
 9399TIP3   OH249687   4.000   5.669  16.513  0.6881  0.1830 -0.6061
 9399TIP3    H149688   3.942   5.727  16.562  0.9251  0.6199 -0.8341
 9399TIP3    H249689   3.948   5.592  16.494  0.0803  0.6993 -1.0749
 9400TIP3   OH249690   0.477   6.073   0.601  0.0897  0.0510  0.1717
 9400TIP3    H149691   0.393   6.073   0.646  0.9383 -2.5173  2.0000
 9400TIP3    H249692   0.540   6.097   0.669  0.8772  2.9224 -1.3807
 9401TIP3   OH249693   0.965   6.354  12.062 -0.2743 -0.4493  0.8918
 9401TIP3    H149694   0.900   6.406  12.109  0.6825  0.7201  0.9528
 9401TIP3    H249695   1.036   6.341  12.125  0.4973  0.1286  0.1556
 9402TIP3   OH249696   2.679   4.739   5.640 -0.2775  0.0407 -0.6886
 9402TIP3    H149697   2.663   4.644   5.638  0.7710 -0.1639  0.0544
 9402TIP3    H249698   2.637   4.771   5.560 -1.1497 -0.9606 -0.6688
 9403TIP3   OH249699   1.189   5.100   2.987  0.5183 -0.0884 -0.1348
 9403TIP3    H149700   1.232   5.156   2.923 -0.6686  0.2833 -0.6292
 9403TIP3    H249701   1.157   5.025   2.936  0.3966 -0.2533  0.1792
 9404TIP3   OH249702   3.773   3.698  12.543 -0.3821  0.0680 -0.9249
 9404TIP3    H149703   3.835   3.648  12.597  0.0041  0.6024 -0.8647
 9404TIP3    H249704   3.702   3.636  12.525 -0.7069 -0.0232  0.4926
 9405TIP3   OH249705   2.794   1.446  17.176  0.4457  0.1911  0.4161
 9405TIP3    H149706   2.745   1.475  17.253 -1.6534  1.6665 -1.3704
 9405TIP3    H249707   2.755   1.492  17.103  1.7745 -1.8035 -1.7149
 9406TIP3   OH249708   4.556   4.651   3.455 -0.8048 -0.7047  0.0390
 9406TIP3    H149709   4.646   4.681   3.468 -0.9033 -0.6222  0.5559
 9406TIP3    H249710   4.521   4.641   3.543 -0.5912 -2.9151 -0.0845
 9407TIP3   OH249711   0.369   3.774  11.398  0.0350 -0.8187 -0.5240
 9407TIP3    H149712   0.383   3.681  11.418  0.5373 -0.6771 -0.1877
 9407TIP3    H249713   0.451   3.802  11.356 -0.5744 -0.8270 -1.7692
 9408TIP3   OH249714   5.757   3.655  16.975  0.3234 -0.1480 -0.6281
 9408TIP3    H149715   5.758   3.617  17.063 -0.1142  1.4692  0.1106
 9408TIP3    H249716   5.849   3.672  16.955  0.3086  1.1981  0.3267
 9409TIP3   OH249717   4.383   5.666  15.106 -0.7079 -0.2646  0.5745
 9409TIP3    H149718   4.379   5.578  15.143 -0.3272 -0.0868  1.0450
 9409TIP3    H249719   4.291   5.693  15.098 -0.9457 -1.4401 -1.3923
 9410TIP3   OH249720   2.340   0.386  17.029  0.1686  0.3798  0.0335
 9410TIP3    H149721   2.369   0.475  17.007  1.7457 -0.0942  0.1378
 9410TIP3    H249722   2.412   0.329  17.003  0.9536 -0.5301  3.6081
 9411TIP3   OH249723   0.466   0.102   2.540  0.0811 -0.5186  0.3741
 9411TIP3    H149724   0.412   0.178   2.518 -0.7776 -1.0862  0.5222
 9411TIP3    H249725   0.404   0.035   2.567  0.5975 -2.2023 -2.2770
 9412TIP3   OH249726   2.514   4.211   5.487  0.0972 -0.0223 -0.3270
 9412TIP3    H149727   2.442   4.267   5.455 -0.3008  0.1433  0.8214
 9412TIP3    H249728   2.515   4.137   5.426  0.1087  0.8320 -1.4017
 9413TIP3   OH249729   5.005   4.373  12.920 -0.1332 -0.1172  0.4744
 9413TIP3    H149730   4.964   4.292  12.949 -0.4745  0.0643  0.5070
 9413TIP3    H249731   5.087   4.346  12.881 -1.1885 -0.6955 -1.4580
 9414TIP3   OH249732   1.694   2.512   3.392 -0.2557  0.2996 -0.0070
 9414TIP3    H149733   1.674   2.439   3.451  1.7028  0.4872  0.9702
 9414TIP3    H249734   1.692   2.589   3.449  0.2090  0.6743 -0.4946
 9415TIP3   OH249735   3.639   5.053  14.608  0.4542 -0.1682  0.5486
 9415TIP3    H149736   3.651   5.044  14.513  0.9532  0.3654  0.5579
 9415TIP3    H249737   3.549   5.023  14.623  0.6806 -1.1623  0.0424
 9416TIP3   OH249738   5.838   1.823  13.853 -0.2604  0.1315  0.2169
 9416TIP3    H149739   5.922   1.785  13.826 -0.0350  1.0427 -0.4017
 9416TIP3    H249740   5.831   1.802  13.946 -0.8261 -2.6752 -0.3773
 9417TIP3   OH249741   3.777   1.896   6.399  0.1762 -0.1574  0.0949
 9417TIP3    H149742   3.766   1.986   6.428  0.2970 -0.2991  0.5883
 9417TIP3    H249743   3.736   1.843   6.467 -0.3202 -0.4603 -0.4220
 9418TIP3   OH249744   5.194   3.521   6.238 -0.6469 -0.5102  0.2700
 9418TIP3    H149745   5.128   3.568   6.289 -1.8992 -0.9877 -0.8520
 9418TIP3    H249746   5.255   3.487   6.304 -0.5883  1.2981  1.2199
 9419TIP3   OH249747   3.192   1.488  15.556 -0.1213  0.0747  0.5228
 9419TIP3    H149748   3.116   1.457  15.605 -0.4243  1.1087  0.7400
 9419TIP3    H249749   3.267   1.458  15.607 -0.4225  0.6078  1.3024
 9420TIP3   OH249750   1.359   4.453   5.510  0.1095  0.1572 -0.6038
 9420TIP3    H149751   1.417   4.495   5.573 -1.6437  2.6710 -0.5313
 9420TIP3    H249752   1.280   4.431   5.561  0.0600 -1.0880 -1.1785
 9421TIP3   OH249753   4.121   1.658  10.768 -0.4710 -0.3715  0.1880
 9421TIP3    H149754   4.195   1.708  10.802 -1.0255  0.2696  0.4752
 9421TIP3    H249755   4.092   1.605  10.842 -1.2497  0.5196  0.5478
 9422TIP3   OH249756   0.849   4.747  16.202 -0.0852  0.1357  0.0930
 9422TIP3    H149757   0.908   4.691  16.253  0.8137 -0.5967 -1.6570
 9422TIP3    H249758   0.783   4.688  16.168  0.5813  0.1642 -1.3539
 9423TIP3   OH249759   2.393   6.237  14.635 -0.6409  0.3498  0.5264
 9423TIP3    H149760   2.417   6.315  14.586 -1.1621  0.1008 -0.1424
 9423TIP3    H249761   2.302   6.220  14.611 -0.2147 -1.0786 -0.1944
 9424TIP3   OH249762   0.517   6.456   3.552  0.1461 -0.1876  0.0991
 9424TIP3    H149763   0.561   6.385   3.505  0.4280  0.2473 -0.3084
 9424TIP3    H249764   0.573   6.533   3.537  1.4253 -0.4464  2.9059
 9425TIP3   OH249765   0.340   2.859  13.973  0.3836 -0.6607 -0.6013
 9425TIP3    H149766   0.297   2.917  13.910  1.5852  0.8555 -0.0846
 9425TIP3    H249767   0.289   2.868  14.053 -0.1137 -1.2327 -0.8490
 9426TIP3   OH249768   3.318   6.049   1.655  0.3804  0.5727  0.1931
 9426TIP3    H149769   3.306   6.062   1.749  0.4890 -1.7276  0.6059
 9426TIP3    H249770   3.413   6.056   1.642  0.4640  0.0364  0.4486
 9427TIP3   OH249771   3.298   5.507  12.865 -0.7156 -0.3099 -0.1545
 9427TIP3    H149772   3.292   5.556  12.783 -3.5329  2.0500  1.2685
 9427TIP3    H249773   3.216   5.457  12.869 -0.1811 -1.1348  0.7936
 9428TIP3   OH249774   4.415   4.797  14.145  0.3915  0.6940 -0.0779
 9428TIP3    H149775   4.371   4.881  14.162  1.1004  1.0927 -0.1546
 9428TIP3    H249776   4.508   4.817  14.155  0.5126 -0.4472  1.5037
 9429TIP3   OH249777   3.080   1.192   5.201 -0.0017  0.1408  0.2475
 9429TIP3    H149778   3.073   1.159   5.112  0.8154  0.6866 -0.0273
 9429TIP3    H249779   3.174   1.205   5.215 -0.1079 -0.0351  1.2230
 9430TIP3   OH249780   3.279   1.634   4.645 -0.2056  0.2159 -0.5799
 9430TIP3    H149781   3.198   1.592   4.617 -0.3035  0.2124 -0.2841
 9430TIP3    H249782   3.311   1.679   4.566  0.6643 -1.6072 -1.3321
 9431TIP3   OH249783   2.078   6.393   2.372  0.2240 -0.4227  0.2266
 9431TIP3    H149784   2.096   6.472   2.320  0.0494 -0.0732  0.6901
 9431TIP3    H249785   2.028   6.425   2.447 -0.0222 -1.0061  0.3135
 9432TIP3   OH249786   1.205   1.484   6.695  0.9452 -0.1571 -0.4265
 9432TIP3    H149787   1.239   1.395   6.706  2.3925  0.3925 -0.1971
 9432TIP3    H249788   1.178   1.487   6.603  2.2980 -0.3925 -0.8541
 9433TIP3   OH249789   2.549   5.907  13.235 -0.3798  0.6071  0.2646
 9433TIP3    H149790   2.543   5.942  13.146  1.6133  1.9225  0.5669
 9433TIP3    H249791   2.617   5.840  13.230 -1.1560 -0.2244  0.5663
 9434TIP3   OH249792   1.849   3.841  16.567  0.0858 -0.3422  0.0848
 9434TIP3    H149793   1.813   3.930  16.572 -0.2643 -0.5391  1.2610
 9434TIP3    H249794   1.934   3.852  16.524 -0.5634  0.3631 -1.0869
 9435TIP3   OH249795   3.135   3.169   6.677 -0.0512  0.0648  0.2711
 9435TIP3    H149796   3.156   3.186   6.585  2.5224 -0.5734  0.6772
 9435TIP3    H249797   3.161   3.248   6.723 -1.3726  0.3973  0.4834
 9436TIP3   OH249798   6.754   2.349  12.676 -0.2677 -0.2438  0.6704
 9436TIP3    H149799   6.729   2.439  12.697 -0.1242 -0.3382  1.2348
 9436TIP3    H249800   6.757   2.304  12.760 -0.8240 -0.9057  0.3476
 9437TIP3   OH249801   5.903   1.669  13.587  0.1589 -0.3432  0.1986
 9437TIP3    H149802   5.907   1.618  13.506 -0.9297 -1.3908  0.7817
 9437TIP3    H249803   5.817   1.650  13.623 -0.4460  2.1976  0.2822
 9438TIP3   OH249804   4.269   4.422  10.330 -0.1619  0.3260 -0.1921
 9438TIP3    H149805   4.228   4.505  10.353 -0.0900 -0.0592  1.4448
 9438TIP3    H249806   4.233   4.359  10.392  0.9600 -0.5462 -0.3926
 9439TIP3   OH249807   0.299   2.926  16.763 -0.1956 -0.5042 -0.0876
 9439TIP3    H149808   0.357   2.899  16.692 -0.4567 -1.7527  0.1485
 9439TIP3    H249809   0.215   2.940  16.720 -0.0168  0.1320 -0.2391
 9440TIP3   OH249810   6.304   1.801   3.056  0.6622  0.3598  0.2387
 9440TIP3    H149811   6.241   1.764   2.994  0.0550  1.1223  0.3728
 9440TIP3    H249812   6.389   1.794   3.012  0.1018  1.9008 -1.1886
 9441TIP3   OH249813   5.637   3.043  11.926 -0.0085  1.0529  0.4059
 9441TIP3    H149814   5.634   3.048  11.830  2.4240 -3.0179 -0.1123
 9441TIP3    H249815   5.717   3.092  11.949  2.5444 -2.3494 -0.4385
 9442TIP3   OH249816   4.462   5.056  14.670  0.4028  0.2857  0.0091
 9442TIP3    H149817   4.373   5.034  14.698  0.2939  1.7932  0.9565
 9442TIP3    H249818   4.464   5.036  14.577 -0.8162 -0.0998  0.0562
 9443TIP3   OH249819   0.877   5.700  13.397 -0.5778  0.4761  0.0825
 9443TIP3    H149820   0.954   5.655  13.360 -0.7726 -1.2548  1.6255
 9443TIP3    H249821   0.898   5.793  13.391  0.3556  0.1890 -2.2074
 9444TIP3   OH249822   2.857   1.067   6.169  0.4642 -0.5948 -0.1940
 9444TIP3    H149823   2.915   1.126   6.218  1.4615 -0.9102 -0.9510
 9444TIP3    H249824   2.829   1.002   6.233  1.0630 -0.5050  0.1718
 9445TIP3   OH249825   6.215   3.173   6.116 -0.2833 -0.2882 -0.0351
 9445TIP3    H149826   6.223   3.257   6.160  0.8606  0.2326 -1.1887
 9445TIP3    H249827   6.290   3.122   6.147  0.6668  0.1617 -1.4760
 9446TIP3   OH249828   4.005   5.463  12.285  0.9947 -0.2169  0.0520
 9446TIP3    H149829   4.014   5.531  12.352  1.4253  0.3368 -0.5669
 9446TIP3    H249830   3.910   5.456  12.271  0.7412 -1.5674  1.9565
 9447TIP3   OH249831   0.177   3.850   2.048 -0.1629 -0.3894  0.3791
 9447TIP3    H149832   0.250   3.820   2.103  0.0032  0.1581  0.4562
 9447TIP3    H249833   0.101   3.844   2.104 -0.2548 -1.3285  0.1862
 9448TIP3   OH249834   1.571   3.345  15.433 -0.3055 -0.0421  0.0729
 9448TIP3    H149835   1.525   3.265  15.408 -0.9476  0.6604 -1.1057
 9448TIP3    H249836   1.634   3.318  15.500 -0.6862 -1.4731 -0.1314
 9449TIP3   OH249837   6.476   4.988   4.207 -0.4667  0.3139  0.2202
 9449TIP3    H149838   6.534   5.015   4.279  0.3299 -0.3604 -0.1576
 9449TIP3    H249839   6.391   5.023   4.231  0.1227  1.4532  0.7214
 9450TIP3   OH249840   4.098   5.749   2.396  0.1629  0.5246 -0.4157
 9450TIP3    H149841   4.072   5.660   2.374  2.6299 -0.4949  0.5086
 9450TIP3    H249842   4.038   5.775   2.466  0.6792 -1.2226  0.7394
 9451TIP3   OH249843   1.004   4.238  15.152 -0.0034  0.6275  0.2162
 9451TIP3    H149844   0.959   4.162  15.115 -0.4851  0.8196  0.3938
 9451TIP3    H249845   1.029   4.290  15.076 -2.1314  1.6708  0.1340
 9452TIP3   OH249846   2.813   4.870  14.828 -0.1241  0.4510  0.6278
 9452TIP3    H149847   2.799   4.935  14.896  0.9949  0.7747  0.5594
 9452TIP3    H249848   2.907   4.854  14.828 -0.2312 -0.2761 -0.1747
 9453TIP3   OH249849   2.936   1.797  12.694 -0.4040  0.5560  0.4381
 9453TIP3    H149850   2.853   1.793  12.647 -0.0924  0.7814 -0.1454
 9453TIP3    H249851   2.928   1.873  12.751 -0.7967  0.2646  0.7720
 9454TIP3   OH249852   4.014   0.036  16.320  0.0498  0.0816 -0.0588
 9454TIP3    H149853   3.962   0.018  16.241  0.0456  0.1820 -0.0789
 9454TIP3    H249854   4.032   0.130  16.316 -0.8470  0.2879  0.6061
 9455TIP3   OH249855   6.392   0.510   4.046  0.2966  0.3235 -0.3571
 9455TIP3    H149856   6.487   0.511   4.051  0.5527  0.8954 -3.4563
 9455TIP3    H249857   6.372   0.435   3.990 -1.3565 -1.6473  2.6034
 9456TIP3   OH249858   6.316   4.295   1.691 -0.1887 -0.7995 -0.2120
 9456TIP3    H149859   6.270   4.264   1.613  1.2225 -1.4754 -0.8134
 9456TIP3    H249860   6.296   4.389   1.694  0.5327 -0.5468 -1.9871
 9457TIP3   OH249861   6.468   6.104   2.349 -0.3005  0.4902 -0.3125
 9457TIP3    H149862   6.505   6.021   2.378 -0.4013  0.3588 -0.5579
 9457TIP3    H249863   6.518   6.170   2.398 -0.0522  0.2978 -0.3002
 9458TIP3   OH249864   4.925   0.010   1.519  0.2188 -0.0883  0.3952
 9458TIP3    H149865   4.925  -0.075   1.563  0.2235  0.5016  1.5640
 9458TIP3    H249866   5.001   0.056   1.555  0.1794  0.4437 -0.1769
 9459TIP3   OH249867   0.264   3.938   4.577 -0.2445 -0.0506 -0.1355
 9459TIP3    H149868   0.185   3.914   4.528  0.5620 -1.3779 -0.8098
 9459TIP3    H249869   0.282   3.863   4.632 -0.8392  1.2222  1.8939
 9460TIP3   OH249870   5.284   3.805  12.893  0.4527  0.0754  0.0886
 9460TIP3    H149871   5.204   3.789  12.842  0.3992 -2.6146  0.8931
 9460TIP3    H249872   5.355   3.792  12.830  0.3352 -1.3415  0.2275
 9461TIP3   OH249873   2.944   6.557   1.243 -0.7308 -0.1667  0.5201
 9461TIP3    H149874   2.894   6.600   1.174 -1.6741 -0.6942  0.8517
 9461TIP3    H249875   2.969   6.472   1.206  1.3978  0.7201 -0.2503
 9462TIP3   OH249876   2.254   4.288  12.582 -0.1046  0.7446 -0.1772
 9462TIP3    H149877   2.266   4.379  12.555 -1.1960  1.0295  0.2458
 9462TIP3    H249878   2.180   4.290  12.642 -0.2701 -0.4522 -0.3080
 9463TIP3   OH249879   1.934   2.436   3.263 -0.4242 -0.2221  0.0157
 9463TIP3    H149880   1.841   2.432   3.285 -0.7283  1.7185 -0.7332
 9463TIP3    H249881   1.970   2.504   3.320  0.4371 -0.6340 -0.0184
 9464TIP3   OH249882   4.041   5.290  16.596 -0.2888  0.3086 -0.0725
 9464TIP3    H149883   3.960   5.336  16.576 -0.8027 -0.0892  1.0130
 9464TIP3    H249884   4.110   5.340  16.552 -1.0387  1.0689 -0.3872
 9465TIP3   OH249885   1.233   0.394  14.960 -0.4875  0.6271  0.0539
 9465TIP3    H149886   1.188   0.310  14.960 -0.3170  0.5344 -0.4370
 9465TIP3    H249887   1.206   0.436  15.042 -1.1314  0.3939 -0.0339
 9466TIP3   OH249888   6.719   4.792  13.100  0.0140  0.3958 -0.6374
 9466TIP3    H149889   6.709   4.700  13.074  0.6585  0.5455 -1.4568
 9466TIP3    H249890   6.813   4.805  13.107 -0.1115  0.6898  0.6617
 9467TIP3   OH249891   0.488   2.423   2.215  0.0112 -0.5735 -0.2138
 9467TIP3    H149892   0.503   2.409   2.308 -0.5140  1.1400  0.1569
 9467TIP3    H249893   0.427   2.354   2.190  2.2342 -2.7736  0.0310
 9468TIP3   OH249894   1.700   2.587  11.289 -0.0470 -0.5056  0.3294
 9468TIP3    H149895   1.769   2.522  11.302  0.0955 -0.2631  0.8118
 9468TIP3    H249896   1.638   2.569  11.359  0.4146  0.4143  0.9959
 9469TIP3   OH249897   1.204   6.352   6.399  0.0831 -0.2556  0.1161
 9469TIP3    H149898   1.181   6.413   6.330  0.3886 -0.0038  0.2333
 9469TIP3    H249899   1.238   6.407   6.470  0.2649 -0.5479  0.2615
 9470TIP3   OH249900   3.904   2.637   0.356  0.2276  0.2340 -0.2951
 9470TIP3    H149901   3.942   2.576   0.418  0.4548  0.1711 -0.4958
 9470TIP3    H249902   3.963   2.636   0.281  1.0155  1.7605  0.2598
 9471TIP3   OH249903   0.228   1.727   3.336  0.4254 -0.3339 -0.4340
 9471TIP3    H149904   0.200   1.729   3.428 -0.8023 -0.6789 -0.7823
 9471TIP3    H249905   0.288   1.802   3.328  0.5198 -0.2817  0.6382
 9472TIP3   OH249906   0.653   5.468  12.710  0.0969  0.4268 -0.2871
 9472TIP3    H149907   0.648   5.396  12.774 -1.9672 -0.9412 -1.8374
 9472TIP3    H249908   0.702   5.431  12.636 -2.7818 -0.3058 -1.9991
 9473TIP3   OH249909   1.059   2.510   0.956  0.1939  0.0489  0.0723
 9473TIP3    H149910   1.049   2.416   0.965 -0.9550  0.1981  0.4630
 9473TIP3    H249911   1.142   2.530   1.001 -0.5491 -0.5214  1.7558
 9474TIP3   OH249912   2.953   0.159  12.306  0.2264  0.1571  0.5819
 9474TIP3    H149913   2.911   0.225  12.251 -1.1704 -0.2738  1.0948
 9474TIP3    H249914   3.033   0.136  12.259 -0.5569  0.3495 -0.8787
 9475TIP3   OH249915   2.455   4.865  15.562 -0.6277  0.2469  0.6169
 9475TIP3    H149916   2.389   4.797  15.547  0.3613 -0.0592 -3.4660
 9475TIP3    H249917   2.537   4.816  15.572  0.1172  0.6581 -2.5014
 9476TIP3   OH249918   5.213   2.841  13.296  0.6921 -0.1366 -0.6128
 9476TIP3    H149919   5.265   2.913  13.262  1.2725  0.0969  0.6928
 9476TIP3    H249920   5.247   2.763  13.253  1.1129  0.1972 -0.8823
 9477TIP3   OH249921   3.787   0.616   3.980 -0.1493  0.1687 -0.1167
 9477TIP3    H149922   3.755   0.526   3.987  1.0952 -0.2940 -0.2683
 9477TIP3    H249923   3.823   0.623   3.892  2.1643 -0.0205  0.7540
 9478TIP3   OH249924   1.937   1.834   3.837 -0.1721 -0.1201  0.6552
 9478TIP3    H149925   1.991   1.870   3.907  2.0045 -0.7822 -0.5608
 9478TIP3    H249926   1.939   1.739   3.851 -0.2240 -0.2138  0.0776
 9479TIP3   OH249927   5.478   4.088  11.190 -0.5216 -0.2413 -0.0677
 9479TIP3    H149928   5.448   4.061  11.277  0.0863 -3.1206 -0.6652
 9479TIP3    H249929   5.424   4.037  11.129  0.7536 -0.1456 -1.3125
 9480TIP3   OH249930   5.844   4.794  13.796 -0.0440  0.3624  0.1007
 9480TIP3    H149931   5.895   4.848  13.736 -1.4513  2.1902  0.4437
 9480TIP3    H249932   5.888   4.805  13.881  2.2765 -2.6638 -0.5422
 9481TIP3   OH249933   2.314   5.871   5.146 -0.3658  0.0998 -0.7148
 9481TIP3    H149934   2.378   5.920   5.096 -1.6008  0.6580 -1.8224
 9481TIP3    H249935   2.356   5.787   5.163  1.5095  1.2214  0.5904
 9482TIP3   OH249936   6.487   5.701  12.729  0.4649 -0.0182  0.3248
 9482TIP3    H149937   6.548   5.629  12.709  0.0930 -0.8186  1.8840
 9482TIP3    H249938   6.408   5.678  12.681  0.3853 -0.6081  0.7218
 9483TIP3   OH249939   2.635   6.114   5.340 -0.4044  0.1129 -0.0983
 9483TIP3    H149940   2.680   6.168   5.404  0.6139  0.5113 -1.1110
 9483TIP3    H249941   2.569   6.172   5.302  2.1945  1.5830 -2.8635
 9484TIP3   OH249942   2.992   5.352  15.391 -0.2500 -0.5936 -0.0592
 9484TIP3    H149943   3.045   5.309  15.458  1.9245  0.5845 -0.9214
 9484TIP3    H249944   2.968   5.282  15.330  1.5745 -0.9670 -0.4049
 9485TIP3   OH249945   2.338   2.819   0.380 -0.0927 -0.3164 -0.2751
 9485TIP3    H149946   2.245   2.800   0.389 -0.1201 -0.7890 -1.3684
 9485TIP3    H249947   2.344   2.914   0.385 -0.7284 -0.2352 -0.8702
 9486TIP3   OH249948   3.519   6.731  17.107  1.1467  0.2224  0.2238
 9486TIP3    H149949   3.427   6.704  17.101  0.9732  1.1095 -3.5083
 9486TIP3    H249950   3.564   6.655  17.146 -0.8271 -1.1841 -0.0836
 9487TIP3   OH249951   1.130   1.588  16.297 -0.2271 -0.4835  0.3511
 9487TIP3    H149952   1.052   1.544  16.331 -1.9010 -0.2970 -2.8721
 9487TIP3    H249953   1.109   1.682  16.303  0.7640 -0.3029  1.5155
 9488TIP3   OH249954   2.422   1.891   3.997  0.1198 -0.1164 -0.7401
 9488TIP3    H149955   2.422   1.802   3.963 -0.8902 -0.7979  0.8970
 9488TIP3    H249956   2.419   1.947   3.919  2.4051 -1.4250 -1.8576
 9489TIP3   OH249957   4.365   4.085   3.442 -0.9239  0.7576  0.7489
 9489TIP3    H149958   4.308   4.156   3.471 -0.4310  2.0618 -1.2572
 9489TIP3    H249959   4.454   4.118   3.456 -0.6828  0.2088  0.5696
 9490TIP3   OH249960   4.388   5.347   2.294  0.0105  0.4050 -0.5928
 9490TIP3    H149961   4.414   5.281   2.230  1.2504  0.1708  0.1100
 9490TIP3    H249962   4.345   5.415   2.243 -2.0732 -1.2906 -1.2518
 9491TIP3   OH249963   4.141   2.640   3.637 -0.1266 -0.0196 -0.3478
 9491TIP3    H149964   4.188   2.693   3.572  0.2804  0.7905  0.5796
 9491TIP3    H249965   4.053   2.678   3.639 -0.3482 -0.4871 -0.9053
 9492TIP3   OH249966   3.990   1.408   6.447  0.2865  0.7825 -0.1919
 9492TIP3    H149967   3.918   1.442   6.393 -0.2947  0.2681  0.2426
 9492TIP3    H249968   3.951   1.335   6.495  0.7110  1.3844  1.1136
 9493TIP3   OH249969   1.313   3.676   6.662 -0.6427  0.2637  0.1669
 9493TIP3    H149970   1.239   3.735   6.647 -2.3860 -1.6683  0.7082
 9493TIP3    H249971   1.275   3.588   6.656  1.9945 -0.8750 -1.3987
 9494TIP3   OH249972   1.422   3.669   4.051 -0.0368 -0.4694 -0.2145
 9494TIP3    H149973   1.412   3.747   3.996  0.9979 -0.7491 -0.8317
 9494TIP3    H249974   1.505   3.682   4.097 -0.6825 -0.4393  0.9826
 9495TIP3   OH249975   1.222   4.706  11.011  0.0559  0.7039  0.0952
 9495TIP3    H149976   1.275   4.642  10.965  1.0179  1.5655 -0.0262
 9495TIP3    H249977   1.135   4.697  10.972  0.1201 -0.6749  0.2495
 9496TIP3   OH249978   1.846   3.142  12.295  0.6599 -0.0538  0.0049
 9496TIP3    H149979   1.911   3.081  12.329  0.5305  0.9085  2.1289
 9496TIP3    H249980   1.885   3.228  12.309 -0.0979  0.4487 -0.8716
 9497TIP3   OH249981   5.794   4.243  11.801  0.3477 -0.2144 -0.3831
 9497TIP3    H149982   5.756   4.330  11.808  1.8782  0.5054 -0.6354
 9497TIP3    H249983   5.790   4.207  11.889  0.8507  0.6298 -0.0058
 9498TIP3   OH249984   0.231   5.773  16.694 -0.2319 -0.1574  0.2018
 9498TIP3    H149985   0.208   5.866  16.682 -0.2786 -0.3674 -1.4630
 9498TIP3    H249986   0.158   5.738  16.745 -1.2650  0.2766 -0.9221
 9499TIP3   OH249987   2.568   6.385   2.801  1.1246 -0.1241 -0.6372
 9499TIP3    H149988   2.554   6.465   2.749  2.2398 -0.8343 -2.1096
 9499TIP3    H249989   2.503   6.390   2.871  1.5101  2.3430 -0.3602
 9500TIP3   OH249990   5.646   0.964   5.363 -0.2060 -0.1287  0.3332
 9500TIP3    H149991   5.643   1.021   5.287 -0.9663  0.1355  0.5547
 9500TIP3    H249992   5.736   0.970   5.394  0.3689 -0.9396 -1.0692
 9501TIP3   OH249993   5.829   1.170   0.728  0.0664 -0.3329 -0.0847
 9501TIP3    H149994   5.747   1.127   0.753  0.3037  0.3005  1.9767
 9501TIP3    H249995   5.802   1.253   0.689 -0.2931 -0.9815 -1.2748
 9502TIP3   OH249996   6.331   1.458  11.358  0.3693 -0.3397  0.3478
 9502TIP3    H149997   6.283   1.405  11.422  0.3725  0.3236  0.9031
 9502TIP3    H249998   6.423   1.441  11.376  0.3885  0.4571  1.0541
 9503TIP3   OH249999   0.313   6.434  15.262 -0.0925  0.3885  0.2684
 9503TIP3    H150000   0.354   6.463  15.344  0.0230  0.0565  0.3307
 9503TIP3    H250001   0.345   6.495  15.196 -0.7862  1.1233  0.5974
 9504TIP3   OH250002   3.877   1.632  12.250  0.3718  0.1112  0.7778
 9504TIP3    H150003   3.933   1.621  12.327  0.4008 -1.9439  0.5383
 9504TIP3    H250004   3.938   1.644  12.177  0.3554  1.5995  0.9783
 9505TIP3   OH250005   0.015   1.890   2.429  0.0881  0.2072  0.0498
 9505TIP3    H150006   0.098   1.847   2.452 -0.7392 -1.4250  0.1435
 9505TIP3    H250007  -0.046   1.818   2.414 -1.7504  1.3572  1.5332
 9506TIP3   OH250008   1.104   5.161  15.641 -0.0599  0.1792 -0.3117
 9506TIP3    H150009   1.197   5.138  15.637 -0.1243  0.0902 -1.9807
 9506TIP3    H250010   1.059   5.084  15.606 -0.4395  1.6544 -3.4875
 9507TIP3   OH250011   4.823   1.976  14.223  0.5669 -0.0904  0.5097
 9507TIP3    H150012   4.902   1.934  14.255  2.1666  2.8511  0.8266
 9507TIP3    H250013   4.806   2.046  14.286 -0.8398  0.9049 -0.8809
 9508TIP3   OH250014   2.307   5.909  13.358 -0.4475 -0.1471  0.1581
 9508TIP3    H150015   2.391   5.885  13.318  0.1337 -1.0573  1.8323
 9508TIP3    H250016   2.255   5.829  13.353 -0.2282 -0.3945  1.5082
 9509TIP3   OH250017   1.792   5.738   4.634  0.1049 -0.4524 -0.1779
 9509TIP3    H150018   1.771   5.645   4.635  1.0081 -0.6753 -0.4819
 9509TIP3    H250019   1.882   5.742   4.665  0.3610  0.2321 -0.9716
 9510TIP3   OH250020   1.643   0.828   3.868  0.1002 -0.1381 -0.8292
 9510TIP3    H150021   1.590   0.814   3.790 -0.6093  1.8577 -0.7414
 9510TIP3    H250022   1.591   0.888   3.922  1.1800 -0.4172  0.5674
 9511TIP3   OH250023   3.340   3.984  15.112 -0.3492  0.0226 -0.6034
 9511TIP3    H150024   3.355   3.955  15.022  1.1897 -0.0282 -0.3565
 9511TIP3    H250025   3.321   3.904  15.160  0.4094 -0.1555 -0.5915
 9512TIP3   OH250026   0.128   1.133   5.969 -0.3729 -0.0568  0.1476
 9512TIP3    H150027   0.067   1.191   5.922 -2.5347 -1.6453  0.8269
 9512TIP3    H250028   0.087   1.120   6.055  2.9654  1.9473  2.2486
 9513TIP3   OH250029   0.749   2.198   2.723  0.1794 -0.0738 -0.0084
 9513TIP3    H150030   0.748   2.276   2.779  1.8475 -0.0194  0.0196
 9513TIP3    H250031   0.821   2.215   2.661 -0.4981 -0.8956 -1.0428
 9514TIP3   OH250032   0.730   6.061  12.364 -0.0563 -0.8468  0.4713
 9514TIP3    H150033   0.750   6.153  12.378 -2.4702 -0.0270 -1.0120
 9514TIP3    H250034   0.648   6.046  12.411  0.4264 -2.3345  0.9119
 9515TIP3   OH250035   1.217   5.971  12.756 -0.7701  0.3966 -0.1108
 9515TIP3    H150036   1.307   5.967  12.723 -1.4890 -1.8014 -2.1417
 9515TIP3    H250037   1.224   6.012  12.842  2.1510  0.3073 -0.2103
 9516TIP3   OH250038   2.424   0.069   3.854 -0.4299 -0.4746  0.8326
 9516TIP3    H150039   2.494   0.125   3.885  0.5010 -1.2507  0.1799
 9516TIP3    H250040   2.417  -0.000   3.921  1.0110 -1.6779 -0.1942
 9517TIP3   OH250041   6.041   6.552   6.018 -0.2120  0.0762  0.3965
 9517TIP3    H150042   6.129   6.551   5.981 -0.0802  0.4188  0.6941
 9517TIP3    H250043   5.991   6.610   5.960 -0.4071 -0.6202 -0.1381
 9518TIP3   OH250044   3.261   0.245   0.166  0.0669  0.1428 -0.1204
 9518TIP3    H150045   3.204   0.177   0.131  0.3278 -0.4200  0.5100
 9518TIP3    H250046   3.348   0.205   0.168 -0.1779 -0.5123  2.6874
 9519TIP3   OH250047   4.953   3.088  11.841 -0.0373  0.1234  0.7452
 9519TIP3    H150048   4.994   3.139  11.911  0.6371 -0.4314  0.7646
 9519TIP3    H250049   4.965   2.997  11.867 -0.2806 -0.0753  0.1854
 9520TIP3   OH250050   3.386   1.796  11.024  0.3048 -0.0261 -0.2843
 9520TIP3    H150051   3.322   1.866  11.033  1.5943  1.1478  0.2529
 9520TIP3    H250052   3.441   1.824  10.950  0.2393 -0.9769 -0.7051
 9521TIP3   OH250053   5.509   2.309   4.989 -0.0263 -0.0960  0.0086
 9521TIP3    H150054   5.587   2.363   4.997 -0.3437  0.4124 -0.3370
 9521TIP3    H250055   5.506   2.283   4.897 -1.4456  1.6953 -0.5107
 9522TIP3   OH250056   3.570   2.675  11.717  0.5397  0.1275  0.6834
 9522TIP3    H150057   3.647   2.635  11.676  1.2988  1.3857  0.8400
 9522TIP3    H250058   3.552   2.621  11.794 -0.2125 -1.5892 -0.6190
 9523TIP3   OH250059   6.346   6.729   0.256 -0.5439 -0.4585 -0.3459
 9523TIP3    H150060   6.351   6.744   0.161  0.8839 -0.6204 -0.3210
 9523TIP3    H250061   6.262   6.766   0.282  0.3449  2.3936 -1.1956
 9524TIP3   OH250062   2.855   2.521   0.807 -0.3875  0.9070 -0.2732
 9524TIP3    H150063   2.887   2.431   0.816 -0.5287  0.5238 -2.8765
 9524TIP3    H250064   2.816   2.541   0.892  0.9111 -0.9563  0.8363
 9525TIP3   OH250065   5.196   3.712  16.089  0.2335  0.1290 -0.2100
 9525TIP3    H150066   5.132   3.653  16.048 -0.7079  1.3716 -0.5794
 9525TIP3    H250067   5.229   3.765  16.017 -0.6950  1.6556  0.4432
 9526TIP3   OH250068   5.938   2.040   2.587 -0.3026 -0.1946  0.4621
 9526TIP3    H150069   5.951   2.096   2.664 -1.2085  0.3103  0.2595
 9526TIP3    H250070   5.956   1.952   2.619  2.6060  0.2878  0.4372
 9527TIP3   OH250071   1.033   1.934   0.534 -0.2945 -0.0711  0.7255
 9527TIP3    H150072   1.029   1.838   0.530  1.5309 -0.3499  3.3010
 9527TIP3    H250073   1.125   1.953   0.553 -0.9159  2.1015  1.8847
 9528TIP3   OH250074   5.865   1.442   5.597 -0.1849 -0.1867 -0.6360
 9528TIP3    H150075   5.931   1.511   5.604 -0.0841 -0.2565 -0.8906
 9528TIP3    H250076   5.782   1.488   5.585 -0.2078 -0.0939 -0.1191
 9529TIP3   OH250077   1.461   5.205  15.983 -0.1431 -0.1805 -0.3185
 9529TIP3    H150078   1.416   5.193  16.066  0.1710 -0.9425 -0.2455
 9529TIP3    H250079   1.532   5.140  15.985  0.8609  0.8921 -0.4944
 9530TIP3   OH250080   4.614   4.203   3.440  0.5023 -0.3108  0.5558
 9530TIP3    H150081   4.566   4.280   3.412 -1.3968 -1.6178  0.0441
 9530TIP3    H250082   4.688   4.238   3.489  1.5155  1.9473 -2.2743
 9531TIP3   OH250083   0.155   0.455   3.524 -0.0978 -0.5355  0.0368
 9531TIP3    H150084   0.100   0.527   3.493 -0.0409  0.7428  2.6217
 9531TIP3    H250085   0.093   0.387   3.551 -0.2357 -0.6040 -0.4464
 9532TIP3   OH250086   1.880   0.632   4.382 -0.0197  0.6085  0.1921
 9532TIP3    H150087   1.881   0.563   4.315 -2.7026 -0.3710  1.0493
 9532TIP3    H250088   1.972   0.643   4.406  0.7121 -1.0756 -1.5680
 9533TIP3   OH250089   3.923   5.436  17.024 -0.2361 -0.1274  0.0213
 9533TIP3    H150090   3.903   5.520  17.066 -1.6054 -0.1933 -0.4288
 9533TIP3    H250091   3.922   5.455  16.930 -0.4429 -0.6072 -0.0798
 9534TIP3   OH250092   1.064   3.709   0.584 -0.5266 -0.1741  0.3231
 9534TIP3    H150093   0.987   3.763   0.567  0.0809 -0.3138 -4.2672
 9534TIP3    H250094   1.034   3.619   0.569  0.0868 -0.3956  0.3870
 9535TIP3   OH250095   2.033   1.812   3.025  0.4107  0.6022 -0.4221
 9535TIP3    H150096   2.034   1.904   3.050 -0.2766  0.4791  0.1067
 9535TIP3    H250097   1.982   1.810   2.944  1.9024  0.8901 -1.4119
 9536TIP3   OH250098   2.555   5.159  16.779 -0.1517  0.1728 -0.1360
 9536TIP3    H150099   2.608   5.081  16.760 -0.3593 -0.7555  2.5823
 9536TIP3    H250100   2.557   5.166  16.874 -2.3195  1.9725 -0.1458
 9537TIP3   OH250101   6.454   6.781   3.333 -0.0332 -0.2233  0.5332
 9537TIP3    H150102   6.378   6.831   3.363  0.4473 -0.1707  1.7279
 9537TIP3    H250103   6.421   6.693   3.318 -0.7927  0.3012 -1.1552
 9538TIP3   OH250104   4.249   2.787   6.438  0.0007 -0.4318 -0.3986
 9538TIP3    H150105   4.327   2.832   6.472  0.0668  0.4390 -1.6646
 9538TIP3    H250106   4.262   2.696   6.463  1.0718 -0.1797  0.0402
 9539TIP3   OH250107   0.058   4.745   0.726  0.0940 -0.0425  0.3646
 9539TIP3    H150108   0.032   4.834   0.749 -0.3298 -0.3587  1.1774
 9539TIP3    H250109   0.153   4.749   0.722  0.0680  0.4967  0.1870
 9540TIP3   OH250110   5.073   0.432   2.383  0.1163 -0.3655 -0.3808
 9540TIP3    H150111   4.979   0.429   2.365 -0.1582  0.6760  0.7381
 9540TIP3    H250112   5.101   0.519   2.357  0.4736 -0.1757  0.5810
 9541TIP3   OH250113   4.304   3.955  15.408  0.0039  0.0565  0.2198
 9541TIP3    H150114   4.223   4.004  15.422 -0.0376 -0.2056  0.9414
 9541TIP3    H250115   4.359   4.013  15.356 -1.7113 -0.8523 -2.8668
 9542TIP3   OH250116   1.910   1.525  11.983 -0.3630 -0.8728  0.0174
 9542TIP3    H150117   1.996   1.495  12.011 -1.1019 -1.6303  1.6268
 9542TIP3    H250118   1.863   1.446  11.958 -1.0727 -0.6382  0.5753
 9543TIP3   OH250119   1.044   3.913   1.437 -0.2041 -0.0349 -0.0705
 9543TIP3    H150120   1.054   4.003   1.467 -1.2683  0.0391  0.0985
 9543TIP3    H250121   0.951   3.894   1.449  0.0377 -1.2132  0.0628
 9544TIP3   OH250122   5.214   2.066   3.874  0.1676  0.6721 -0.4635
 9544TIP3    H150123   5.170   2.058   3.959  0.2687  1.4174 -0.3304
 9544TIP3    H250124   5.159   2.017   3.813  0.8486 -1.1044  0.2841
 9545TIP3   OH250125   0.733   2.761  15.155  0.3597 -0.2889 -0.2575
 9545TIP3    H150126   0.783   2.740  15.076  0.6683 -0.7979  0.0639
 9545TIP3    H250127   0.780   2.833  15.196  0.5224 -0.4002 -0.2469
 9546TIP3   OH250128   2.897   5.622  13.401 -0.1284 -0.4379 -0.3153
 9546TIP3    H150129   2.861   5.582  13.479 -1.0910  2.8619  1.0870
 9546TIP3    H250130   2.974   5.671  13.431  0.2033 -0.0759 -1.6427
 9547TIP3   OH250131   0.145   4.515  14.728  0.4168  0.3447  0.4231
 9547TIP3    H150132   0.206   4.589  14.723  0.4131  0.3018 -0.5558
 9547TIP3    H250133   0.202   4.437  14.726  0.3929  0.3124  0.8929
 9548TIP3   OH250134   1.631   3.148   1.867 -0.1599  0.3705  0.2140
 9548TIP3    H150135   1.561   3.192   1.916 -1.0471  0.4400 -1.0817
 9548TIP3    H250136   1.615   3.055   1.881 -1.3045  0.3346 -1.0749
 9549TIP3   OH250137   6.392   5.834   5.455 -0.7597 -0.8984  0.5380
 9549TIP3    H150138   6.373   5.840   5.362 -0.5133  0.1478  0.5472
 9549TIP3    H250139   6.374   5.743   5.477  0.5750 -1.5465 -0.8451
 9550TIP3   OH250140   6.650   0.794  13.485  0.2752  0.7142 -0.6990
 9550TIP3    H150141   6.634   0.863  13.550 -0.0122  0.5827 -0.6269
 9550TIP3    H250142   6.636   0.837  13.401 -0.6843  0.5484 -0.6294
 9551TIP3   OH250143   6.679   3.043   0.896  0.3675 -0.2581 -0.9854
 9551TIP3    H150144   6.670   2.979   0.827 -1.2987 -2.3121  0.9698
 9551TIP3    H250145   6.753   3.013   0.948 -0.6897 -0.9318  0.1905
 9552TIP3   OH250146   3.211   5.680  11.185  0.0076  0.0009  0.5451
 9552TIP3    H150147   3.138   5.684  11.246  0.3485 -1.5877  1.1036
 9552TIP3    H250148   3.286   5.712  11.234  0.0116  0.0833  0.4873
 9553TIP3   OH250149   4.521   0.230   2.776  0.2884  0.0739 -0.5020
 9553TIP3    H150150   4.439   0.226   2.825 -1.7288 -0.0355 -3.6108
 9553TIP3    H250151   4.530   0.322   2.751 -0.6261 -0.3523 -2.6850
 9554TIP3   OH250152   4.268   5.121   5.704 -0.6671  0.7769 -0.2009
 9554TIP3    H150153   4.249   5.210   5.673 -1.2840  0.5957 -0.3464
 9554TIP3    H250154   4.281   5.132   5.799 -1.7656  0.8718 -0.0487
 9555TIP3   OH250155   2.155   0.039   2.996  0.8209  0.1410  0.8929
 9555TIP3    H150156   2.237   0.053   3.044  0.5297 -0.0049  1.4470
 9555TIP3    H250157   2.090   0.029   3.065 -0.3787  4.0421  0.5993
 9556TIP3   OH250158   2.007   2.641   5.707 -0.5958 -0.2905 -0.2431
 9556TIP3    H150159   2.042   2.572   5.764 -1.6185  0.0754  0.8616
 9556TIP3    H250160   2.032   2.614   5.619  0.9591 -0.9127  0.3490
 9557TIP3   OH250161   4.997   6.585   6.247  0.1043 -0.0209  0.3696
 9557TIP3    H150162   4.907   6.585   6.280 -0.5548  0.9377 -1.2759
 9557TIP3    H250163   5.005   6.668   6.201  2.7696  1.1951  2.7600
 9558TIP3   OH250164   3.125   3.686  16.638  0.2918  0.6474  0.2675
 9558TIP3    H150165   3.089   3.600  16.657  1.8459 -0.2404 -0.5940
 9558TIP3    H250166   3.153   3.681  16.546  1.6727  1.5810  0.5976
 9559TIP3   OH250167   2.800   6.800  11.664  0.3423  0.7838 -0.5500
 9559TIP3    H150168   2.881   6.750  11.663 -0.3973 -0.6974  2.4673
 9559TIP3    H250169   2.815   6.869  11.729 -0.1556  1.8229 -1.4895
 9560TIP3   OH250170   5.620   5.518   6.390 -0.3801  0.9485  0.4242
 9560TIP3    H150171   5.672   5.585   6.348 -0.4257  2.0042  1.9731
 9560TIP3    H250172   5.656   5.511   6.478 -1.0066 -0.3708  0.6045
 9561TIP3   OH250173   5.482   5.450  15.919 -0.1114  0.6790  0.7939
 9561TIP3    H150174   5.571   5.482  15.935  1.0174 -1.7029 -0.2334
 9561TIP3    H250175   5.441   5.450  16.006  2.6590 -2.9009  2.4138
 9562TIP3   OH250176   2.271   3.885  11.660  0.0110  0.7098 -0.0169
 9562TIP3    H150177   2.266   3.952  11.592 -3.2761 -0.0193 -0.6577
 9562TIP3    H250178   2.202   3.909  11.722  0.2828 -0.8549  0.9333
 9563TIP3   OH250179   1.911   1.067   1.629  0.0155  0.2371  0.7204
 9563TIP3    H150180   1.877   1.123   1.698  0.2171  1.5355 -0.2119
 9563TIP3    H250181   1.995   1.106   1.604  0.2587 -0.5908  0.1793
 9564TIP3   OH250182   4.208   5.784   0.893  0.1876 -0.0372 -0.3426
 9564TIP3    H150183   4.207   5.696   0.931 -0.6259 -0.6267 -1.6489
 9564TIP3    H250184   4.117   5.813   0.898  0.4627  0.7680  0.1420
 9565TIP3   OH250185   3.134   2.896  15.273  0.1454  0.3593  0.0023
 9565TIP3    H150186   3.040   2.888  15.289 -0.7716  2.0381 -3.5925
 9565TIP3    H250187   3.156   2.817  15.224  0.1323  0.8218 -0.7711
 9566TIP3   OH250188   3.142   4.481  12.074 -0.0287  0.3601 -0.4156
 9566TIP3    H150189   3.217   4.529  12.037 -0.1665  0.1001 -1.0529
 9566TIP3    H250190   3.101   4.439  11.998  0.2570 -1.0150  0.1630
 9567TIP3   OH250191   4.367   2.209  14.324 -0.1680 -0.0333 -0.7894
 9567TIP3    H150192   4.358   2.129  14.375  2.1143 -1.2601 -2.1297
 9567TIP3    H250193   4.350   2.280  14.386  0.6124 -1.4784  1.1739
 9568TIP3   OH250194   6.455   2.954  13.667 -0.2258  0.5886 -0.2001
 9568TIP3    H150195   6.420   2.884  13.722 -0.0204  0.9367  0.3745
 9568TIP3    H250196   6.527   2.991  13.717 -1.6859  2.6865  0.5149
 9569TIP3   OH250197   2.126   2.479   2.305 -0.8304 -0.0785  0.0304
 9569TIP3    H150198   2.163   2.567   2.310 -1.8576  0.4903 -1.4268
 9569TIP3    H250199   2.148   2.438   2.388 -0.1594  1.4927  0.6624
 9570TIP3   OH250200   1.793   1.037  13.206  0.2997  0.2025 -0.0579
 9570TIP3    H150201   1.794   0.996  13.119 -3.4375  2.0586 -1.1834
 9570TIP3    H250202   1.773   0.966  13.266  1.2939 -0.8142 -0.8760
 9571TIP3   OH250203   5.371   0.799   2.240 -0.3642  0.0423 -0.0938
 9571TIP3    H150204   5.293   0.818   2.188 -1.4498 -0.5267  1.2734
 9571TIP3    H250205   5.379   0.704   2.237  0.0473  0.0693  0.1066
 9572TIP3   OH250206   2.548   2.596   5.033  0.1784  0.0459  0.0592
 9572TIP3    H150207   2.560   2.650   5.111  0.3888  0.6718 -0.3935
 9572TIP3    H250208   2.624   2.617   4.978 -1.1696  1.4656 -1.3745
 9573TIP3   OH250209   3.271   6.362   3.498 -0.4107 -0.1604  0.0829
 9573TIP3    H150210   3.207   6.292   3.507 -0.8699  0.1932 -0.3201
 9573TIP3    H250211   3.218   6.441   3.487  0.0800  0.4455  1.7524
 9574TIP3   OH250212   1.410   0.987   1.581 -0.4074  0.4026 -0.5902
 9574TIP3    H150213   1.417   0.899   1.543 -1.6552  0.0608 -0.0911
 9574TIP3    H250214   1.494   1.028   1.563  0.3314 -1.0229 -0.5053
 9575TIP3   OH250215   4.721   5.395   3.800 -0.0609 -0.0450 -0.0019
 9575TIP3    H150216   4.751   5.445   3.876 -0.2948  1.9845 -1.1521
 9575TIP3    H250217   4.799   5.350   3.768 -0.2585 -2.1908  2.2524
 9576TIP3   OH250218   5.149   3.138   5.261  0.0495  0.0801  0.0108
 9576TIP3    H150219   5.237   3.104   5.244  0.7733  1.8983 -0.1104
 9576TIP3    H250220   5.092   3.088   5.202  1.0416 -0.8598 -0.1780
 9577TIP3   OH250221   3.193   1.878  11.329  0.0846 -0.6952  0.0372
 9577TIP3    H150222   3.166   1.787  11.329 -0.8367 -0.4456  0.8430
 9577TIP3    H250223   3.231   1.892  11.416 -0.9533 -0.0140  0.4103
 9578TIP3   OH250224   1.340   2.057   1.683  0.2201  0.1934 -0.0421
 9578TIP3    H150225   1.416   1.999   1.688 -0.1038 -0.5909 -2.7266
 9578TIP3    H250226   1.282   2.016   1.618 -1.2498  2.1665 -0.0803
 9579TIP3   OH250227   5.353   3.025   0.366  0.0681 -0.3871 -0.1677
 9579TIP3    H150228   5.393   3.034   0.452  0.3594 -0.6988 -0.2700
 9579TIP3    H250229   5.363   3.112   0.326  0.0740 -0.2867  0.0510
 9580TIP3   OH250230   0.671   1.475   1.698  0.2550 -0.2991  0.1793
 9580TIP3    H150231   0.685   1.455   1.791 -0.7313 -0.7826  0.2414
 9580TIP3    H250232   0.654   1.569   1.696 -1.1474 -0.5099  0.7018
 9581TIP3   OH250233   3.923   3.639   1.997 -0.1795  0.0866 -0.5193
 9581TIP3    H150234   3.851   3.581   2.021  1.4833 -1.5688  0.8530
 9581TIP3    H250235   3.942   3.686   2.078 -0.1803  1.0401 -1.0710
 9582TIP3   OH250236   6.144   3.208   2.522  0.8814  0.0064 -0.2577
 9582TIP3    H150237   6.068   3.258   2.553 -1.4321 -3.9096  1.0668
 9582TIP3    H250238   6.205   3.210   2.596  0.7627  0.7478 -0.1736
 9583TIP3   OH250239   0.664   3.287  13.905 -0.1306 -0.0095 -0.4227
 9583TIP3    H150240   0.571   3.272  13.886  0.4526 -0.6894 -3.0254
 9583TIP3    H250241   0.692   3.352  13.841  1.4995 -0.7753 -0.5275
 9584TIP3   OH250242   4.189   6.625   0.043  0.2748 -0.0576  0.3383
 9584TIP3    H150243   4.096   6.614   0.061 -0.0238  2.1298  0.3714
 9584TIP3    H250244   4.198   6.603  -0.050 -0.2929 -0.1922  0.3139
 9585TIP3   OH250245   1.350   1.372  11.904  0.5205  0.3476 -0.2494
 9585TIP3    H150246   1.299   1.291  11.900  0.1136  0.5805  0.1322
 9585TIP3    H250247   1.368   1.393  11.813  2.0097 -1.0259 -0.3159
 9586TIP3   OH250248   3.020   5.685  15.303 -0.1286 -0.3795  0.2680
 9586TIP3    H150249   3.056   5.733  15.378  0.7741 -0.7785  0.1004
 9586TIP3    H250250   2.930   5.716  15.296  0.1694  0.6238  0.7195
 9587TIP3   OH250251   3.396   6.033   3.428 -0.0794  0.6047  0.3075
 9587TIP3    H150252   3.306   6.066   3.429 -0.6690 -0.8939 -0.6230
 9587TIP3    H250253   3.388   5.941   3.453  0.9898  0.0424 -1.2879
 9588TIP3   OH250254   5.095   3.795   0.665 -0.6462 -0.3194 -0.0633
 9588TIP3    H150255   5.186   3.809   0.691 -0.6773  1.2461 -0.6774
 9588TIP3    H250256   5.101   3.763   0.575 -0.7208  1.9402 -0.9207
 9589TIP3   OH250257   3.490   3.181   4.111 -0.2302  0.6045 -0.0824
 9589TIP3    H150258   3.521   3.234   4.038 -0.4550  0.0545 -0.5887
 9589TIP3    H250259   3.560   3.185   4.176 -0.5031  2.0140  0.1507
 9590TIP3   OH250260   0.011   1.071   3.993  0.9513  0.1491 -0.2855
 9590TIP3    H150261  -0.070   1.025   3.973  2.1534 -2.6091  0.6387
 9590TIP3    H250262   0.017   1.141   3.927 -1.7774  0.0076 -0.7752
 9591TIP3   OH250263   2.658   2.134   5.754 -0.0408 -0.4791 -0.1622
 9591TIP3    H150264   2.734   2.179   5.790  0.5907 -1.5336 -0.1529
 9591TIP3    H250265   2.607   2.203   5.712  1.6593  0.0243 -1.4835
 9592TIP3   OH250266   5.984   0.507   2.974 -0.0647  0.6862 -0.4994
 9592TIP3    H150267   6.078   0.492   2.981 -0.4080 -1.2147  0.9615
 9592TIP3    H250268   5.975   0.602   2.965  1.9519  0.9655 -0.0539
 9593TIP3   OH250269   1.733   5.525   5.001  0.0346 -0.1502  0.1289
 9593TIP3    H150270   1.641   5.507   5.021 -0.4529  0.8131 -1.1459
 9593TIP3    H250271   1.772   5.544   5.086  0.0262 -4.3289  1.3017
 9594TIP3   OH250272   6.332   6.325   0.865  0.2137  0.2433 -0.1398
 9594TIP3    H150273   6.271   6.330   0.939 -0.5699 -2.5101 -0.4642
 9594TIP3    H250274   6.323   6.235   0.833  3.0449  0.3251 -1.4634
 9595TIP3   OH250275   2.646   6.131  11.270  0.0539  0.7187  0.9701
 9595TIP3    H150276   2.609   6.217  11.287 -1.5558  0.2774 -0.1050
 9595TIP3    H250277   2.739   6.140  11.290  0.4145  3.3663 -1.3631
 9596TIP3   OH250278   5.150   5.902   5.294  0.2326 -0.1784  0.1586
 9596TIP3    H150279   5.212   5.858   5.236 -0.1978 -1.3468  0.5679
 9596TIP3    H250280   5.092   5.833   5.325  1.1634  0.1796  2.9465
 9597TIP3   OH250281   4.672   6.480   6.077  0.4233 -0.3157  0.1049
 9597TIP3    H150282   4.584   6.459   6.109 -0.5868  0.8001 -1.7764
 9597TIP3    H250283   4.701   6.551   6.134 -1.3425  1.6365 -1.2780
 9598TIP3   OH250284   0.600   6.642   4.816 -0.1979  0.4494  0.0393
 9598TIP3    H150285   0.658   6.567   4.798 -0.0021 -0.1568  2.7237
 9598TIP3    H250286   0.659   6.710   4.848 -0.4091  1.7271 -2.1601
 9599TIP3   OH250287   3.420   4.717   1.695  0.0443  0.0848 -0.1455
 9599TIP3    H150288   3.470   4.667   1.630  0.7540  1.9957 -1.1425
 9599TIP3    H250289   3.334   4.727   1.655  0.2602  0.6422 -0.4793
 9600TIP3   OH250290   5.627   1.559  15.570  0.7781  0.0516 -0.2195
 9600TIP3    H150291   5.549   1.590  15.616  0.9079  0.9383 -0.5594
 9600TIP3    H250292   5.699   1.609  15.609  0.9077  0.7106 -1.2457
 9601TIP3   OH250293   2.732   6.118   3.168 -0.7089  0.0921 -0.5505
 9601TIP3    H150294   2.642   6.145   3.182 -0.7612  0.4918 -1.5483
 9601TIP3    H250295   2.733   6.081   3.080  0.5888  2.4658 -1.6224
 9602TIP3   OH250296   4.225   6.299   4.930  0.7802  0.1005  0.3026
 9602TIP3    H150297   4.248   6.207   4.924 -0.0656 -0.0403 -1.3994
 9602TIP3    H250298   4.148   6.302   4.987 -0.4534 -0.5359 -1.2563
 9603TIP3   OH250299   0.230   2.545  16.654  0.0460  0.6611 -0.2048
 9603TIP3    H150300   0.256   2.463  16.694 -0.5224  0.8446  0.5515
 9603TIP3    H250301   0.157   2.577  16.707 -0.1859  1.3185 -0.8872
 9604TIP3   OH250302   3.750   6.803   0.179 -0.1636 -0.2408  0.5575
 9604TIP3    H150303   3.670   6.771   0.220 -0.3743  0.2993  0.5740
 9604TIP3    H250304   3.767   6.887   0.222  1.2698 -1.0422  1.6802
 9605TIP3   OH250305   3.601   3.300  14.701  0.3684 -0.1996  0.2733
 9605TIP3    H150306   3.602   3.395  14.689  0.0031 -0.4519 -2.2324
 9605TIP3    H250307   3.512   3.281  14.729  0.0712  0.0858 -0.4531
 9606TIP3   OH250308   6.463   2.818   2.044  0.1598  0.0266  0.0666
 9606TIP3    H150309   6.393   2.864   1.998  0.0935 -0.7358 -0.6290
 9606TIP3    H250310   6.543   2.863   2.016  0.3084 -1.5153 -2.3082
 9607TIP3   OH250311   3.092   2.193   1.648 -0.7332  0.2232  0.0433
 9607TIP3    H150312   3.154   2.266   1.649  0.3924 -0.7037  0.8394
 9607TIP3    H250313   3.085   2.166   1.740 -2.1795  0.1661 -0.0538
 9608TIP3   OH250314   4.747   2.980   0.201  0.0305 -0.5044  0.2700
 9608TIP3    H150315   4.735   2.936   0.285  2.9636 -2.3855 -0.1831
 9608TIP3    H250316   4.745   3.073   0.223  0.3971 -0.9386  2.3813
 9609TIP3   OH250317   2.619   4.591  12.339 -0.4056 -0.4599  0.0277
 9609TIP3    H150318   2.635   4.604  12.432 -0.7733 -0.9569  0.1644
 9609TIP3    H250319   2.700   4.619  12.296 -1.3467  3.0086  0.2112
 9610TIP3   OH250320   5.971   1.476   0.734 -0.6086  0.0910  0.0531
 9610TIP3    H150321   6.020   1.559   0.734 -1.5015  0.6903 -2.0965
 9610TIP3    H250322   6.032   1.413   0.694  0.6378 -0.7581  3.0390
 9611TIP3   OH250323   3.853   0.109   3.311  0.4092 -0.4870  0.3536
 9611TIP3    H150324   3.791   0.179   3.288  0.6723 -0.1949  0.5233
 9611TIP3    H250325   3.810   0.062   3.383 -0.0521 -0.8985 -0.1831
 9612TIP3   OH250326   5.080   6.771  14.222 -0.2575 -0.4427 -0.0779
 9612TIP3    H150327   4.988   6.797  14.216 -0.0907  0.3421  0.5255
 9612TIP3    H250328   5.099   6.731  14.137 -0.4045  1.9615 -1.3430
 9613TIP3   OH250329   4.592   5.839  15.020 -0.2108 -0.1134  0.4905
 9613TIP3    H150330   4.621   5.782  14.949 -0.3155  0.6051 -0.1481
 9613TIP3    H250331   4.499   5.819  15.031  0.1711 -1.4370  1.6017
 9614TIP3   OH250332   5.043   1.616   2.078  0.3808 -0.1256  0.2993
 9614TIP3    H150333   5.058   1.521   2.073  0.1530 -0.1181 -2.5669
 9614TIP3    H250334   4.954   1.627   2.044  0.7634  1.1571 -0.3423
 9615TIP3   OH250335   2.058   0.920   1.248  0.7690 -0.3612 -0.0615
 9615TIP3    H150336   1.991   0.886   1.307  2.5296 -2.2273  1.0144
 9615TIP3    H250337   2.084   1.004   1.287 -0.6762  0.2363 -0.3270
 9616TIP3   OH250338   2.804   1.372  16.560  0.4206  0.5482 -0.3260
 9616TIP3    H150339   2.845   1.290  16.531 -0.2827  0.5749 -1.4558
 9616TIP3    H250340   2.740   1.392  16.492  0.0285  1.6302  0.3394
 9617TIP3   OH250341   2.517   4.037  15.428 -0.4311  0.6751  0.4179
 9617TIP3    H150342   2.528   3.997  15.514  0.5092  1.1646  0.5476
 9617TIP3    H250343   2.547   4.127  15.440  2.8569 -0.0426 -1.1039
 9618TIP3   OH250344   0.841   5.154  14.361  0.3416  0.2006  0.1263
 9618TIP3    H150345   0.929   5.190  14.352  0.1287  0.5932 -0.4056
 9618TIP3    H250346   0.814   5.132  14.272 -1.2894  2.9229 -0.1492
 9619TIP3   OH250347   6.021   3.015  13.945  0.2084 -0.3788  0.4987
 9619TIP3    H150348   6.064   2.964  13.877 -1.3486 -0.8096 -0.1981
 9619TIP3    H250349   5.968   2.952  13.993  0.0240  0.2005  1.0687
 9620TIP3   OH250350   1.444   5.243  16.577 -0.5973  0.4079  0.1927
 9620TIP3    H150351   1.478   5.318  16.528  0.2522  0.7528  1.2484
 9620TIP3    H250352   1.500   5.170  16.550 -0.5688  0.4516  0.1342
 9621TIP3   OH250353   4.159   0.392   3.184  0.1984  0.0336  0.7747
 9621TIP3    H150354   4.225   0.363   3.247 -2.1497 -1.3698  2.7657
 9621TIP3    H250355   4.129   0.312   3.142  1.6297  0.9277 -2.2343
 9622TIP3   OH250356   5.845   3.118  13.027 -0.4370 -0.0709 -0.2760
 9622TIP3    H150357   5.934   3.085  13.015 -0.4157  0.2495 -1.0772
 9622TIP3    H250358   5.793   3.041  13.049  0.2548 -0.0718  1.5063
 9623TIP3   OH250359   3.601   2.736  14.010 -0.3052  0.5918 -0.4193
 9623TIP3    H150360   3.557   2.774  13.934 -0.1198 -0.5511 -1.1197
 9623TIP3    H250361   3.627   2.649  13.981 -1.5942 -0.4753  1.4494
 9624TIP3   OH250362   3.695   6.517  13.943  0.4219  0.1728  0.0068
 9624TIP3    H150363   3.635   6.481  14.008 -1.2245  2.4775 -0.1412
 9624TIP3    H250364   3.658   6.493  13.859 -0.0392  1.1447 -0.0813
 9625TIP3   OH250365   6.447   1.805  15.183 -0.5495  0.0294 -0.0511
 9625TIP3    H150366   6.477   1.724  15.141  0.4951  0.3755 -0.0111
 9625TIP3    H250367   6.526   1.859  15.190 -1.3207  1.3001 -0.6122
 9626TIP3   OH250368   6.741   1.548   1.484  0.0916 -0.1498  0.2148
 9626TIP3    H150369   6.687   1.558   1.562  0.5993 -0.2189  0.5822
 9626TIP3    H250370   6.812   1.490   1.511  0.1693 -0.3261 -0.3541
 9627TIP3   OH250371   5.396   4.475   2.164  0.3336  0.0559 -0.1659
 9627TIP3    H150372   5.421   4.517   2.082  1.2075 -0.5700 -0.2333
 9627TIP3    H250373   5.390   4.382   2.143  1.2582 -0.1986  0.6205
 9628TIP3   OH250374   1.118   4.299  15.389 -0.6761 -0.7676  0.1116
 9628TIP3    H150375   1.173   4.221  15.399  1.9224  0.7776 -1.2218
 9628TIP3    H250376   1.066   4.281  15.310  0.6635 -0.8043 -0.8046
 9629TIP3   OH250377   4.240   3.672   1.944  0.1562  0.1709  0.4048
 9629TIP3    H150378   4.176   3.707   1.883  0.2353  1.7018  1.1691
 9629TIP3    H250379   4.200   3.684   2.030  0.5658 -0.8440  0.7490
 9630TIP3   OH250380   2.447   0.765  16.049 -0.3787 -0.2614  0.2546
 9630TIP3    H150381   2.367   0.767  15.996 -1.5506  1.1221  1.9558
 9630TIP3    H250382   2.465   0.671  16.061 -1.9963 -0.6212  0.1620
 9631TIP3   OH250383   2.885   5.986  14.636  0.3865  0.3115 -0.1329
 9631TIP3    H150384   2.843   6.067  14.607  2.5637  1.3438 -0.6129
 9631TIP3    H250385   2.922   5.949  14.556  1.7490  0.3068  0.4774
 9632TIP3   OH250386   0.497   1.668   5.063 -0.2492  0.4521  0.0705
 9632TIP3    H150387   0.465   1.705   4.980  1.7342 -0.2964 -1.1031
 9632TIP3    H250388   0.565   1.606   5.036  0.4338  0.1809  2.2878
 9633TIP3   OH250389   1.232   0.304  14.658  0.3902 -0.0731 -0.1671
 9633TIP3    H150390   1.279   0.227  14.626 -0.1487 -0.9851  1.1337
 9633TIP3    H250391   1.139   0.280  14.652  0.1663  0.8362 -0.5884
 9634TIP3   OH250392   0.837   1.810   4.000 -0.1773 -0.2130  0.1847
 9634TIP3    H150393   0.900   1.859   3.947 -1.4821 -0.4773 -1.7458
 9634TIP3    H250394   0.880   1.727   4.019  0.6711  0.2557  0.3331
 9635TIP3   OH250395   4.297   5.202   1.326  0.0362  0.2689  0.1690
 9635TIP3    H150396   4.269   5.192   1.235 -0.0514  0.2559  0.1972
 9635TIP3    H250397   4.255   5.129   1.371 -0.1330  0.4271  0.2690
 9636TIP3   OH250398   1.157   2.581   5.364  0.3045  0.1314 -0.0933
 9636TIP3    H150399   1.201   2.497   5.352  1.2517  0.6036 -0.0178
 9636TIP3    H250400   1.228   2.646   5.361 -0.2011  0.8040  1.3983
 9637TIP3   OH250401   1.085   5.334   0.243  0.0437 -0.4575 -0.3026
 9637TIP3    H150402   1.067   5.343   0.149  1.3460  1.2845 -0.4482
 9637TIP3    H250403   1.064   5.419   0.280 -2.7299 -1.7679  1.5103
 9638TIP3   OH250404   0.487   5.449   0.297  0.5178 -0.2490  0.0450
 9638TIP3    H150405   0.456   5.375   0.350 -0.3072 -1.2245 -1.7041
 9638TIP3    H250406   0.422   5.518   0.313  0.0821 -0.6484  0.0412
 9639TIP3   OH250407   3.220   2.866   1.533  0.0195  0.2083  0.2230
 9639TIP3    H150408   3.293   2.817   1.495  0.7145  1.0558  0.4104
 9639TIP3    H250409   3.203   2.936   1.470  0.3634  0.8849  0.8522
 9640TIP3   OH250410   5.350   3.429  10.456  0.2615 -0.6134 -0.3488
 9640TIP3    H150411   5.413   3.498  10.437  1.5201 -0.8928  2.2780
 9640TIP3    H250412   5.271   3.453  10.407  1.0627  1.9804 -0.5095
 9641TIP3   OH250413   1.136   5.948   6.262  0.8556 -0.2222 -0.4087
 9641TIP3    H150414   1.219   5.900   6.257  1.0124 -0.0058  0.0641
 9641TIP3    H250415   1.089   5.908   6.335  2.0726  1.9683  1.7348
 9642TIP3   OH250416   3.681   3.027  13.324  0.1691  0.1724  0.6929
 9642TIP3    H150417   3.735   3.055  13.399 -0.5714 -0.9539  1.6822
 9642TIP3    H250418   3.641   2.945  13.353 -0.4514 -0.0833 -0.8101
 9643TIP3   OH250419   2.321   6.198  12.102  0.3705 -0.1579 -0.2534
 9643TIP3    H150420   2.312   6.280  12.054 -0.2954 -1.4616 -2.5022
 9643TIP3    H250421   2.414   6.192  12.122  0.6395  0.5306 -1.2383
 9644TIP3   OH250422   2.368   5.381  15.837  0.0390 -0.0352  0.0219
 9644TIP3    H150423   2.388   5.305  15.783  0.4382  0.9039 -1.1985
 9644TIP3    H250424   2.439   5.386  15.901  0.4551 -0.1898 -0.4327
 9645TIP3   OH250425   5.608   6.404   0.837 -0.3061  0.2558  0.7523
 9645TIP3    H150426   5.617   6.323   0.786 -0.1259  1.0914 -0.6119
 9645TIP3    H250427   5.661   6.389   0.915  1.1647 -0.3198 -0.2988
 9646TIP3   OH250428   1.803   2.795  12.916 -0.1252  0.3932  0.1613
 9646TIP3    H150429   1.711   2.820  12.929 -0.0344 -0.1757  2.2247
 9646TIP3    H250430   1.849   2.878  12.902 -0.7223  0.8330  0.7514
 9647TIP3   OH250431   2.464   3.960   5.391 -0.1591  0.2592 -0.1763
 9647TIP3    H150432   2.395   3.920   5.338 -0.4082 -0.6643  0.8089
 9647TIP3    H250433   2.518   3.886   5.419 -1.0733  0.4643  2.3427
 9648TIP3   OH250434   3.708   2.571   5.538  0.0120  0.4610  0.1205
 9648TIP3    H150435   3.677   2.585   5.448 -1.3381  0.7790  0.6027
 9648TIP3    H250436   3.779   2.508   5.530  1.6754  2.4217 -1.4307
 9649TIP3   OH250437   4.845   3.548   3.329 -0.5584 -0.6226  0.4977
 9649TIP3    H150438   4.842   3.534   3.424  0.3718 -0.9400  0.4970
 9649TIP3    H250439   4.818   3.463   3.292  0.6193 -1.0071  0.4893
 9650TIP3   OH250440   3.857   4.172   1.239  0.3455 -0.6103 -0.2148
 9650TIP3    H150441   3.898   4.087   1.258 -1.2841 -1.0372  1.7417
 9650TIP3    H250442   3.837   4.208   1.325 -3.5453 -0.5667 -0.9482
 9651TIP3   OH250443   3.119   3.578   4.964  0.2727 -0.2237 -0.3195
 9651TIP3    H150444   3.152   3.556   4.877  3.6122  0.3348  0.6747
 9651TIP3    H250445   3.086   3.495   4.998  0.2420 -0.7568 -1.5794
 9652TIP3   OH250446   0.015   6.798  11.111  0.2356 -0.0634 -0.6323
 9652TIP3    H150447  -0.024   6.749  11.039  0.3069 -0.5285 -0.3574
 9652TIP3    H250448  -0.036   6.772  11.188  1.7403 -1.5211 -0.0594
 9653TIP3   OH250449   1.294   2.012   4.365  0.5504 -0.1753 -0.1745
 9653TIP3    H150450   1.221   1.980   4.311  1.4351 -0.1955 -1.3996
 9653TIP3    H250451   1.298   1.950   4.438 -0.2193 -0.5725 -0.4514
 9654TIP3   OH250452   5.712   5.395   2.155 -0.7851  0.0437  0.4853
 9654TIP3    H150453   5.756   5.339   2.091  0.0340  0.1037  0.9788
 9654TIP3    H250454   5.735   5.484   2.128 -1.8535  0.1528 -0.1327
 9655TIP3   OH250455   3.161   3.326  11.142 -0.7341  0.1934 -0.6022
 9655TIP3    H150456   3.089   3.379  11.176 -0.0021  1.7429 -1.3459
 9655TIP3    H250457   3.120   3.271  11.074 -1.2575  0.9257 -0.8962
 9656TIP3   OH250458   3.919   3.540   3.208  0.5183  0.2129 -0.4492
 9656TIP3    H150459   4.008   3.508   3.194 -0.3378 -1.7700 -2.0023
 9656TIP3    H250460   3.916   3.624   3.163  1.6015  0.3039 -0.3718
 9657TIP3   OH250461   6.299   3.034  13.127  0.2819 -0.2626  0.4145
 9657TIP3    H150462   6.280   3.051  13.220  2.3783 -0.1594  0.8815
 9657TIP3    H250463   6.248   3.099  13.080  0.8212  1.1120  1.6357
 9658TIP3   OH250464   2.407   1.190   0.145  0.3186 -0.1052  0.2805
 9658TIP3    H150465   2.344   1.159   0.080 -0.5882  0.3951  0.8932
 9658TIP3    H250466   2.484   1.136   0.131 -0.0471 -0.3657 -0.8574
 9659TIP3   OH250467   2.667   4.967  11.854  0.3489  0.6052  0.1362
 9659TIP3    H150468   2.637   5.056  11.872  0.8654  0.5655  1.2817
 9659TIP3    H250469   2.676   4.927  11.941 -1.6693 -1.1841 -0.3924
 9660TIP3   OH250470   4.066   2.729  11.720  0.4084  0.1957 -0.2415
 9660TIP3    H150471   4.074   2.637  11.747  0.7487 -0.1307 -1.4176
 9660TIP3    H250472   4.071   2.778  11.802  0.9424 -0.7942  0.3371
 9661TIP3   OH250473   2.317   0.071  12.938  0.3287 -0.3750  0.2218
 9661TIP3    H150474   2.344  -0.020  12.950 -0.2979 -0.6887 -0.6644
 9661TIP3    H250475   2.377   0.121  12.994  0.8652 -1.2967  0.4987
 9662TIP3   OH250476   0.370   2.937   3.326 -0.5845  0.7018  0.1518
 9662TIP3    H150477   0.287   2.901   3.295  0.1608  0.0661 -1.1856
 9662TIP3    H250478   0.370   2.919   3.420 -1.7509  0.3095  0.0990
 9663TIP3   OH250479   4.013   2.744   5.153 -0.9758  0.1993 -0.5186
 9663TIP3    H150480   4.088   2.796   5.180 -0.9075  0.2824 -0.8594
 9663TIP3    H250481   3.962   2.802   5.096 -0.1032 -0.5673 -2.1565
 9664TIP3   OH250482   2.680   3.733  13.003  0.1750  0.6637 -1.2855
 9664TIP3    H150483   2.638   3.805  12.956  2.2310  1.1639 -2.4639
 9664TIP3    H250484   2.609   3.669  13.017 -1.3015  2.1383 -1.7505
 9665TIP3   OH250485   3.454   6.500   1.229 -0.2091 -0.0290  0.4632
 9665TIP3    H150486   3.420   6.503   1.140 -0.2748  0.7471  0.5062
 9665TIP3    H250487   3.381   6.467   1.281 -0.5532  0.5958  0.3904
 9666TIP3   OH250488   3.791   6.381  16.306  0.1046  0.3176 -0.5765
 9666TIP3    H150489   3.763   6.430  16.229  1.0674  1.5387 -0.1692
 9666TIP3    H250490   3.723   6.398  16.372 -0.1803  0.1122 -0.8142
 9667TIP3   OH250491   5.265   5.715  17.077  0.4968 -0.0443 -0.1592
 9667TIP3    H150492   5.251   5.725  16.983  0.0513 -0.7125 -0.1734
 9667TIP3    H250493   5.278   5.804  17.109 -0.8439  0.3500 -0.6249
 9668TIP3   OH250494   5.443   0.487   5.657 -0.0436  0.0248  0.3021
 9668TIP3    H150495   5.453   0.544   5.733 -1.8363  1.2611 -0.3232
 9668TIP3    H250496   5.359   0.443   5.670 -0.6911  0.7435 -1.2427
 9669TIP3   OH250497   3.403   2.789   3.269 -0.6153 -0.5176  0.6145
 9669TIP3    H150498   3.326   2.756   3.223 -1.0258 -0.3074  1.1284
 9669TIP3    H250499   3.469   2.801   3.201 -1.0531 -0.6579  0.1565
 9670TIP3   OH250500   4.292   1.463   5.028 -0.0799  0.8497  0.3764
 9670TIP3    H150501   4.253   1.550   5.040  0.9704  1.4356 -0.3914
 9670TIP3    H250502   4.377   1.469   5.071 -0.5223 -0.2246  1.4603
 9671TIP3   OH250503   2.732   3.317   3.377 -0.5056 -0.2515  0.3486
 9671TIP3    H150504   2.814   3.311   3.329 -0.9785 -0.3975 -0.4514
 9671TIP3    H250505   2.706   3.409   3.368 -1.7423 -0.7298 -1.6532
 9672TIP3   OH250506   0.352   5.450   5.996 -0.0506 -0.2514 -0.0628
 9672TIP3    H150507   0.375   5.476   6.086  1.0295 -0.7878 -0.1709
 9672TIP3    H250508   0.257   5.462   5.992 -0.1281 -0.2751  1.1706
 9673TIP3   OH250509   2.963   3.668   0.500 -0.0990 -0.2401 -0.5099
 9673TIP3    H150510   2.910   3.593   0.527 -1.8963  0.8038 -1.0140
 9673TIP3    H250511   3.002   3.700   0.581  0.6718 -1.6668 -0.2778
 9674TIP3   OH250512   6.665   0.828   4.264  0.8939  0.5506 -0.0628
 9674TIP3    H150513   6.690   0.839   4.356  0.9124 -1.0028  0.1449
 9674TIP3    H250514   6.621   0.909   4.242  1.1302  1.0657  1.2419
 9675TIP3   OH250515   2.214   3.370  14.256  0.2938  0.1524 -0.2065
 9675TIP3    H150516   2.285   3.371  14.192  0.6461 -0.3101  0.1648
 9675TIP3    H250517   2.139   3.407  14.210  0.5018 -0.3070 -0.9253
 9676TIP3   OH250518   3.249   4.139   2.282 -0.0697 -0.5513 -0.0710
 9676TIP3    H150519   3.264   4.073   2.214 -1.2379 -0.2953 -0.5872
 9676TIP3    H250520   3.194   4.095   2.346 -1.7327  0.2139 -0.9279
 9677TIP3   OH250521   3.223   2.633   5.437  0.0301 -0.1998  0.5168
 9677TIP3    H150522   3.289   2.565   5.426 -0.9920 -1.1475  0.0924
 9677TIP3    H250523   3.239   2.694   5.365 -0.6350 -1.3435 -0.6220
 9678TIP3   OH250524   0.013   0.202  15.455  0.2057 -0.2654 -0.2035
 9678TIP3    H150525   0.049   0.259  15.523  1.9204  0.6482 -1.7686
 9678TIP3    H250526  -0.048   0.258  15.407  0.1794 -0.4256 -0.3568
 9679TIP3   OH250527   2.718   3.307  16.248 -0.0362 -0.1265 -0.3058
 9679TIP3    H150528   2.630   3.273  16.264 -0.2241  0.8739  0.9548
 9679TIP3    H250529   2.762   3.302  16.333  0.3138  1.6153 -0.3536
 9680TIP3   OH250530   0.885   4.318  15.590 -0.0099  0.5235 -0.0941
 9680TIP3    H150531   0.845   4.394  15.548  1.4934  1.5602  0.2808
 9680TIP3    H250532   0.967   4.304  15.543 -0.2038 -0.8076 -0.0786
 9681TIP3   OH250533   1.011   2.965  16.919 -0.6927 -0.0463  0.2198
 9681TIP3    H150534   1.014   2.892  16.980 -1.2231 -1.4604 -1.3860
 9681TIP3    H250535   1.010   2.925  16.833 -1.8159  1.8321 -0.7060
 9682TIP3   OH250536   5.762   4.453  12.693  0.4716  0.0282  0.2647
 9682TIP3    H150537   5.839   4.469  12.639  0.9013 -0.1968  0.8060
 9682TIP3    H250538   5.695   4.512  12.657  1.2344  1.0863  0.5303
 9683TIP3   OH250539   5.528   5.025  14.133  0.4003  0.0057  0.3497
 9683TIP3    H150540   5.575   5.028  14.217  1.3663  2.3850 -0.1698
 9683TIP3    H250541   5.497   5.115  14.121  0.7115 -0.1600 -2.0491
 9684TIP3   OH250542   5.078   5.832   4.905 -0.3128 -0.0326 -0.3722
 9684TIP3    H150543   5.083   5.781   4.986 -0.0560 -0.6301 -0.7657
 9684TIP3    H250544   5.141   5.903   4.918  2.5248 -2.1406 -1.4657
 9685TIP3   OH250545   4.833   2.456  13.268 -0.2885  0.2238 -0.2901
 9685TIP3    H150546   4.883   2.537  13.271  1.2723 -0.6127 -1.9566
 9685TIP3    H250547   4.892   2.389  13.304 -0.3097 -0.7046 -1.8910
 9686TIP3   OH250548   1.004   6.135  15.044  0.0646 -0.7570 -0.0636
 9686TIP3    H150549   1.017   6.099  14.956  1.7045 -0.5457  0.0667
 9686TIP3    H250550   1.086   6.181  15.063 -1.0643  1.0432  0.7135
 9687TIP3   OH250551   5.429   0.593   1.022  0.1819 -0.2196  0.0644
 9687TIP3    H150552   5.466   0.568   0.937 -0.4607  2.3307 -1.0827
 9687TIP3    H250553   5.431   0.689   1.021  0.2586 -0.1010  3.0190
 9688TIP3   OH250554   1.514   1.016   2.882  0.2318  0.6237  1.0043
 9688TIP3    H150555   1.537   0.928   2.911  2.3459  0.7525 -0.1241
 9688TIP3    H250556   1.435   1.003   2.828  1.2496 -0.7977 -0.2230
 9689TIP3   OH250557   5.643   1.638  12.010 -0.2882 -0.0607  0.2701
 9689TIP3    H150558   5.644   1.734  12.010 -0.3840 -0.0066 -1.6732
 9689TIP3    H250559   5.551   1.614  12.010 -0.4303  0.0205 -2.9249
 9690TIP3   OH250560   2.861   1.738  16.648  0.3218 -0.4591 -0.6220
 9690TIP3    H150561   2.771   1.717  16.672  1.0398 -1.8279  1.1641
 9690TIP3    H250562   2.874   1.828  16.677  0.0486 -0.8837  0.9435
 9691TIP3   OH250563   3.518   3.417   5.317  0.2552 -0.3292 -0.5851
 9691TIP3    H150564   3.540   3.355   5.247  0.7236 -0.0276 -0.7084
 9691TIP3    H250565   3.427   3.441   5.300 -1.4984 -4.2182  1.8953
 9692TIP3   OH250566   5.183   6.787   2.517  0.1178 -0.5243  0.3990
 9692TIP3    H150567   5.198   6.692   2.510  2.4833 -0.3103  1.4979
 9692TIP3    H250568   5.261   6.826   2.478 -1.1166  1.0184 -0.6162
 9693TIP3   OH250569   6.777   5.976   3.399  0.0559 -0.3917  0.0008
 9693TIP3    H150570   6.843   6.045   3.390  0.7142 -0.4507  3.1838
 9693TIP3    H250571   6.741   5.988   3.487 -0.3195 -3.6818  0.4343
 9694TIP3   OH250572   5.014   0.460  16.239  0.3438  0.0223 -0.2865
 9694TIP3    H150573   5.099   0.495  16.265  0.0365 -0.1994  1.1163
 9694TIP3    H250574   4.980   0.523  16.175  0.2135  1.8388  1.4783
 9695TIP3   OH250575   4.512   1.563   2.764 -0.4520  0.2171 -0.1669
 9695TIP3    H150576   4.571   1.634   2.736 -0.2146  0.3148  0.5662
 9695TIP3    H250577   4.476   1.529   2.682  0.7581  0.0446 -0.6547
 9696TIP3   OH250578   0.117   2.708   4.347  0.0392 -0.2937 -0.3416
 9696TIP3    H150579   0.156   2.786   4.387  0.9780 -1.3796  0.9311
 9696TIP3    H250580   0.074   2.741   4.268  0.7904  1.4424 -0.0724
 9697TIP3   OH250581   1.556   2.703  16.551  0.2321  0.1142  0.0271
 9697TIP3    H150582   1.573   2.709  16.457  1.9829 -1.2328  0.1980
 9697TIP3    H250583   1.605   2.626  16.580 -0.0350  0.6427  2.0950
 9698TIP3   OH250584   5.464   2.534   3.023  0.3256  0.0105  0.0133
 9698TIP3    H150585   5.526   2.469   2.989  0.4134 -0.9117  1.8142
 9698TIP3    H250586   5.497   2.556   3.110  0.3865  2.6533 -0.5915
 9699TIP3   OH250587   6.221   4.292   3.347  0.5881 -0.3632 -0.0270
 9699TIP3    H150588   6.235   4.330   3.260  0.2777 -0.9068 -0.3212
 9699TIP3    H250589   6.258   4.356   3.407 -0.8461  0.9037 -0.4324
 9700TIP3   OH250590   1.464   4.061  12.840  0.4651 -0.2572  0.2821
 9700TIP3    H150591   1.537   4.013  12.880 -0.2445 -0.8611  0.9027
 9700TIP3    H250592   1.399   3.993  12.822  0.8676 -0.0629 -2.2457
 9701TIP3   OH250593   1.484   2.179   4.238 -0.4169  0.0952  0.0020
 9701TIP3    H150594   1.432   2.116   4.288 -0.6361 -0.1373 -0.5069
 9701TIP3    H250595   1.420   2.226   4.185 -0.1340 -0.0393 -0.4660
 9702TIP3   OH250596   3.457   3.087  10.398 -0.2774 -0.2016 -0.0344
 9702TIP3    H150597   3.445   3.077  10.492  0.0765 -0.8675 -0.0584
 9702TIP3    H250598   3.428   3.004  10.360  0.5682 -0.3310 -0.4218
 9703TIP3   OH250599   6.753   6.519   1.284  0.0965  1.0483  0.1671
 9703TIP3    H150600   6.680   6.562   1.330  0.4626  0.9246  0.8737
 9703TIP3    H250601   6.728   6.523   1.192  0.9886  4.5350 -0.0468
 9704TIP3   OH250602   2.237   2.443  15.826  0.4213 -0.4884 -0.1822
 9704TIP3    H150603   2.218   2.528  15.865 -1.7333 -0.2126 -1.6439
 9704TIP3    H250604   2.181   2.381  15.873  0.6971 -0.8069 -0.2692
 9705TIP3   OH250605   2.685   5.763  15.058 -0.2279 -0.0142 -0.3583
 9705TIP3    H150606   2.736   5.685  15.036  2.0759  1.3927 -0.2999
 9705TIP3    H250607   2.596   5.742  15.029  0.7219 -1.8837 -2.1737
 9706TIP3   OH250608   4.647   0.517  14.824 -0.1373 -0.4507  0.1392
 9706TIP3    H150609   4.639   0.598  14.773 -0.7265 -1.6850 -1.8476
 9706TIP3    H250610   4.742   0.504  14.832 -0.0360  0.0424 -0.1686
 9707TIP3   OH250611   0.845   0.877   5.051 -0.3545 -0.2423 -0.0196
 9707TIP3    H150612   0.793   0.866   5.131 -0.0792  0.9419  0.3498
 9707TIP3    H250613   0.824   0.966   5.022  0.4067 -0.2599 -0.6408
 9708TIP3   OH250614   0.750   2.345  11.988 -0.1058 -0.2023  0.0554
 9708TIP3    H150615   0.796   2.420  12.026  2.4016 -1.3555 -0.4779
 9708TIP3    H250616   0.729   2.372  11.899 -3.6880  1.5554  1.2311
 9709TIP3   OH250617   3.898   2.670  16.270  0.4292 -0.0415  0.5319
 9709TIP3    H150618   3.823   2.634  16.318  0.0954  0.5569  0.4745
 9709TIP3    H250619   3.941   2.727  16.334  0.0812  0.6260  0.1823
 9710TIP3   OH250620   1.308   2.926  12.274  0.3536 -0.4228  0.3491
 9710TIP3    H150621   1.397   2.910  12.244  0.2084 -2.1167  0.7219
 9710TIP3    H250622   1.261   2.846  12.254 -1.0821  0.4171  0.2375
 9711TIP3   OH250623   1.053   5.566  13.244 -0.4654 -0.4627  0.4961
 9711TIP3    H150624   0.980   5.533  13.191 -1.6634  2.0237  0.4670
 9711TIP3    H250625   1.128   5.563  13.186 -0.7238 -2.0706  0.1841
 9712TIP3   OH250626   3.253   0.969   1.836 -0.0151  0.0260 -0.1821
 9712TIP3    H150627   3.230   1.037   1.772  0.1732 -0.1449 -0.4327
 9712TIP3    H250628   3.187   0.901   1.822 -0.6853  0.4870  0.6031
 9713TIP3   OH250629   1.320   6.506  15.875 -0.0437 -0.4848 -0.3020
 9713TIP3    H150630   1.261   6.514  15.950 -0.3556 -0.1885 -0.5769
 9713TIP3    H250631   1.404   6.480  15.913 -0.0246  0.3169  0.2181
 9714TIP3   OH250632   5.726   3.274   5.680 -0.2764  0.5573 -0.6675
 9714TIP3    H150633   5.714   3.286   5.774 -0.5141  0.4778 -0.6868
 9714TIP3    H250634   5.646   3.230   5.651  0.7138 -1.4463 -0.5414
 9715TIP3   OH250635   5.021   4.983   5.737 -0.0257 -0.3316 -0.8175
 9715TIP3    H150636   5.055   4.959   5.823  1.3431 -0.6609 -1.4240
 9715TIP3    H250637   4.998   5.075   5.745  0.2251 -0.3251 -0.1323
 9716TIP3   OH250638   4.201   6.447  14.998  0.0941 -0.0782  0.2876
 9716TIP3    H150639   4.150   6.371  15.027 -0.2694  0.3085  0.6888
 9716TIP3    H250640   4.281   6.443  15.051 -0.0027 -0.0843  0.4350
 9717TIP3   OH250641   3.913   5.593  14.027 -0.0805 -0.1323 -0.4291
 9717TIP3    H150642   3.859   5.646  14.086 -0.5480 -1.7965  0.6960
 9717TIP3    H250643   3.896   5.631  13.940 -0.0183  1.8349  0.3622
 9718TIP3   OH250644   6.277   5.675   1.023  0.2312  0.3626 -0.0956
 9718TIP3    H150645   6.299   5.763   1.054 -1.8674  0.0806  2.5602
 9718TIP3    H250646   6.193   5.687   0.978 -0.8026 -0.4128  1.5382
 9719TIP3   OH250647   3.150   4.351  16.155  0.1033  0.2668  0.6265
 9719TIP3    H150648   3.244   4.373  16.155  0.0002  0.7662 -0.5049
 9719TIP3    H250649   3.116   4.397  16.232  0.6652  0.6420  0.6623
 9720TIP3   OH250650   6.198   1.125   1.478 -0.1385 -0.1931  0.0968
 9720TIP3    H150651   6.115   1.146   1.435  0.5496 -0.5672 -1.5011
 9720TIP3    H250652   6.233   1.051   1.429  1.7106  0.7219 -0.0997
 9721TIP3   OH250653   1.649   2.569   1.031  0.1498  0.2989 -0.3082
 9721TIP3    H150654   1.636   2.591   1.123  0.5011  0.2841 -0.2523
 9721TIP3    H250655   1.688   2.481   1.032 -0.1666  0.1539 -0.4837
 9722TIP3   OH250656   3.172   1.520   6.088 -0.3699  0.3710 -0.0126
 9722TIP3    H150657   3.077   1.523   6.093 -0.3294  1.4906  0.2167
 9722TIP3    H250658   3.202   1.593   6.142  0.6596 -0.7366  0.9819
 9723TIP3   OH250659   1.964   3.040   0.453 -0.4579  0.0730 -0.4512
 9723TIP3    H150660   1.954   2.948   0.478  0.5202 -0.6673 -2.5395
 9723TIP3    H250661   1.875   3.074   0.449 -0.8321 -0.7707  0.3385
 9724TIP3   OH250662   5.797   2.791  14.289  0.3438  0.3570  0.5986
 9724TIP3    H150663   5.807   2.803  14.195  1.4884  0.8004  0.7628
 9724TIP3    H250664   5.854   2.857  14.328  1.5499 -1.1978  1.5734
 9725TIP3   OH250665   1.230   1.916   3.206 -0.4815  1.0064 -0.1838
 9725TIP3    H150666   1.196   1.908   3.295 -0.6253 -1.0686 -0.3565
 9725TIP3    H250667   1.323   1.891   3.214 -0.6043  0.3561 -0.6499
 9726TIP3   OH250668   3.635   1.943  14.271 -0.2870  0.1503  0.3766
 9726TIP3    H150669   3.644   2.021  14.216  0.7316  0.8017  1.4245
 9726TIP3    H250670   3.609   1.873  14.210  1.3450  0.7143 -1.0380
 9727TIP3   OH250671   4.406   2.190   1.167  0.5664  0.0652  0.9347
 9727TIP3    H150672   4.343   2.228   1.106  1.7014  0.7761  0.1722
 9727TIP3    H250673   4.461   2.263   1.194  2.3516 -0.8572  0.0017
 9728TIP3   OH250674   4.985   6.036   2.581 -0.1050  0.0189  0.5182
 9728TIP3    H150675   4.917   6.103   2.590  0.5756  0.6147  1.3342
 9728TIP3    H250676   5.004   6.035   2.487  0.2575  1.3812  0.5453
 9729TIP3   OH250677   5.134   1.296   3.673  0.7192 -0.3685 -1.0625
 9729TIP3    H150678   5.216   1.252   3.652 -0.2018 -1.9879 -1.4390
 9729TIP3    H250679   5.086   1.301   3.590 -0.6812 -1.9335 -0.4109
 9730TIP3   OH250680   0.088   0.414  12.114  1.0796  0.0860  0.2475
 9730TIP3    H150681   0.163   0.388  12.167  0.4149  0.6625  1.5124
 9730TIP3    H250682   0.118   0.405  12.024  2.4512 -0.3095  0.7209
 9731TIP3   OH250683   5.910   2.770  16.328  0.5664  0.3235  0.2623
 9731TIP3    H150684   5.883   2.683  16.356  1.5302 -0.3813 -0.9179
 9731TIP3    H250685   5.984   2.755  16.269 -0.3650  1.8189 -1.3989
 9732TIP3   OH250686   2.163   5.545  16.975 -0.6959  0.3072  0.2724
 9732TIP3    H150687   2.175   5.602  16.899 -0.5147  0.3037  0.2974
 9732TIP3    H250688   2.158   5.606  17.049  1.4274  0.2179  0.5465
 9733TIP3   OH250689   5.134   1.873   4.337 -0.0661 -0.5075 -0.6586
 9733TIP3    H150690   5.134   1.913   4.424  0.8258 -1.7863 -0.0247
 9733TIP3    H250691   5.041   1.863   4.315 -0.3339 -1.1166  0.6316
 9734TIP3   OH250692   3.424   3.709   3.558 -0.2077 -0.5405  0.0706
 9734TIP3    H150693   3.427   3.796   3.598  0.9283  0.0328 -1.1973
 9734TIP3    H250694   3.335   3.677   3.576  0.3000 -0.4870  3.3212
 9735TIP3   OH250695   5.648   1.225  12.136  0.5627 -0.1747  0.1031
 9735TIP3    H150696   5.566   1.183  12.164  0.9526  1.0402  3.6930
 9735TIP3    H250697   5.716   1.165  12.168  1.0700  0.2571 -0.1801
 9736TIP3   OH250698   5.109   2.752  15.999  0.2497  0.2786  0.0377
 9736TIP3    H150699   5.172   2.820  15.977 -0.0297  1.2260  1.9021
 9736TIP3    H250700   5.062   2.787  16.075 -2.1157 -0.6537 -0.8991
 9737TIP3   OH250701   0.897   2.716  14.944  0.0419 -0.2651  0.3539
 9737TIP3    H150702   0.843   2.783  14.901 -0.7518 -0.9531  0.2589
 9737TIP3    H250703   0.965   2.695  14.879  0.3280  0.4705  0.4031
 9738TIP3   OH250704   2.740   6.365  16.085 -0.1099 -0.0356  0.8127
 9738TIP3    H150705   2.797   6.415  16.142 -0.2447  0.1401  0.7933
 9738TIP3    H250706   2.653   6.373  16.125 -0.4251  1.0511 -0.0437
 9739TIP3   OH250707   6.659   5.454  11.833  0.5231 -0.2842  0.5273
 9739TIP3    H150708   6.612   5.507  11.897  0.4835  0.7564 -0.3217
 9739TIP3    H250709   6.741   5.430  11.877  0.7230  0.8481  0.8182
 9740TIP3   OH250710   0.535   2.451  11.563  0.9626 -0.5636  0.4106
 9740TIP3    H150711   0.469   2.384  11.581  1.7804 -1.4825  0.0783
 9740TIP3    H250712   0.582   2.419  11.486  1.3976  0.3867  0.2601
 9741TIP3   OH250713   3.546   1.100   2.182 -0.1341  0.1535 -0.0243
 9741TIP3    H150714   3.555   1.161   2.255  1.3479  2.2826 -1.8356
 9741TIP3    H250715   3.463   1.124   2.140 -0.5746 -0.5155  0.4362
 9742TIP3   OH250716   6.614   4.904   2.827 -0.2936 -0.2307 -0.1791
 9742TIP3    H150717   6.617   4.998   2.847 -1.5508  0.3696 -2.4418
 9742TIP3    H250718   6.695   4.888   2.779 -0.6980  0.0355 -0.9693
 9743TIP3   OH250719   3.287   4.165  14.299  0.4129 -0.1691 -0.2634
 9743TIP3    H150720   3.221   4.178  14.368  0.7621 -0.7195  0.1877
 9743TIP3    H250721   3.369   4.154  14.347  0.2688 -3.5754 -0.5189
 9744TIP3   OH250722   1.859   0.594   3.663  0.9218  0.4480 -0.7784
 9744TIP3    H150723   1.812   0.562   3.740  1.8560  0.3454 -0.2432
 9744TIP3    H250724   1.809   0.560   3.589 -0.2978  0.9900 -0.2352
 9745TIP3   OH250725   1.933   3.846   1.542  0.1897  0.0105  0.1008
 9745TIP3    H150726   1.927   3.904   1.618 -4.1499 -0.2532  0.2285
 9745TIP3    H250727   1.926   3.905   1.466  1.6302  0.0474 -0.0209
 9746TIP3   OH250728   4.457   4.412  14.618  0.4554  0.2263 -0.4458
 9746TIP3    H150729   4.474   4.419  14.712 -0.1144  0.7951 -0.3814
 9746TIP3    H250730   4.421   4.497  14.593 -0.3531 -0.2580 -0.9813
 9747TIP3   OH250731   0.541   5.450   4.523 -0.1419 -0.0142  0.5249
 9747TIP3    H150732   0.492   5.393   4.582 -0.1834 -0.7275 -0.1690
 9747TIP3    H250733   0.478   5.474   4.455  0.7889 -2.2436 -1.2750
 9748TIP3   OH250734   2.131   1.121  11.088  0.1620  0.0409 -0.0970
 9748TIP3    H150735   2.094   1.176  11.157 -1.0481 -0.5689 -0.2354
 9748TIP3    H250736   2.128   1.177  11.010  0.7250  0.4286  0.1492
 9749TIP3   OH250737   4.944   3.676   5.992 -0.6338  0.2027  0.3553
 9749TIP3    H150738   5.035   3.689   5.967 -0.6016  0.0687  0.4012
 9749TIP3    H250739   4.929   3.739   6.062 -0.6757  0.4612  0.1107
 9750TIP3   OH250740   5.049   6.063  10.297  0.5741 -0.7282 -0.4525
 9750TIP3    H150741   5.018   5.995  10.357 -0.4129 -0.7255 -0.9428
 9750TIP3    H250742   4.974   6.121  10.286  0.3871 -1.2742 -2.4519
 9751TIP3   OH250743   0.496   5.160  14.118 -0.0042  0.5283 -0.0898
 9751TIP3    H150744   0.459   5.226  14.176 -0.6303  1.7488 -1.7768
 9751TIP3    H250745   0.572   5.203  14.078  0.4607 -0.3017 -0.1106
 9752TIP3   OH250746   5.497   0.849  15.759  0.4411  0.3168 -0.5971
 9752TIP3    H150747   5.520   0.757  15.744 -0.0539  0.2517 -0.9895
 9752TIP3    H250748   5.422   0.846  15.818 -0.6254  0.3907 -1.8947
 9753TIP3   OH250749   2.163   0.861   0.858 -0.4816  0.0643 -0.4616
 9753TIP3    H150750   2.253   0.872   0.890 -0.0638  0.4779 -1.7121
 9753TIP3    H250751   2.145   0.941   0.809 -0.8193 -0.8051 -1.8263
 9754TIP3   OH250752   5.435   4.172  12.421  0.1447  0.1159  0.3940
 9754TIP3    H150753   5.366   4.110  12.397  1.4562 -0.9561 -0.7719
 9754TIP3    H250754   5.468   4.140  12.505 -1.3809  1.1975  1.4477
 9755TIP3   OH250755   1.694   4.522  16.030  0.0074  0.2397  0.0487
 9755TIP3    H150756   1.761   4.590  16.027  0.3427 -0.0168  1.1515
 9755TIP3    H250757   1.660   4.525  16.119 -1.2253  0.1376 -0.4018
 9756TIP3   OH250758   2.714   4.586   5.075  0.0483 -0.4144 -0.5105
 9756TIP3    H150759   2.737   4.516   5.136 -0.6597 -1.6637 -1.6144
 9756TIP3    H250760   2.779   4.655   5.091  0.4010 -1.0674  1.0084
 9757TIP3   OH250761   3.672   5.022  14.346 -0.1114  0.3985  0.3132
 9757TIP3    H150762   3.639   5.050  14.261 -1.7287 -1.6888  0.1882
 9757TIP3    H250763   3.767   5.016  14.334  0.0578  3.2861 -0.3162
 9758TIP3   OH250764   5.126   2.547   4.358  0.4172 -0.0280 -0.0846
 9758TIP3    H150765   5.136   2.585   4.446 -2.3875  2.1715 -0.5748
 9758TIP3    H250766   5.130   2.452   4.373  1.7625  0.2897  2.1126
 9759TIP3   OH250767   5.566   0.458   2.901 -0.1516  0.3651  0.3849
 9759TIP3    H150768   5.522   0.379   2.869 -1.8816  0.6766  1.8170
 9759TIP3    H250769   5.494   0.518   2.922  1.0455  1.5939  1.1221
 9760TIP3   OH250770   3.407   0.706   6.227  0.2309  0.0167 -0.8314
 9760TIP3    H150771   3.355   0.631   6.197  0.3120 -0.0563 -0.7916
 9760TIP3    H250772   3.377   0.779   6.173 -0.4286  0.1364 -0.3032
 9761TIP3   OH250773   1.380   1.184   3.501 -0.1359 -0.2635 -0.5459
 9761TIP3    H150774   1.448   1.118   3.487  1.3998  1.1065 -0.0525
 9761TIP3    H250775   1.307   1.136   3.540  0.9896 -1.6442 -0.0272
 9762TIP3   OH250776   3.013   2.731   0.314 -0.4826  0.3915  0.2432
 9762TIP3    H150777   2.923   2.706   0.335 -0.1942  0.0550  1.1196
 9762TIP3    H250778   3.023   2.818   0.352 -0.0396 -0.1136  1.3240
 9763TIP3   OH250779   3.178   6.456   1.029 -0.0581 -0.0525  0.1693
 9763TIP3    H150780   3.221   6.387   1.078  0.6766  1.3069  1.5091
 9763TIP3    H250781   3.222   6.457   0.944  0.6044 -0.5701  0.5005
 9764TIP3   OH250782   0.645   0.881  12.839  0.4186 -0.9468 -0.2170
 9764TIP3    H150783   0.676   0.961  12.795 -3.0977  0.7615  0.0800
 9764TIP3    H250784   0.608   0.828  12.768 -1.0091 -0.3294  0.0263
 9765TIP3   OH250785   2.380   5.499   4.580  0.2224 -0.1006 -0.2799
 9765TIP3    H150786   2.343   5.510   4.668 -3.6469  0.4127 -1.7600
 9765TIP3    H250787   2.342   5.417   4.548  1.2426 -0.0854 -1.6234
 9766TIP3   OH250788   6.040   4.814  15.380  0.0901 -0.5275  0.0589
 9766TIP3    H150789   6.094   4.892  15.391 -0.5862 -0.3155  2.3943
 9766TIP3    H250790   6.011   4.818  15.289  0.3923  1.7369 -0.0058
 9767TIP3   OH250791   5.663   4.042   1.327 -0.1258  0.0128 -0.2629
 9767TIP3    H150792   5.750   4.075   1.304 -0.2927  0.8957  0.3438
 9767TIP3    H250793   5.666   4.031   1.422 -0.6641 -0.0048 -0.2460
 9768TIP3   OH250794   2.047   2.125   4.981 -0.5287  0.1601 -0.4065
 9768TIP3    H150795   2.061   2.138   5.075  1.5136  1.3743 -0.8319
 9768TIP3    H250796   2.134   2.110   4.945 -1.4019 -1.5665 -1.9699
 9769TIP3   OH250797   0.769   0.443   5.937 -0.3415  0.2569 -0.1917
 9769TIP3    H150798   0.731   0.457   6.024 -1.6642 -1.0645 -0.5222
 9769TIP3    H250799   0.811   0.527   5.916  1.9848 -0.0463  2.5984
 9770TIP3   OH250800   3.941   5.027  14.250 -0.1273  0.2050 -0.0785
 9770TIP3    H150801   3.969   5.052  14.162  1.4506  0.3222  0.4192
 9770TIP3    H250802   4.005   5.069  14.308  1.0894 -2.7220  0.9384
 9771TIP3   OH250803   0.141   5.752  14.429  0.0698  0.1783  0.2892
 9771TIP3    H150804   0.105   5.797  14.505 -0.0228 -0.3764  0.5773
 9771TIP3    H250805   0.086   5.781  14.356 -0.2699  0.1855  0.5477
 9772TIP3   OH250806   6.242   1.157   4.543 -0.0462  0.3313  0.2263
 9772TIP3    H150807   6.310   1.190   4.601 -0.1801  0.7593  0.1451
 9772TIP3    H250808   6.289   1.124   4.466  0.1315 -0.2358  0.5758
 9773TIP3   OH250809   4.383   4.141   4.266 -0.0741  0.2236 -0.4467
 9773TIP3    H150810   4.446   4.072   4.245 -2.1223 -1.1743 -2.5681
 9773TIP3    H250811   4.436   4.218   4.286  2.2774 -1.1823 -0.9690
 9774TIP3   OH250812   5.466   1.045   2.518 -0.3278 -0.0462 -0.3572
 9774TIP3    H150813   5.532   1.036   2.449  1.3674  0.4809  1.1265
 9774TIP3    H250814   5.458   0.958   2.556  1.2417  0.3457  0.9429
 9775TIP3   OH250815   2.153   6.384  14.255  0.4399 -0.2022 -0.2402
 9775TIP3    H150816   2.209   6.367  14.332  1.4212 -2.2084 -1.3099
 9775TIP3    H250817   2.204   6.445  14.202  0.9733 -0.8841 -0.5237
 9776TIP3   OH250818   4.682   3.094  14.882 -0.2510 -0.2549  0.3171
 9776TIP3    H150819   4.769   3.055  14.884 -0.2315 -0.2199  0.0979
 9776TIP3    H250820   4.676   3.137  14.797 -0.9300 -1.2944 -0.1783
 9777TIP3   OH250821   2.545   1.073  15.755 -0.2075 -0.1241 -0.3331
 9777TIP3    H150822   2.509   1.128  15.825  0.9125  0.4235 -0.1600
 9777TIP3    H250823   2.469   1.046  15.705 -1.0050 -0.2627  0.9067
 9778TIP3   OH250824   6.588   6.580   5.996  0.2954  0.5690 -0.5495
 9778TIP3    H150825   6.657   6.588   5.930 -0.8570 -1.6122 -2.1655
 9778TIP3    H250826   6.588   6.488   6.020 -0.2035  1.0788  1.5680
 9779TIP3   OH250827   0.298   5.129  16.793  0.3297  0.2008 -0.6221
 9779TIP3    H150828   0.335   5.192  16.731 -0.6605  2.8988  1.2740
 9779TIP3    H250829   0.372   5.104  16.848  1.0676 -1.6787 -2.3658
 9780TIP3   OH250830   5.453   5.543   2.293  0.0657  0.2341  0.3282
 9780TIP3    H150831   5.375   5.508   2.248 -2.7410  0.8234  4.2104
 9780TIP3    H250832   5.512   5.468   2.301 -0.5523 -0.5315 -1.7520
 9781TIP3   OH250833   6.279   5.580  14.486 -0.0083 -0.2404  0.4924
 9781TIP3    H150834   6.237   5.500  14.518  0.8906 -1.3376 -0.9329
 9781TIP3    H250835   6.226   5.651  14.521 -2.9475 -1.5304 -1.0620
 9782TIP3   OH250836   2.388   3.947  13.188  0.1389  0.6046  0.1013
 9782TIP3    H150837   2.312   3.966  13.134  0.5014 -1.1878 -1.1137
 9782TIP3    H250838   2.351   3.909  13.268 -0.2554 -0.7597 -0.7032
 9783TIP3   OH250839   3.842   3.418   2.799 -0.1211 -0.0732 -0.0656
 9783TIP3    H150840   3.756   3.425   2.840 -1.2330 -2.8071 -1.6400
 9783TIP3    H250841   3.891   3.358   2.855  1.0421  1.9082  1.1311
 9784TIP3   OH250842   2.423   6.621  12.507  0.0398  0.1228 -0.3345
 9784TIP3    H150843   2.488   6.555  12.530 -0.5859 -1.2266 -2.1626
 9784TIP3    H250844   2.462   6.671  12.436 -0.3300  0.2939 -0.4238
 9785TIP3   OH250845   0.449   0.841  15.852 -0.2706  0.2753 -0.1703
 9785TIP3    H150846   0.480   0.753  15.872 -0.5061  0.2915  0.2728
 9785TIP3    H250847   0.514   0.876  15.791 -0.1200 -0.1645 -0.2671
 9786TIP3   OH250848   2.867   6.518  16.329  0.3793  0.2976  0.3873
 9786TIP3    H150849   2.936   6.579  16.353  1.3044 -0.4951 -0.1760
 9786TIP3    H250850   2.792   6.573  16.307  0.8685  1.1752  0.8785
 9787TIP3   OH250851   3.560   4.593  16.306  0.0877  0.5161  0.4459
 9787TIP3    H150852   3.603   4.655  16.247  0.3939 -0.4935 -0.4384
 9787TIP3    H250853   3.629   4.529  16.327 -1.0396 -1.4880 -1.4891
 9788TIP3   OH250854   6.783   6.687   2.175 -0.2134 -0.0890  0.1207
 9788TIP3    H150855   6.818   6.748   2.111  0.6648  1.5833  2.1149
 9788TIP3    H250856   6.726   6.740   2.231 -2.0908 -1.7825 -0.0350
 9789TIP3   OH250857   6.359   5.090  13.705 -0.5235 -0.1414  0.0049
 9789TIP3    H150858   6.423   5.151  13.743 -0.0200 -1.0647  0.6658
 9789TIP3    H250859   6.302   5.067  13.779 -1.2608  0.1830 -0.4388
 9790TIP3   OH250860   0.537   1.201  10.723 -0.3592  0.3912 -0.1401
 9790TIP3    H150861   0.461   1.229  10.774 -0.8691 -0.0183 -0.6700
 9790TIP3    H250862   0.520   1.110  10.701  1.1757 -0.3131  1.3484
 9791TIP3   OH250863   2.811   0.058   3.423  0.4660  0.6233  0.3864
 9791TIP3    H150864   2.844   0.147   3.413 -0.0957  0.6934 -1.2535
 9791TIP3    H250865   2.784   0.051   3.514  0.9054  1.9939  0.6326
 9792TIP3   OH250866   2.221   6.065   5.788  0.7804  0.2859  0.1101
 9792TIP3    H150867   2.152   6.127   5.810  0.4220  0.2266 -0.8120
 9792TIP3    H250868   2.175   5.985   5.762  1.2183  0.0124  0.1500
 9793TIP3   OH250869   1.968   0.702  16.474 -0.1210 -0.3405 -0.6150
 9793TIP3    H150870   2.033   0.761  16.435 -1.8578  2.5967  0.5620
 9793TIP3    H250871   2.020   0.637  16.520  2.0396  1.4534 -0.3120
 9794TIP3   OH250872   4.770   4.935   5.097  0.6571  0.1345  0.1544
 9794TIP3    H150873   4.721   4.867   5.143 -1.1505  1.0289 -0.3400
 9794TIP3    H250874   4.797   4.996   5.165  1.9245 -0.8083  0.5454
 9795TIP3   OH250875   6.123   3.982  10.539  0.1991  0.4153 -0.3701
 9795TIP3    H150876   6.216   3.962  10.536  0.5308  1.9097 -0.8825
 9795TIP3    H250877   6.117   4.075  10.517 -1.4032  0.3892 -0.2137
 9796TIP3   OH250878   0.349   5.172   2.906  0.6082 -0.1177  0.3955
 9796TIP3    H150879   0.390   5.135   2.985 -0.6466 -2.2348  0.1486
 9796TIP3    H250880   0.275   5.114   2.889 -1.0065  2.1092 -0.5998
 9797TIP3   OH250881   3.210   6.771  12.958  0.3719  0.6267  0.1078
 9797TIP3    H150882   3.265   6.704  12.999  0.9111 -0.4522 -2.1865
 9797TIP3    H250883   3.271   6.826  12.910 -0.3975  0.1960 -1.4172
 9798TIP3   OH250884   0.569   4.498  11.966 -0.1942 -0.0022 -0.4774
 9798TIP3    H150885   0.577   4.589  11.993 -0.1192 -0.0950 -0.1823
 9798TIP3    H250886   0.496   4.497  11.904 -1.2595 -0.0102  0.7464
 9799TIP3   OH250887   1.356   3.525   4.439 -0.3797 -0.4592 -0.0343
 9799TIP3    H150888   1.389   3.490   4.356 -0.2729  1.0929 -0.6787
 9799TIP3    H250889   1.421   3.589   4.466 -1.5419  0.7360  0.0264
 9800TIP3   OH250890   0.620   6.596  15.652  0.3261  0.4031  0.4207
 9800TIP3    H150891   0.574   6.638  15.725  0.6487 -0.7824  1.3391
 9800TIP3    H250892   0.675   6.665  15.616  0.1722  1.0098  1.3133
 9801TIP3   OH250893   6.467   2.214  15.680  0.1510 -0.2316  0.1149
 9801TIP3    H150894   6.429   2.258  15.756 -0.9747 -0.0895 -0.5066
 9801TIP3    H250895   6.543   2.169  15.714 -0.7189 -0.7359  1.4722
 9802TIP3   OH250896   3.583   1.998  15.078  0.5748 -0.2975 -0.2615
 9802TIP3    H150897   3.615   1.940  15.009  2.2982  0.7073 -0.3631
 9802TIP3    H250898   3.635   1.974  15.155 -1.0246 -1.1090  0.6164
 9803TIP3   OH250899   4.807   1.188   5.125  0.1770 -0.2865 -0.1608
 9803TIP3    H150900   4.838   1.188   5.035  0.4157  0.2263 -0.0820
 9803TIP3    H250901   4.739   1.121   5.127 -0.3641  0.2246 -0.9150
 9804TIP3   OH250902   5.365   5.078   2.048 -0.5334 -0.3393  0.0198
 9804TIP3    H150903   5.430   5.147   2.062 -0.7621 -0.2742  0.7826
 9804TIP3    H250904   5.414   5.006   2.008 -0.3777  0.4257 -1.2200
 9805TIP3   OH250905   3.207   2.109  16.732 -0.2948 -0.4245 -0.4865
 9805TIP3    H150906   3.276   2.096  16.667 -0.0623 -2.1032  0.0490
 9805TIP3    H250907   3.243   2.072  16.813 -1.2198  0.1119  0.1881
 9806TIP3   OH250908   5.369   3.742   0.969  0.0578 -0.0199  0.2710
 9806TIP3    H150909   5.415   3.740   1.053  2.6392  2.7771 -0.8776
 9806TIP3    H250910   5.280   3.713   0.989  1.1555 -1.6989  3.4669
 9807TIP3   OH250911   4.022   0.974   6.467 -0.0939 -0.2935  0.2346
 9807TIP3    H150912   3.997   1.056   6.424  0.2884 -1.0803 -1.6005
 9807TIP3    H250913   4.101   0.996   6.516  0.4871  0.2815 -0.9121
 9808TIP3   OH250914   2.470   6.166   5.055  0.1526  0.4148 -0.5845
 9808TIP3    H150915   2.399   6.198   4.999  1.3381  3.0155 -0.7432
 9808TIP3    H250916   2.438   6.177   5.144  0.1067  1.0329 -0.6706
 9809TIP3   OH250917   3.856   3.618   0.159  0.5713  0.1161  1.0477
 9809TIP3    H150918   3.776   3.570   0.179  0.2754  0.2231  0.1477
 9809TIP3    H250919   3.836   3.667   0.080  2.3205 -1.8807 -0.7791
 9810TIP3   OH250920   2.147   2.230  16.575  0.3502  0.0816  0.1012
 9810TIP3    H150921   2.109   2.224  16.663 -0.7266 -0.9621 -0.3959
 9810TIP3    H250922   2.241   2.220  16.589  0.1231 -0.9504  1.0852
 9811TIP3   OH250923   6.004   2.477   2.300 -0.1247 -0.0919  0.0312
 9811TIP3    H150924   5.992   2.552   2.358 -0.9954  0.7689 -1.2020
 9811TIP3    H250925   6.048   2.411   2.354 -0.8637  0.6796  1.6362
 9812TIP3   OH250926   2.729   2.305  13.653 -0.7925 -0.3161  0.0309
 9812TIP3    H150927   2.645   2.341  13.625  0.4548  1.4384 -1.7381
 9812TIP3    H250928   2.706   2.240  13.720 -3.5243  0.0817 -0.3922
 9813TIP3   OH250929   2.233   1.424  13.950  0.0160 -0.0108  0.9698
 9813TIP3    H150930   2.280   1.390  14.026 -1.6133 -2.2613  1.0638
 9813TIP3    H250931   2.270   1.376  13.876  0.4535  0.9978  0.5042
 9814TIP3   OH250932   2.176   2.695  15.991 -0.3350 -0.1094 -0.3215
 9814TIP3    H150933   2.170   2.752  15.915  2.5802  2.6733  1.2745
 9814TIP3    H250934   2.112   2.729  16.053  0.2540  0.4257  0.0089
 9815TIP3   OH250935   0.894   6.650  16.794  0.0583  0.1755 -0.3521
 9815TIP3    H150936   0.980   6.690  16.781  0.4710 -0.0820  1.3282
 9815TIP3    H250937   0.901   6.563  16.755  0.4424  0.2758 -0.5066
 9816TIP3   OH250938   5.459   1.783  17.221  0.1817  0.2874  0.2032
 9816TIP3    H150939   5.544   1.827  17.225  0.2712  0.1945 -0.5472
 9816TIP3    H250940   5.480   1.692  17.202 -0.1038  0.3491 -0.4258
 9817TIP3   OH250941   5.036   5.956  11.498 -0.1294  0.3728  0.5811
 9817TIP3    H150942   4.946   5.968  11.468 -0.2252 -1.6642 -0.1021
 9817TIP3    H250943   5.081   6.037  11.474 -1.1495  0.3564 -1.5972
 9818TIP3   OH250944   5.949   0.832   3.888  0.1479  0.4057 -0.4799
 9818TIP3    H150945   6.009   0.813   3.816 -0.0977 -3.1129  0.0824
 9818TIP3    H250946   6.005   0.870   3.956  1.3826 -0.8770 -0.7398
 9819TIP3   OH250947   4.851   3.148   4.152  0.1636  0.0840  0.0855
 9819TIP3    H150948   4.843   3.144   4.247  1.6792  1.1165  0.2926
 9819TIP3    H250949   4.821   3.062   4.122 -1.1659  0.0458  1.4056
 9820TIP3   OH250950   4.588   2.862  16.592 -0.6676  0.3118  0.0780
 9820TIP3    H150951   4.536   2.810  16.531 -0.7667  0.8813 -0.3290
 9820TIP3    H250952   4.660   2.804  16.618 -1.0531 -0.2004  0.0227
 9821TIP3   OH250953   0.901   0.391  12.728  0.3411  0.3739  0.1285
 9821TIP3    H150954   0.820   0.421  12.771  0.1674 -0.2479  0.2417
 9821TIP3    H250955   0.871   0.329  12.662  0.6433  1.0081 -0.6191
 9822TIP3   OH250956   4.665   6.594  14.926  0.3740 -0.5716 -0.8434
 9822TIP3    H150957   4.632   6.639  14.849  1.4286 -1.2699 -1.7312
 9822TIP3    H250958   4.679   6.504  14.897 -0.4683 -1.1690  0.5339
 9823TIP3   OH250959   5.994   4.166   1.036  0.3745  1.0632 -0.4149
 9823TIP3    H150960   5.991   4.257   1.065  1.1181  1.3547 -1.2281
 9823TIP3    H250961   6.055   4.124   1.098 -1.9300  0.4686  1.6055
 9824TIP3   OH250962   5.609   5.329   1.321 -0.4207 -0.1258  0.0552
 9824TIP3    H150963   5.598   5.239   1.352 -1.7833 -0.6839 -1.8565
 9824TIP3    H250964   5.620   5.320   1.227 -0.2268  1.7088 -0.1174
 9825TIP3   OH250965   5.863   3.276   3.945  0.1336 -0.2389 -0.3918
 9825TIP3    H150966   5.875   3.335   4.019 -0.1509 -1.4600  0.6518
 9825TIP3    H250967   5.769   3.260   3.942  0.3695 -1.9143  0.3767
 9826TIP3   OH250968   5.481   2.997  11.251  0.3158 -0.1031  0.2038
 9826TIP3    H150969   5.568   3.014  11.285  0.4629  0.4531 -0.4088
 9826TIP3    H250970   5.490   2.916  11.201  0.4390 -0.1398  0.2854
 9827TIP3   OH250971   4.916   2.622   1.512 -0.4774 -0.1998  0.3241
 9827TIP3    H150972   4.839   2.663   1.551 -0.4898 -1.4303  1.6766
 9827TIP3    H250973   4.883   2.540   1.475  0.2491 -1.0628  1.5029
 9828TIP3   OH250974   0.106   5.864  15.280 -0.1097 -0.4660 -0.0527
 9828TIP3    H150975   0.195   5.897  15.296 -0.7200  1.8812 -1.0550
 9828TIP3    H250976   0.118   5.771  15.260  2.0678 -0.2930  0.1647
 9829TIP3   OH250977   3.177   2.537   3.863 -0.1307 -0.0399 -0.1243
 9829TIP3    H150978   3.250   2.487   3.899  0.4735  0.8480 -0.0567
 9829TIP3    H250979   3.194   2.539   3.768  0.5865  1.1166  0.0019
 9830TIP3   OH250980   3.021   4.560  14.104 -0.3943 -0.4219 -0.2540
 9830TIP3    H150981   3.054   4.630  14.159  1.1426 -2.3461  1.4188
 9830TIP3    H250982   3.028   4.594  14.015 -1.0008  2.0035  0.5410
 9831TIP3   OH250983   3.719   1.777  16.284 -0.1473  0.6186  0.3835
 9831TIP3    H150984   3.747   1.801  16.372 -0.6858  1.1332  0.4167
 9831TIP3    H250985   3.650   1.712  16.297 -0.1343  0.5956  0.3381
 9832TIP3   OH250986   5.013   6.545   2.786  0.3759  0.4686 -0.6421
 9832TIP3    H150987   5.091   6.522   2.736  0.8566 -0.6387  0.5660
 9832TIP3    H250988   4.979   6.624   2.743  2.1416  0.9588 -1.2190
 9833TIP3   OH250989   4.269   2.068   5.342 -0.0059 -0.4673 -0.3791
 9833TIP3    H150990   4.365   2.063   5.348 -0.1466 -1.9731  1.5081
 9833TIP3    H250991   4.240   1.978   5.355 -1.7200  0.0203 -0.6334
 9834TIP3   OH250992   4.576   4.107   0.309  0.3953 -0.0162  0.2617
 9834TIP3    H150993   4.548   4.199   0.316  1.3443  0.4145 -1.1294
 9834TIP3    H250994   4.503   4.063   0.266 -0.8579 -0.3686  2.5838
 9835TIP3   OH250995   1.669   5.690  16.235  0.8654  0.1354 -0.7316
 9835TIP3    H150996   1.667   5.777  16.275  0.8671  0.1681 -0.8035
 9835TIP3    H250997   1.729   5.640  16.290  0.8523  0.1739 -0.6824
 9836TIP3   OH250998   0.633   2.745   0.218  0.0593  0.5227  0.3567
 9836TIP3    H150999   0.592   2.827   0.245 -2.1724  0.3132 -1.9747
 9836TIP3    H251000   0.569   2.677   0.241  1.5818 -0.5359  1.6644
 9837TIP3   OH251001   5.424   4.618  12.986 -0.3046 -0.5810  0.3525
 9837TIP3    H151002   5.425   4.613  13.082 -0.4924  0.1586  0.4012
 9837TIP3    H251003   5.477   4.695  12.966 -0.7791 -0.3702 -0.1097
 9838TIP3   OH251004   2.834   4.157  11.309 -0.7008  0.1787  0.5345
 9838TIP3    H151005   2.792   4.242  11.297  0.0964  0.6817  1.1983
 9838TIP3    H251006   2.927   4.175  11.294 -0.6436 -0.7915 -0.3522
 9839TIP3   OH251007   2.566   2.314   6.049  0.4720  0.1029 -0.2359
 9839TIP3    H151008   2.519   2.396   6.067 -0.4222 -0.0918 -1.5264
 9839TIP3    H251009   2.577   2.313   5.954 -1.5876 -2.3165 -0.5542
 9840TIP3   OH251010   1.495   0.795  13.826 -0.1366  0.0769 -0.7005
 9840TIP3    H151011   1.473   0.828  13.739  1.9666  0.3716 -1.1877
 9840TIP3    H251012   1.495   0.700  13.817 -1.0245  0.0728 -0.7102
 9841TIP3   OH251013   0.391   4.474   4.669  0.5556  0.1871  0.4499
 9841TIP3    H151014   0.460   4.411   4.690  0.6105  0.2942  0.5852
 9841TIP3    H251015   0.426   4.526   4.598  0.2363 -0.4072 -0.1633
 9842TIP3   OH251016   6.577   3.416   3.290 -0.1762  0.5707  0.1461
 9842TIP3    H151017   6.543   3.360   3.221  0.1520  2.7364 -1.9251
 9842TIP3    H251018   6.667   3.387   3.303 -0.2588  0.1027 -0.3157
 9843TIP3   OH251019   0.308   0.751  16.665 -0.1162  0.0934 -0.9073
 9843TIP3    H151020   0.272   0.831  16.625 -0.5979  0.7022  0.6791
 9843TIP3    H251021   0.255   0.738  16.744  1.1545 -0.7613 -0.1759
 9844TIP3   OH251022   5.472   0.116   3.057 -0.1023 -0.2131 -0.1073
 9844TIP3    H151023   5.469   0.071   2.973 -0.7640  1.2873 -0.9272
 9844TIP3    H251024   5.425   0.198   3.043 -1.6949 -0.6218  2.1667
 9845TIP3   OH251025   2.760   5.642  15.852 -0.3770  0.2960 -0.5243
 9845TIP3    H151026   2.820   5.596  15.793  0.4041  1.7534 -0.8985
 9845TIP3    H251027   2.807   5.647  15.936 -0.5131  0.3004 -0.4465
 9846TIP3   OH251028   5.501   4.591   2.758 -1.1659  0.6198 -0.3142
 9846TIP3    H151029   5.534   4.575   2.847 -2.8423 -0.6195  0.1219
 9846TIP3    H251030   5.569   4.555   2.701 -1.0875 -0.6492  0.5265
 9847TIP3   OH251031   3.885   1.161   1.665 -0.3974 -0.1415 -0.0839
 9847TIP3    H151032   3.863   1.072   1.695  0.9649 -0.3297  0.4631
 9847TIP3    H251033   3.837   1.171   1.584 -1.9310 -0.7275  0.7079
 9848TIP3   OH251034   2.157   6.323  16.095  1.1305  0.4370 -0.3922
 9848TIP3    H151035   2.141   6.379  16.020 -0.2853  0.9355  0.2369
 9848TIP3    H251036   2.160   6.234  16.059 -0.6692  0.5593 -0.9288
 9849TIP3   OH251037   5.735   2.568  12.908  0.5082 -0.0250 -0.9016
 9849TIP3    H151038   5.686   2.519  12.974  2.2970 -0.0891  0.4578
 9849TIP3    H251039   5.668   2.614  12.857 -0.9645 -0.3616  0.6482
 9850TIP3   OH251040   1.266   6.210   1.041  0.0563  0.3913  0.4019
 9850TIP3    H151041   1.273   6.294   1.087  0.9679  0.5019  0.0738
 9850TIP3    H251042   1.201   6.160   1.092 -1.6026  1.8156 -0.2345
 9851TIP3   OH251043   4.830   3.969   0.655  0.3905 -0.0397 -0.0314
 9851TIP3    H151044   4.814   4.033   0.724 -1.3366 -0.0694 -0.3692
 9851TIP3    H251045   4.919   3.939   0.671  0.4661  0.8624  1.4253
 9852TIP3   OH251046   2.395   1.814   3.655 -0.4858  0.1330  0.6836
 9852TIP3    H151047   2.324   1.754   3.678 -0.8439  0.4788  0.5015
 9852TIP3    H251048   2.380   1.891   3.710  0.5412 -0.3219  1.6343
 9853TIP3   OH251049   6.624   4.301  11.920 -0.7655  0.4928  0.1436
 9853TIP3    H151050   6.531   4.325  11.929 -0.4339  1.6957  0.4764
 9853TIP3    H251051   6.639   4.240  11.993 -0.7045  2.2018  1.6284
 9854TIP3   OH251052   3.829   4.920  15.865  0.2585  0.4980  0.8061
 9854TIP3    H151053   3.869   4.897  15.781 -0.8215  1.9751 -0.1603
 9854TIP3    H251054   3.872   5.002  15.890  0.1292  0.3907  1.3893
 9855TIP3   OH251055   5.678   2.759  11.533 -0.2614  0.0441 -0.0965
 9855TIP3    H151056   5.635   2.819  11.594 -1.5916 -1.8147  0.9317
 9855TIP3    H251057   5.746   2.717  11.585 -0.3737 -0.4288 -0.3216
 9856TIP3   OH251058   1.931   6.621  14.973 -0.3493  0.2952  0.0622
 9856TIP3    H151059   1.962   6.700  14.927  0.4828  0.1547  0.3636
 9856TIP3    H251060   1.903   6.654  15.058 -0.1945  0.2969  0.1136
 9857TIP3   OH251061   6.617   6.538  12.581 -0.1706 -0.2541 -0.2835
 9857TIP3    H151062   6.623   6.523  12.675 -2.9274 -0.9537 -0.1336
 9857TIP3    H251063   6.589   6.454  12.545  1.3093 -0.1388 -1.8411
 9858TIP3   OH251064   0.207   0.874   5.624  0.4467 -0.1258 -0.2841
 9858TIP3    H151065   0.272   0.810   5.597  0.5119  0.1921 -0.9089
 9858TIP3    H251066   0.246   0.919   5.699  0.8199 -0.1402 -0.4687
 9859TIP3   OH251067   2.831   4.179  14.511  0.0966  0.4612 -0.0773
 9859TIP3    H151068   2.791   4.260  14.482 -1.3647 -0.1652  0.0830
 9859TIP3    H251069   2.770   4.145  14.577  1.1975 -0.2543  0.6010
 9860TIP3   OH251070   2.119   2.454   5.884 -0.1710 -0.7849 -0.2800
 9860TIP3    H151071   2.099   2.402   5.962  1.2178  0.9206  1.3104
 9860TIP3    H251072   2.201   2.418   5.852  0.7886  0.3104  0.8191
 9861TIP3   OH251073   3.141   0.885   6.190 -0.3633  0.1421 -0.3247
 9861TIP3    H151074   3.172   0.896   6.100 -0.2141 -0.2960 -0.3296
 9861TIP3    H251075   3.109   0.972   6.215 -0.5713  0.2253 -0.8599
 9862TIP3   OH251076   5.284   5.060  14.536  0.1479 -0.5599  0.0771
 9862TIP3    H151077   5.251   4.975  14.507  3.5512 -1.9741 -0.0543
 9862TIP3    H251078   5.273   5.117  14.460 -1.6998 -0.9463 -0.0018
 9863TIP3   OH251079   5.774   4.330   5.031 -0.5451 -0.3619 -0.4229
 9863TIP3    H151080   5.754   4.240   5.058 -0.6203 -0.0067  0.7368
 9863TIP3    H251081   5.712   4.384   5.079  2.2460  0.6687  2.3811
 9864TIP3   OH251082   4.131   1.680  14.246  0.4803 -0.6212 -0.7860
 9864TIP3    H151083   4.164   1.664  14.157  2.2485  1.2084 -0.5352
 9864TIP3    H251084   4.051   1.731  14.234  0.4827 -0.7366 -1.3155
 9865TIP3   OH251085   1.814   2.887  11.559 -0.3610  0.1987 -0.2384
 9865TIP3    H151086   1.739   2.842  11.597  0.0328  0.4802  0.9359
 9865TIP3    H251087   1.777   2.959  11.509 -0.9426 -0.7380 -1.1995
 9866TIP3   OH251088   3.210   0.970  10.628 -0.4478  0.1783  0.8206
 9866TIP3    H151089   3.196   1.062  10.605 -1.8330 -0.3839 -0.7758
 9866TIP3    H251090   3.124   0.930  10.620  0.6284 -1.9406 -1.8956
 9867TIP3   OH251091   5.518   2.037  11.663  0.0021 -0.2697  0.2343
 9867TIP3    H151092   5.451   2.052  11.730 -0.1591 -1.1481  0.2822
 9867TIP3    H251093   5.477   1.978  11.601  1.5789 -3.1064  1.6854
 9868TIP3   OH251094   1.549   3.917   0.963  0.6875  0.1867  0.0282
 9868TIP3    H151095   1.460   3.883   0.974  0.7081  0.4639  1.1198
 9868TIP3    H251096   1.577   3.940   1.051  0.9982  2.2267 -0.5655
 9869TIP3   OH251097   1.563   6.160  12.841 -0.6089 -0.1543 -0.2574
 9869TIP3    H151098   1.580   6.153  12.935  0.2483  1.4333 -0.2545
 9869TIP3    H251099   1.547   6.070  12.812  2.6537 -1.2050  0.7673
 9870TIP3   OH251100   1.377   4.438  15.297  0.2574  0.0659 -0.1777
 9870TIP3    H151101   1.339   4.352  15.311 -0.7324  0.4047 -0.6804
 9870TIP3    H251102   1.310   4.487  15.249  0.3417  1.4736  1.0677
 9871TIP3   OH251103   0.026   2.649   2.631 -0.2210  0.2337 -0.1275
 9871TIP3    H151104   0.073   2.732   2.642 -1.4617  1.0065 -0.4286
 9871TIP3    H251105   0.061   2.612   2.550  1.6353 -0.4484  0.9521
 9872TIP3   OH251106   4.272   4.633  13.963 -0.4445  0.4540  0.7607
 9872TIP3    H151107   4.299   4.702  14.023 -0.3436  0.4556  0.7130
 9872TIP3    H251108   4.351   4.581  13.949 -1.0106 -1.0107  2.5696
 9873TIP3   OH251109   3.337   3.802   6.443  0.4775 -0.1014  0.2111
 9873TIP3    H151110   3.407   3.743   6.414  0.2015 -2.1894  3.2816
 9873TIP3    H251111   3.383   3.882   6.469  0.9474  0.9078 -3.2737
 9874TIP3   OH251112   5.257   1.929  16.704 -0.6600 -0.3299 -0.2908
 9874TIP3    H151113   5.182   1.879  16.735 -0.5148 -0.2362  0.2235
 9874TIP3    H251114   5.309   1.946  16.783 -1.1504  1.3733 -0.2888
 9875TIP3   OH251115   4.450   4.100  10.483  0.0702 -0.1015  0.0517
 9875TIP3    H151116   4.525   4.041  10.484 -0.9002 -1.4070 -0.6409
 9875TIP3    H251117   4.375   4.045  10.507 -0.6724  1.1765  0.8012
 9876TIP3   OH251118   2.934   5.885   4.306 -0.4665 -0.2227 -0.5917
 9876TIP3    H151119   2.847   5.847   4.293 -0.4468 -0.3517 -0.3374
 9876TIP3    H251120   2.934   5.919   4.395  0.0756 -1.1002 -0.2459
 9877TIP3   OH251121   5.842   4.410  10.508 -0.6902  0.0975  0.5468
 9877TIP3    H151122   5.918   4.443  10.461  0.6007 -0.3838  2.1788
 9877TIP3    H251123   5.770   4.417  10.446  0.6275  0.8147 -0.9719
 9878TIP3   OH251124   1.143   4.485   5.737  0.6035 -0.0525 -0.1404
 9878TIP3    H151125   1.083   4.410   5.728  1.0595 -1.0665  3.6335
 9878TIP3    H251126   1.088   4.558   5.763  0.4741  0.3712 -1.5002
 9879TIP3   OH251127   6.474   5.666  15.148 -0.0170 -0.0242  0.0042
 9879TIP3    H151128   6.382   5.688  15.161 -0.0881  0.8851 -1.6649
 9879TIP3    H251129   6.522   5.743  15.178  0.1836 -0.3937  0.6353
 9880TIP3   OH251130   2.851   6.231   3.828  0.1343 -0.9142  0.1330
 9880TIP3    H151131   2.936   6.188   3.822 -0.2294 -1.7625  0.9784
 9880TIP3    H251132   2.809   6.192   3.904 -0.6406  0.1724  0.2893
 9881TIP3   OH251133   0.276   6.349   5.397 -0.2989 -0.0533  0.4349
 9881TIP3    H151134   0.327   6.333   5.317  1.0344  1.5215  0.8978
 9881TIP3    H251135   0.260   6.444   5.396 -1.8540 -0.2834  1.1384
 9882TIP3   OH251136   0.638   0.419   5.562  0.1224  0.2425  0.3608
 9882TIP3    H151137   0.573   0.354   5.537 -0.5316  1.2240 -0.5810
 9882TIP3    H251138   0.612   0.448   5.649  0.3818 -0.6875  0.7578
 9883TIP3   OH251139   3.756   6.537   3.628  0.0676 -0.2343 -0.1966
 9883TIP3    H151140   3.686   6.493   3.580  0.2456 -2.0344  1.0722
 9883TIP3    H251141   3.735   6.520   3.720  2.7307 -1.8723  0.2141
 9884TIP3   OH251142   1.812   4.283  12.044  0.3381  1.0322  0.0971
 9884TIP3    H151143   1.848   4.362  12.004  1.5103  0.1594 -0.6339
 9884TIP3    H251144   1.819   4.298  12.138  1.5117  1.3814 -0.0372
 9885TIP3   OH251145   4.786   1.577   1.411 -0.1468  0.4813  0.9892
 9885TIP3    H151146   4.736   1.650   1.449 -1.4261  0.1562  0.0002
 9885TIP3    H251147   4.868   1.618   1.381 -0.3342  1.2741  1.5156
 9886TIP3   OH251148   3.614   0.546  12.014 -0.0566 -0.1745 -1.0911
 9886TIP3    H151149   3.664   0.487  12.069  1.3260  0.1666 -1.9339
 9886TIP3    H251150   3.523   0.528  12.036  0.3684 -1.8927 -0.6255
 9887TIP3   OH251151   0.459   1.207  12.498  0.8872 -0.6132 -0.1503
 9887TIP3    H151152   0.552   1.215  12.520  0.4251  1.4723  1.3696
 9887TIP3    H251153   0.450   1.252  12.414  0.8427  2.0621  1.1720
 9888TIP3   OH251154   2.842   6.622   1.662  0.6802  0.2077 -0.2636
 9888TIP3    H151155   2.873   6.712   1.669  1.2586 -0.0603  0.9207
 9888TIP3    H251156   2.918   6.572   1.633  0.7343 -0.0953  0.3848
 9889TIP3   OH251157   5.682   6.470   1.366 -0.0928  0.1269  0.3460
 9889TIP3    H151158   5.769   6.464   1.327  0.9115  0.1134  2.4507
 9889TIP3    H251159   5.638   6.390   1.337  1.5647 -1.2450  1.3809
 9890TIP3   OH251160   3.326   5.477  11.424  0.2289 -0.2515 -0.1025
 9890TIP3    H151161   3.415   5.509  11.440 -0.0895  0.0364  1.2142
 9890TIP3    H251162   3.338   5.389  11.389  1.0354 -1.0556  2.0364
 9891TIP3   OH251163   6.777   6.178   0.441  0.1047 -0.3594  0.3165
 9891TIP3    H151164   6.778   6.088   0.474  0.3451 -0.9124 -1.1024
 9891TIP3    H251165   6.864   6.190   0.402 -0.1214  0.2866 -0.0044
 9892TIP3   OH251166   3.343   0.624  14.209  0.0601  0.5744 -0.0476
 9892TIP3    H151167   3.315   0.703  14.255 -0.2201 -0.2706  1.2910
 9892TIP3    H251168   3.352   0.558  14.277 -0.4255 -0.7624 -1.2214
 9893TIP3   OH251169   1.441   0.286   3.216  0.3735  0.1046  0.1917
 9893TIP3    H151170   1.487   0.293   3.300 -0.0897 -1.3635  0.5982
 9893TIP3    H251171   1.507   0.254   3.155  0.2962 -0.5075  0.4178
 9894TIP3   OH251172   0.100   0.734  13.233  0.3769  0.1638  1.0467
 9894TIP3    H151173   0.051   0.666  13.278 -1.1566  2.3506  2.8793
 9894TIP3    H251174   0.184   0.693  13.212 -1.2118 -2.8955  0.1055
 9895TIP3   OH251175   3.538   4.831  15.615  0.1314  0.1859  0.3070
 9895TIP3    H151176   3.501   4.917  15.595  0.8034  0.2310 -0.8512
 9895TIP3    H251177   3.507   4.811  15.703 -1.2553  0.9621  0.0321
 9896TIP3   OH251178   0.453   6.240  15.449 -0.3712  0.1219 -0.3707
 9896TIP3    H151179   0.522   6.256  15.514  1.1640  1.7549 -2.2792
 9896TIP3    H251180   0.383   6.300  15.473  0.0485  0.4870 -0.0255
 9897TIP3   OH251181   5.467   5.915   5.986  0.4656 -0.5658  0.3691
 9897TIP3    H151182   5.447   5.906   5.892  1.9695 -1.2739  0.0807
 9897TIP3    H251183   5.382   5.932   6.027 -0.0758  0.9671 -1.2477
 9898TIP3   OH251184   1.946   3.074  14.483 -0.1976  0.5058  0.5760
 9898TIP3    H151185   1.908   2.986  14.488 -0.0640  0.3058 -1.3262
 9898TIP3    H251186   1.881   3.129  14.526 -1.6698 -0.1499 -0.6923
 9899TIP3   OH251187   6.532   3.959   2.143 -0.1866 -0.4452 -0.8133
 9899TIP3    H151188   6.584   3.990   2.069  0.4440 -0.1365 -0.2509
 9899TIP3    H251189   6.450   4.008   2.136  0.6164  1.0636 -0.2045
 9900TIP3   OH251190   3.354   2.618  11.547  0.4616 -0.3213 -0.1973
 9900TIP3    H151191   3.431   2.624  11.604  0.3989 -3.9743  0.5220
 9900TIP3    H251192   3.390   2.602  11.459  0.4982  2.0901 -0.6798
 9901TIP3   OH251193   3.190   3.589   3.628 -0.1814 -0.2473 -0.1269
 9901TIP3    H151194   3.127   3.604   3.557  2.5169 -0.4407 -2.7687
 9901TIP3    H251195   3.182   3.496   3.647 -1.1165 -0.1414  0.0882
 9902TIP3   OH251196   3.901   1.784   3.668  0.1110  0.0415 -0.2828
 9902TIP3    H151197   3.974   1.760   3.612 -0.0664 -0.7248 -0.1985
 9902TIP3    H251198   3.939   1.845   3.732  0.6194 -0.1784 -0.3726
 9903TIP3   OH251199   3.304   2.822  11.289 -0.1155  0.5268 -0.4219
 9903TIP3    H151200   3.322   2.835  11.195 -0.7014  0.0261 -0.6099
 9903TIP3    H251201   3.390   2.828  11.330  0.1243  0.9741 -0.9637
 9904TIP3   OH251202   2.428   4.463   4.598  0.0394 -0.4075 -0.6362
 9904TIP3    H151203   2.442   4.372   4.625 -0.9816 -0.5911 -0.6887
 9904TIP3    H251204   2.496   4.512   4.644  0.4664 -1.1694 -0.4379
 9905TIP3   OH251205   0.826   4.646  15.891 -0.0937 -1.0326 -0.7578
 9905TIP3    H151206   0.836   4.740  15.907 -0.0290 -0.9783 -1.0943
 9905TIP3    H251207   0.887   4.628  15.819 -0.1854 -1.3105 -0.7653
 9906TIP3   OH251208   6.480   5.130  16.785 -0.5451  0.2258 -0.5636
 9906TIP3    H151209   6.538   5.179  16.727 -0.0320 -0.0022 -0.2579
 9906TIP3    H251210   6.393   5.165  16.768 -0.5828 -0.6202 -2.3132
 9907TIP3   OH251211   1.483   0.682   3.225  0.1839  0.3204  0.1945
 9907TIP3    H151212   1.547   0.617   3.255  0.2298  0.3456  0.1512
 9907TIP3    H251213   1.428   0.634   3.163  1.6009  0.8816 -1.5725
 9908TIP3   OH251214   1.624   2.689  11.646 -0.3171 -0.0555  0.2446
 9908TIP3    H151215   1.712   2.654  11.635 -1.1286 -1.6853 -1.6266
 9908TIP3    H251216   1.606   2.679  11.740  0.7101 -1.6830  0.3139
 9909TIP3   OH251217   4.908   5.049  15.552 -0.3222 -0.4029  0.9034
 9909TIP3    H151218   4.903   4.995  15.630 -0.2338 -2.2539 -0.3183
 9909TIP3    H251219   4.905   4.987  15.479 -0.3929  1.2527 -0.5758
 9910TIP3   OH251220   5.087   0.227  13.039 -0.0543  0.1481 -0.4481
 9910TIP3    H151221   5.067   0.138  13.010  1.2460 -0.0012 -0.9417
 9910TIP3    H251222   5.011   0.252  13.092  0.1595 -1.7888  0.9207
 9911TIP3   OH251223   5.794   6.471  12.842  0.2234 -0.3886 -0.3512
 9911TIP3    H151224   5.703   6.441  12.841 -0.0480  0.3110 -2.7389
 9911TIP3    H251225   5.845   6.394  12.814  0.3060 -0.5759  0.2976
 9912TIP3   OH251226   4.762   3.455   3.581  0.0218  0.0023  0.2748
 9912TIP3    H151227   4.676   3.414   3.592 -0.5129  0.6059 -1.3920
 9912TIP3    H251228   4.819   3.408   3.642 -0.8723 -2.3011 -0.5450
 9913TIP3   OH251229   2.192   3.640  14.698  0.0612 -0.0936 -0.2612
 9913TIP3    H151230   2.229   3.574  14.640 -1.6238 -0.2493 -1.2548
 9913TIP3    H251231   2.113   3.599  14.734 -2.6564  2.1527 -3.0723
 9914TIP3   OH251232   3.076   4.631   2.748 -0.0513 -0.0666  0.3868
 9914TIP3    H151233   3.158   4.667   2.714 -0.2946  0.5067  0.3906
 9914TIP3    H251234   3.016   4.633   2.674 -0.6430  1.3833  0.8832
 9915TIP3   OH251235   3.579   6.127   1.710 -0.4316 -0.1444  0.4267
 9915TIP3    H151236   3.666   6.093   1.687 -0.1111  0.5483  0.5761
 9915TIP3    H251237   3.593   6.221   1.720 -1.2307 -0.0152  0.3349
 9916TIP3   OH251238   3.964   6.268   4.713 -0.1732 -0.0099  0.0963
 9916TIP3    H151239   3.922   6.352   4.692 -1.1987 -0.4716  0.2484
 9916TIP3    H251240   4.054   6.279   4.683 -0.6641  0.6258 -1.2413
 9917TIP3   OH251241   1.553   1.033   4.542 -0.1345 -0.2873 -0.0310
 9917TIP3    H151242   1.581   0.948   4.575  0.2660 -1.0966 -2.3014
 9917TIP3    H251243   1.572   1.094   4.613  0.2622 -1.9717  1.3569
 9918TIP3   OH251244   3.314   0.303   0.885  0.0843  0.0372 -0.0604
 9918TIP3    H151245   3.232   0.348   0.865  0.7573  1.1667 -0.3530
 9918TIP3    H251246   3.327   0.243   0.811 -0.9496 -0.8568  0.4615
 9919TIP3   OH251247   1.888   1.294  15.212 -0.1943  0.5190 -0.1488
 9919TIP3    H151248   1.923   1.338  15.289  1.9639 -0.6205 -0.4164
 9919TIP3    H251249   1.935   1.333  15.138 -1.2023  0.5987 -0.7697
 9920TIP3   OH251250   0.003   3.875   5.580  0.2545  0.4380  0.2607
 9920TIP3    H151251   0.037   3.954   5.538 -1.8850  1.1952 -0.1758
 9920TIP3    H251252   0.077   3.839   5.628  1.9501  1.3241 -1.5492
 9921TIP3   OH251253   3.339   2.710  15.744 -0.6554 -0.7670 -0.2041
 9921TIP3    H151254   3.300   2.789  15.782  1.8598  0.3400  0.2713
 9921TIP3    H251255   3.361   2.656  15.819 -2.9442 -2.3123 -0.5508
 9922TIP3   OH251256   5.834   5.613   6.634 -0.0129  0.1274  0.0897
 9922TIP3    H151257   5.876   5.664   6.564 -0.1892 -1.3661 -1.1745
 9922TIP3    H251258   5.749   5.656   6.646 -1.5206 -1.5289 -3.1891
 9923TIP3   OH251259   0.281   6.706   4.700  0.6886 -0.0555  0.0032
 9923TIP3    H151260   0.232   6.665   4.629  1.1341  1.7724 -1.4479
 9923TIP3    H251261   0.373   6.690   4.678  0.8137 -0.5911  0.8896
 9924TIP3   OH251262   2.476   1.169  16.615  0.6967  0.9301  0.3225
 9924TIP3    H151263   2.559   1.163  16.662  2.1542  1.8965 -1.9656
 9924TIP3    H251264   2.473   1.089  16.562 -0.8286 -0.0509  1.7923
 9925TIP3   OH251265   5.575   3.915  11.859 -0.1322  0.7814  0.4458
 9925TIP3    H151266   5.526   3.865  11.793  0.3898 -0.3992  0.9331
 9925TIP3    H251267   5.532   4.001  11.859 -1.9665 -0.0809  0.5753
 9926TIP3   OH251268   3.940   0.288  16.337 -0.6229  0.3136  0.0863
 9926TIP3    H151269   3.942   0.273  16.431  0.3093 -1.9309 -0.2433
 9926TIP3    H251270   3.847   0.281  16.314 -0.6669 -0.9302  0.5948
 9927TIP3   OH251271   4.336   4.196  12.591 -0.0654  0.0513  0.4661
 9927TIP3    H151272   4.399   4.212  12.661  0.4110  2.1515 -0.3548
 9927TIP3    H251273   4.341   4.274  12.536 -3.0270  0.0915  0.0799
 9928TIP3   OH251274   5.631   4.029  16.858 -0.4184  0.3404 -0.3004
 9928TIP3    H151275   5.537   4.025  16.840 -0.3007 -1.0088 -0.7360
 9928TIP3    H251276   5.671   3.987  16.782  0.4081 -0.8527  0.7489
 9929TIP3   OH251277   0.911   6.544  12.301 -0.5939  0.3156 -0.0959
 9929TIP3    H151278   0.834   6.585  12.340 -1.6969 -0.0821 -1.7615
 9929TIP3    H251279   0.953   6.614  12.251  0.0389  0.4861  0.6620
 9930TIP3   OH251280   3.768   0.801  10.982  0.4201 -0.4543 -0.2140
 9930TIP3    H151281   3.843   0.836  11.031 -0.7379  0.9864  0.6000
 9930TIP3    H251282   3.760   0.859  10.906  0.2164 -0.6928 -0.3771
 9931TIP3   OH251283   3.339   3.190  16.744  0.2658 -0.1832  0.0428
 9931TIP3    H151284   3.269   3.164  16.685  1.0002  1.0821 -1.4634
 9931TIP3    H251285   3.397   3.114  16.749 -1.0644 -1.1673  1.1508
 9932TIP3   OH251286   4.131   0.035   2.267 -0.3002 -0.1636 -0.2699
 9932TIP3    H151287   4.093   0.059   2.183  0.9421 -2.5345 -1.5993
 9932TIP3    H251288   4.223   0.018   2.249  0.1396 -0.1464  1.7054
 9933TIP3   OH251289   6.291   3.012   1.870  0.0966  0.6040  0.4936
 9933TIP3    H151290   6.198   3.010   1.893  0.0320  0.9366  0.2760
 9933TIP3    H251291   6.293   2.998   1.776  0.1614  1.9724  0.2615
 9934TIP3   OH251292   2.551   2.585   0.403  0.7390 -0.2793  0.4878
 9934TIP3    H151293   2.481   2.645   0.379 -0.9234 -1.3758  2.2691
 9934TIP3    H251294   2.537   2.508   0.347  1.8609  0.3023 -0.6367
 9935TIP3   OH251295   2.263   2.992   2.522  0.0124 -0.1428  0.2980
 9935TIP3    H151296   2.328   3.038   2.575  0.6439 -0.5834 -0.0858
 9935TIP3    H251297   2.191   3.054   2.513  0.8039  0.7272 -0.1223
 9936TIP3   OH251298   6.822   5.863  14.206  0.5945  0.5709  0.5931
 9936TIP3    H151299   6.827   5.774  14.172 -0.1839  0.0292  1.8409
 9936TIP3    H251300   6.728   5.881  14.212  0.6869  0.5158  2.7155
 9937TIP3   OH251301   4.536   4.082  17.102  0.1860 -0.4674 -0.6989
 9937TIP3    H151302   4.589   4.127  17.168  0.4238 -0.3474 -0.9685
 9937TIP3    H251303   4.550   4.133  17.022  0.3132 -0.9135 -0.9644
 9938TIP3   OH251304   2.832   0.869  16.477 -0.4337  0.9648 -0.5772
 9938TIP3    H151305   2.846   0.807  16.548 -2.4935  0.1597 -0.8005
 9938TIP3    H251306   2.864   0.953  16.511 -1.3167  0.5951  1.2963
 9939TIP3   OH251307   0.179   2.316  11.356 -0.1285  0.2025 -0.5353
 9939TIP3    H151308   0.087   2.337  11.373  0.1664 -0.0198  1.4741
 9939TIP3    H251309   0.178   2.269  11.272 -1.5938  1.9270 -1.5584
 9940TIP3   OH251310   1.834   5.660  12.509 -0.4628 -0.6933 -0.6488
 9940TIP3    H151311   1.915   5.695  12.544 -1.8486  2.1294  0.0501
 9940TIP3    H251312   1.847   5.659  12.414  0.3202 -0.0926 -0.5535
 9941TIP3   OH251313   2.668   3.582  13.980 -0.9120 -0.6206 -0.6879
 9941TIP3    H151314   2.714   3.664  13.961 -2.5642  0.5982  0.3250
 9941TIP3    H251315   2.597   3.578  13.915 -0.4755 -1.5894 -1.1280
 9942TIP3   OH251316   0.436   0.148   6.232 -0.3858 -0.4034 -0.2225
 9942TIP3    H151317   0.364   0.099   6.271 -0.4886  0.2000  0.3722
 9942TIP3    H251318   0.483   0.185   6.306  0.5030 -0.7377 -0.6108
 9943TIP3   OH251319   3.156   6.249   2.717  0.2426 -0.1479 -0.3566
 9943TIP3    H151320   3.245   6.271   2.743  0.5509  0.6607 -1.9737
 9943TIP3    H251321   3.117   6.332   2.690 -0.8961 -0.5417  0.0031
 9944TIP3   OH251322   0.837   0.718   5.840 -0.2518 -0.0160  0.7046
 9944TIP3    H151323   0.851   0.698   5.748 -0.6530 -2.0469  1.0344
 9944TIP3    H251324   0.794   0.804   5.840  1.7743  1.0946 -0.8406
 9945TIP3   OH251325   1.153   2.265   4.864  0.6455 -0.3120  0.0981
 9945TIP3    H151326   1.148   2.205   4.790  1.0993  0.0764 -0.2562
 9945TIP3    H251327   1.118   2.216   4.938 -1.2221 -0.2036 -0.6728
 9946TIP3   OH251328   6.712   6.156   4.229  0.3163 -0.0818 -0.1934
 9946TIP3    H151329   6.617   6.151   4.240 -0.2393  1.1059 -3.3547
 9946TIP3    H251330   6.724   6.221   4.160  3.5508  0.8152  1.0359
 9947TIP3   OH251331   5.969   5.317   4.649  0.3430  0.1791  0.1606
 9947TIP3    H151332   5.990   5.358   4.733  1.6039  3.5554 -1.6190
 9947TIP3    H251333   5.886   5.272   4.664  0.2416  1.1325  3.0416
 9948TIP3   OH251334   1.297   4.911   6.284 -0.0235 -0.0058  0.4469
 9948TIP3    H151335   1.256   4.902   6.370 -0.6753 -0.5237  0.0887
 9948TIP3    H251336   1.380   4.955   6.302 -1.0212  1.7110  1.1182
 9949TIP3   OH251337   3.332   4.650  13.869 -0.6518  0.2454  0.0473
 9949TIP3    H151338   3.285   4.577  13.829 -1.0735  0.2178  0.5913
 9949TIP3    H251339   3.370   4.698  13.795 -0.6464 -0.3356 -0.3288
 9950TIP3   OH251340   0.823   1.446   3.646  0.1701  0.7698 -0.5240
 9950TIP3    H151341   0.850   1.455   3.555  1.3987  1.6391 -0.1057
 9950TIP3    H251342   0.823   1.536   3.680  0.3901  0.3969  0.4975
 9951TIP3   OH251343   1.300   3.246  13.581  0.4990 -0.4658  0.1806
 9951TIP3    H151344   1.222   3.245  13.636 -0.0077 -0.0826 -0.5172
 9951TIP3    H251345   1.267   3.233  13.492  0.9775  2.0975 -0.4332
 9952TIP3   OH251346   3.276   4.844   0.679  0.6392  0.5085 -0.2584
 9952TIP3    H151347   3.264   4.770   0.619  1.2716  0.7545 -0.6955
 9952TIP3    H251348   3.288   4.804   0.765 -0.0142  0.1437 -0.3246
 9953TIP3   OH251349   4.622   4.597   1.889 -0.0298  0.1393 -0.1975
 9953TIP3    H151350   4.647   4.534   1.822 -0.9305 -0.5381  0.0804
 9953TIP3    H251351   4.532   4.620   1.869 -0.0734  0.4897  0.3605
 9954TIP3   OH251352   4.934   3.310  15.790 -0.4769 -0.4011  0.3896
 9954TIP3    H151353   4.968   3.303  15.701  0.3555  1.4520  0.5098
 9954TIP3    H251354   4.927   3.219  15.820 -0.4759 -1.0516 -1.4278
 9955TIP3   OH251355   3.661   5.024  13.408 -0.2825  0.1147  0.1750
 9955TIP3    H151356   3.608   4.990  13.336 -0.0380  0.8949 -0.3883
 9955TIP3    H251357   3.625   5.111  13.426  0.8239  0.6830 -0.2650
 9956TIP3   OH251358   2.950   5.031  13.523 -0.5744  0.1843 -0.3927
 9956TIP3    H151359   2.958   4.998  13.433 -1.5707 -0.3889 -0.2826
 9956TIP3    H251360   3.012   4.977  13.573 -1.5763 -0.9930 -0.3685
 9957TIP3   OH251361   5.080   1.389   1.153 -0.4599 -0.9640 -0.6297
 9957TIP3    H151362   5.068   1.435   1.236  0.5863 -1.7453 -0.0210
 9957TIP3    H251363   5.168   1.414   1.125 -0.7393 -0.8488 -1.4233
 9958TIP3   OH251364   6.203   4.301  13.033 -0.2973 -0.1293  0.3329
 9958TIP3    H151365   6.159   4.218  13.054  2.6182 -3.1251 -3.7036
 9958TIP3    H251366   6.176   4.320  12.943  1.6194  1.5109  0.0481
 9959TIP3   OH251367   5.227   5.011  15.658 -0.5497  0.0199  0.5574
 9959TIP3    H151368   5.177   5.070  15.602 -0.6925 -0.5954  0.0241
 9959TIP3    H251369   5.202   5.036  15.747 -0.6108  0.7512  0.3424
 9960TIP3   OH251370   5.716   5.900   4.919  0.1688 -0.3049  0.2425
 9960TIP3    H151371   5.670   5.880   4.837  1.1267 -2.5885  0.1931
 9960TIP3    H251372   5.672   5.847   4.985 -0.5334  1.4489  1.2402
 9961TIP3   OH251373   3.368   2.787   0.980  0.4712 -0.2295  0.2019
 9961TIP3    H151374   3.286   2.828   0.954  0.1985  1.5440  3.2831
 9961TIP3    H251375   3.342   2.720   1.043  1.2781 -1.4281 -0.7041
 9962TIP3   OH251376   6.363   6.359  16.264  0.5401 -0.4678  0.0979
 9962TIP3    H151377   6.411   6.381  16.184  0.8971  0.5673  0.5684
 9962TIP3    H251378   6.430   6.331  16.326  0.9778  2.9629  1.4491
 9963TIP3   OH251379   4.552   5.019  12.019  0.1800 -0.2727 -0.2719
 9963TIP3    H151380   4.613   5.047  11.951 -0.0146  0.7051 -0.0617
 9963TIP3    H251381   4.605   4.969  12.081  0.7186  0.3190 -0.2422
 9964TIP3   OH251382   4.045   6.620  12.467 -0.4774 -0.3152  0.4217
 9964TIP3    H151383   3.977   6.565  12.428  0.1533 -0.1317 -1.0208
 9964TIP3    H251384   4.027   6.708  12.433 -0.3681  0.0132  1.1984
 9965TIP3   OH251385   2.036   4.196  11.735 -0.2600  0.4308  0.1376
 9965TIP3    H151386   2.006   4.274  11.689  1.9267  1.1181 -0.2711
 9965TIP3    H251387   1.978   4.126  11.705 -0.9468  1.5059 -1.1411
 9966TIP3   OH251388   0.901   3.441  12.804 -0.1012  0.7629 -0.2798
 9966TIP3    H151389   0.947   3.519  12.771  1.4922 -0.0060  0.0140
 9966TIP3    H251390   0.819   3.475  12.839  0.6565  2.3680  0.0551
 9967TIP3   OH251391   2.261   4.693  15.947 -0.5238 -0.5567 -0.2912
 9967TIP3    H151392   2.209   4.753  15.894  0.7104  0.6571 -0.1893
 9967TIP3    H251393   2.339   4.744  15.971  0.0860 -1.8791  0.6466
 9968TIP3   OH251394   5.348   4.275  16.365 -0.3843 -0.9489 -0.3332
 9968TIP3    H151395   5.429   4.291  16.317  1.4181 -1.1348  2.4268
 9968TIP3    H251396   5.289   4.346  16.338  1.1427 -0.0332 -1.4189
 9969TIP3   OH251397   4.486   2.357   0.660  0.4657  0.1587  0.7345
 9969TIP3    H151398   4.474   2.405   0.743  0.4036 -0.1113  0.8834
 9969TIP3    H251399   4.483   2.265   0.686 -1.9446 -0.0086  0.1308
 9970TIP3   OH251400   4.278   0.487   5.045 -0.3499  0.1307  0.2737
 9970TIP3    H151401   4.184   0.471   5.046 -0.2933 -0.3039 -0.4866
 9970TIP3    H251402   4.292   0.553   5.113 -1.2548  0.4767  0.1408
 9971TIP3   OH251403   0.067   0.866   2.491 -0.5922  0.2886 -0.0308
 9971TIP3    H151404   0.144   0.891   2.542  0.3479 -1.8815 -0.2519
 9971TIP3    H251405   0.007   0.940   2.499  1.2093  1.7365  0.7646
 9972TIP3   OH251406   2.346   2.981  11.086  0.5210 -0.2078 -0.2183
 9972TIP3    H151407   2.418   2.919  11.072  0.9143  0.1922  0.0064
 9972TIP3    H251408   2.270   2.939  11.047  0.6064 -1.2108  0.6654
 9973TIP3   OH251409   5.397   5.670   0.721 -0.7232  0.2916  0.2107
 9973TIP3    H151410   5.469   5.609   0.703 -0.6558  1.0518 -2.6445
 9973TIP3    H251411   5.318   5.618   0.710 -0.6283  0.2210 -0.1780
 9974TIP3   OH251412   5.954   3.383   5.573  0.5511  0.7162 -0.3423
 9974TIP3    H151413   5.997   3.303   5.542 -0.3481  0.3513 -0.6967
 9974TIP3    H251414   5.864   3.356   5.589  1.2343  0.4267  4.2211
 9975TIP3   OH251415   2.259   0.004   4.155 -0.0233 -0.0081  0.2547
 9975TIP3    H151416   2.351  -0.021   4.146  0.2133 -0.2492  2.5590
 9975TIP3    H251417   2.237  -0.020   4.246 -1.9115  1.4578  0.2454
 9976TIP3   OH251418   4.454   0.292   6.122  0.1550  0.1468 -0.2377
 9976TIP3    H151419   4.433   0.217   6.177  0.9170  0.5520  0.6367
 9976TIP3    H251420   4.375   0.346   6.123 -0.6525 -0.9475 -1.4447
 9977TIP3   OH251421   3.934   5.605   5.818 -0.8560  0.7748  0.3364
 9977TIP3    H151422   3.905   5.681   5.768 -0.6460  1.2916  1.0011
 9977TIP3    H251423   4.022   5.628   5.848 -0.5170 -0.0030 -0.0272
 9978TIP3   OH251424   4.177   0.956   5.501  0.4658 -0.5216 -0.4543
 9978TIP3    H151425   4.118   1.023   5.467  0.3986 -1.2211 -1.8173
 9978TIP3    H251426   4.177   0.969   5.596  0.1693  1.1439 -0.6476
 9979TIP3   OH251427   2.882   2.420  12.534 -0.1091 -0.1484 -0.0249
 9979TIP3    H151428   2.826   2.497  12.518 -1.0891 -0.3548  1.9794
 9979TIP3    H251429   2.968   2.445  12.500 -0.0366  2.4572  1.7460
 9980TIP3   OH251430   2.513   1.794   5.441 -0.0288  0.0004  0.2190
 9980TIP3    H151431   2.422   1.801   5.468 -0.5059 -1.2418 -0.9943
 9980TIP3    H251432   2.525   1.702   5.417  1.3759  0.2709 -0.2384
 9981TIP3   OH251433   3.660   4.536   5.283  0.3998  0.2410  0.1300
 9981TIP3    H151434   3.727   4.580   5.230  0.2815 -1.9162 -1.9811
 9981TIP3    H251435   3.591   4.514   5.221  0.1488 -2.2185  1.1841
 9982TIP3   OH251436   2.609   0.357   2.846 -0.7234 -0.0701 -0.2515
 9982TIP3    H151437   2.693   0.311   2.837 -0.2729  0.9359 -1.4595
 9982TIP3    H251438   2.543   0.289   2.835 -0.0688 -0.5665 -1.2172
 9983TIP3   OH251439   5.757   0.683   1.351  0.3055  0.0380 -0.3006
 9983TIP3    H151440   5.825   0.749   1.363  1.9311 -1.7497  0.7807
 9983TIP3    H251441   5.701   0.691   1.428  1.2375 -0.6339  0.4718
 9984TIP3   OH251442   3.526   2.612   3.460 -0.1532  0.6146  0.0624
 9984TIP3    H151443   3.491   2.681   3.403 -2.6486  0.4568  1.2430
 9984TIP3    H251444   3.486   2.629   3.545  4.2641  1.5075  2.2663
 9985TIP3   OH251445   5.117   2.262   4.355 -0.0953  0.2957 -0.5225
 9985TIP3    H151446   5.145   2.186   4.406  0.8358  0.3231 -0.9575
 9985TIP3    H251447   5.105   2.229   4.267 -0.8785  0.4159 -0.4631
 9986TIP3   OH251448   1.601   0.487   1.189  0.2280 -0.5604  0.4845
 9986TIP3    H151449   1.650   0.527   1.118 -0.9680 -0.0757 -0.1022
 9986TIP3    H251450   1.510   0.488   1.159 -0.4326  0.4103  2.3583
 9987TIP3   OH251451   4.264   3.305   3.523  0.3858  0.1101 -0.1059
 9987TIP3    H151452   4.234   3.388   3.561 -1.4317  0.4989 -2.1851
 9987TIP3    H251453   4.225   3.238   3.578 -0.4086  0.6419 -0.0127
 9988TIP3   OH251454   2.013   5.502   4.343 -0.1587  0.7996  0.2655
 9988TIP3    H151455   1.973   5.418   4.366  0.4062  0.7460  1.1150
 9988TIP3    H251456   2.083   5.479   4.281  1.8245  0.2614  2.5698
 9989TIP3   OH251457   1.106   3.216   3.002  0.5497  0.3328  0.0775
 9989TIP3    H151458   1.073   3.224   3.092 -1.5428  0.9058 -0.6773
 9989TIP3    H251459   1.079   3.128   2.975  2.2859 -0.3331  0.3781
 9990TIP3   OH251460   2.351   2.930   3.351 -0.0205  0.0658  0.4177
 9990TIP3    H151461   2.383   2.840   3.343 -1.1396 -0.2308 -1.4358
 9990TIP3    H251462   2.427   2.985   3.330  0.1648 -0.5226 -0.5212
 9991TIP3   OH251463   0.312   1.028  12.932  0.5863 -0.6016 -0.4597
 9991TIP3    H151464   0.399   1.032  12.892  1.0983  0.4619  0.6930
 9991TIP3    H251465   0.316   0.951  12.989  1.1042 -0.0436  0.2800
 9992TIP3   OH251466   2.509   6.051   4.513  0.1527  0.3518 -0.2469
 9992TIP3    H151467   2.446   6.087   4.576  0.5291 -1.0637  0.9934
 9992TIP3    H251468   2.456   6.024   4.439 -0.5610  0.2069  0.3035
 9993TIP3   OH251469   4.716   2.522   4.278 -0.0313  0.6039 -0.4521
 9993TIP3    H151470   4.765   2.512   4.196  1.8959  0.3319  0.6672
 9993TIP3    H251471   4.674   2.438   4.292  0.8174  0.1708 -0.4527
 9994TIP3   OH251472   0.710   2.488  11.766  0.1986  0.5058  0.1603
 9994TIP3    H151473   0.778   2.533  11.717  0.7330 -1.0730 -0.6134
 9994TIP3    H251474   0.637   2.480  11.704  0.4466 -0.4642 -0.0248
 9995TIP3   OH251475   6.578   4.237   1.555 -0.5500 -0.2741  0.0166
 9995TIP3    H151476   6.590   4.296   1.629 -1.3727 -0.1201  0.0368
 9995TIP3    H251477   6.483   4.227   1.548 -0.4830 -0.2282 -1.0586
 9996TIP3   OH251478   2.154   0.428  12.692  0.4975  0.4092 -0.0211
 9996TIP3    H151479   2.215   0.498  12.714  0.6662  0.4605 -0.6195
 9996TIP3    H251480   2.208   0.349  12.686  0.3652  0.2923  0.2986
 9997TIP3   OH251481   1.668   1.703   6.340 -0.1724  0.3822 -0.1106
 9997TIP3    H151482   1.757   1.668   6.342 -0.9602 -1.7348  0.2788
 9997TIP3    H251483   1.675   1.782   6.286  1.6476 -0.6211 -1.4529
 9998TIP3   OH251484   6.802   1.704  13.132 -0.3589  0.6531  0.1273
 9998TIP3    H151485   6.708   1.724  13.140 -0.2328  1.0098  0.8584
 9998TIP3    H251486   6.821   1.652  13.210 -0.1401 -0.2265 -0.4940
 9999TIP3   OH251487   5.511   5.470   0.035  0.0453 -0.0596 -0.7087
 9999TIP3    H151488   5.498   5.407   0.105 -0.9985  0.4730 -0.4046
 9999TIP3    H251489   5.426   5.511   0.023  0.9427  2.0839 -0.1430
10000TIP3   OH251490   3.216   1.627  16.564 -0.4413  0.3883 -0.0236
10000TIP3    H151491   3.268   1.548  16.548  0.0219  0.9431 -1.4078
10000TIP3    H251492   3.181   1.616  16.653 -0.9310 -1.6533 -0.4395
10001TIP3   OH251493   1.646   0.873  13.458  0.1175  0.4943 -0.4665
10001TIP3    H151494   1.618   0.837  13.374 -2.6365 -0.4044  0.7121
10001TIP3    H251495   1.666   0.796  13.511  2.1214  1.0606 -0.3216
10002TIP3   OH251496   4.071   0.807   1.295  0.2809  0.1001 -0.0623
10002TIP3    H151497   4.044   0.719   1.321  0.2970 -0.0464 -0.5233
10002TIP3    H251498   3.993   0.861   1.308 -0.1227 -0.2379 -0.9842
10003TIP3   OH251499   5.161   5.593  12.705  0.2347 -0.2252 -0.1161
10003TIP3    H151500   5.230   5.655  12.730  1.1969 -0.9869 -0.8018
10003TIP3    H251501   5.199   5.507  12.722 -0.7249 -0.6489 -0.0800
10004TIP3   OH251502   5.820   5.232   0.145 -0.4451 -0.1371  0.2189
10004TIP3    H151503   5.853   5.315   0.180 -2.0137  0.8826 -0.6170
10004TIP3    H251504   5.876   5.215   0.069  2.1900 -1.7477  2.3490
10005TIP3   OH251505   1.526   4.054  11.562  0.2496 -0.2728  0.3781
10005TIP3    H151506   1.615   4.052  11.598  0.0744 -0.4917  0.8049
10005TIP3    H251507   1.514   3.967  11.524 -0.3359 -0.7765  1.6869
10006TIP3   OH251508   0.098   0.456   5.146 -0.9312 -0.2187  0.2410
10006TIP3    H151509   0.177   0.403   5.146 -1.2366 -0.7063  1.2180
10006TIP3    H251510   0.129   0.546   5.134 -0.1922 -0.3746  0.8892
10007TIP3   OH251511   6.118   4.061   4.857 -0.0670  0.8981 -0.2329
10007TIP3    H151512   6.088   4.095   4.772 -0.8269  4.2094  1.2175
10007TIP3    H251513   6.148   3.972   4.837  2.9499  2.5578 -4.6571
10008TIP3   OH251514   6.123   3.550   3.030 -0.6442  0.2937 -0.0913
10008TIP3    H151515   6.210   3.526   3.064  0.2561  3.1949 -0.0571
10008TIP3    H251516   6.120   3.511   2.942  0.1289 -0.9242  0.3913
10009TIP3   OH251517   0.289   5.938  11.009 -0.2537  0.1657  0.2139
10009TIP3    H151518   0.326   5.990  10.937 -1.4324 -1.3741 -1.6016
10009TIP3    H251519   0.354   5.945  11.079  2.6012 -0.8656 -2.1282
10010TIP3   OH251520   4.149   0.635  13.798  0.2931  0.2549 -0.0490
10010TIP3    H151521   4.238   0.653  13.828 -0.1811 -1.1026  2.4851
10010TIP3    H251522   4.148   0.540  13.781 -1.1678 -0.1759  2.0973
10011TIP3   OH251523   1.327   4.662  13.534 -0.2649 -0.2239  0.6958
10011TIP3    H151524   1.286   4.687  13.617  0.7193  0.6110  0.9467
10011TIP3    H251525   1.398   4.602  13.558 -0.9692 -1.2491  0.3064
10012TIP3   OH251526   3.671   1.872  11.181  0.1262  0.5928 -0.5321
10012TIP3    H151527   3.647   1.783  11.154  3.5335 -1.0101  1.0705
10012TIP3    H251528   3.614   1.891  11.255  0.0293 -0.6837 -0.2591
10013TIP3   OH251529   0.473   3.960  13.732 -0.0965 -0.5500 -0.0860
10013TIP3    H151530   0.468   4.056  13.740  0.0118 -0.6888  2.4073
10013TIP3    H251531   0.562   3.943  13.703 -0.3731  0.1273 -1.3888
10014TIP3   OH251532   1.322   1.190   1.914  0.1359  0.1281  0.0904
10014TIP3    H151533   1.383   1.218   1.983  1.2500  0.8431 -1.1379
10014TIP3    H251534   1.334   1.254   1.844 -0.7821 -0.7284 -0.8805
10015TIP3   OH251535   3.172   3.870  14.392 -0.0115  0.1598  1.2637
10015TIP3    H151536   3.184   3.958  14.428 -2.2354  0.3018  1.7972
10015TIP3    H251537   3.119   3.825  14.458 -1.6090 -0.5467 -0.4317
10016TIP3   OH251538   2.244   5.411   4.801 -0.0373 -0.3599 -0.4052
10016TIP3    H151539   2.235   5.476   4.871 -0.6826 -1.1189  0.2455
10016TIP3    H251540   2.170   5.427   4.743  0.2088 -0.0558 -0.6345
10017TIP3   OH251541   2.021   2.182  15.009  0.3361  0.0175 -0.1436
10017TIP3    H151542   1.961   2.174  14.935 -1.4473 -0.5842  1.2791
10017TIP3    H251543   2.107   2.195  14.970 -0.6080  0.1599 -2.2903
10018TIP3   OH251544   5.666   6.218   3.898 -0.1269 -0.4801  0.3140
10018TIP3    H151545   5.617   6.294   3.930  0.1532 -0.5466  0.9229
10018TIP3    H251546   5.733   6.256   3.841  0.2968 -0.2228  0.9722
10019TIP3   OH251547   5.889   5.452  16.501 -0.1653  0.2075 -0.0294
10019TIP3    H151548   5.886   5.357  16.488 -1.8352  0.1367  0.6120
10019TIP3    H251549   5.905   5.462  16.595  0.3740  0.5724 -0.1594
10020TIP3   OH251550   4.494   3.870   0.844 -0.0231 -0.2702 -0.2846
10020TIP3    H151551   4.420   3.810   0.859  0.8055 -1.1858  0.2454
10020TIP3    H251552   4.462   3.931   0.778 -1.6575  0.0554  0.7404
10021TIP3   OH251553   2.120   5.888   3.584  0.0564 -0.1095 -0.2915
10021TIP3    H151554   2.098   5.830   3.511  0.8688 -1.4481  0.4876
10021TIP3    H251555   2.173   5.835   3.642  0.4685  1.3053  0.6891
10022TIP3   OH251556   1.174   0.846   6.149 -0.1553 -0.5491 -0.3787
10022TIP3    H151557   1.102   0.857   6.087  0.6150  0.7769 -1.0938
10022TIP3    H251558   1.147   0.896   6.226  0.0264  0.0243 -0.6812
10023TIP3   OH251559   5.838   0.670  15.097  0.1489 -0.1800 -0.4762
10023TIP3    H151560   5.764   0.617  15.127  0.2831 -0.1913 -0.1631
10023TIP3    H251561   5.909   0.647  15.156  0.2166  0.3342 -0.3548
10024TIP3   OH251562   5.512   2.386  15.574  0.1915  0.0538  0.5012
10024TIP3    H151563   5.466   2.387  15.658  0.1691  0.2870  0.4868
10024TIP3    H251564   5.521   2.293  15.553 -2.1246 -0.0114 -0.5205
10025TIP3   OH251565   2.254   0.173  14.088 -0.7975 -0.3332  0.1111
10025TIP3    H151566   2.178   0.156  14.033  0.1578  0.3366 -1.4966
10025TIP3    H251567   2.322   0.114  14.055  0.0714  0.7411 -0.0915
10026TIP3   OH251568   1.623   3.909   6.031  0.5676  0.4842 -0.5284
10026TIP3    H151569   1.568   3.869   5.964 -1.8158  0.5776  1.2511
10026TIP3    H251570   1.710   3.912   5.992 -0.1828 -1.8175 -2.6033
10027TIP3   OH251571   4.220   0.966  13.773 -0.0133 -0.4672 -0.4549
10027TIP3    H151572   4.292   0.905  13.761 -0.2285 -0.3721 -2.5308
10027TIP3    H251573   4.253   1.049  13.741  0.5013  0.8013  2.9190
10028TIP3   OH251574   6.220   4.584  13.323 -0.2511  0.3718  0.4862
10028TIP3    H151575   6.265   4.566  13.406 -0.4336 -0.5072  0.4097
10028TIP3    H251576   6.271   4.653  13.282  2.4604 -2.1258 -0.6906
10029TIP3   OH251577   5.831   5.544   4.339 -0.1952  0.1546  0.4874
10029TIP3    H151578   5.763   5.611   4.342 -0.9245 -0.5768  0.4121
10029TIP3    H251579   5.897   5.580   4.280  0.0057  1.3417  1.3961
10030TIP3   OH251580   4.824   1.988   4.790 -0.5421 -0.2875 -0.3656
10030TIP3    H151581   4.850   1.940   4.869 -0.1054 -0.1625 -0.4282
10030TIP3    H251582   4.729   1.983   4.789 -0.4914 -1.8868 -0.8275
10031TIP3   OH251583   5.711   2.008  13.567 -0.1300 -0.5744 -0.2069
10031TIP3    H151584   5.684   1.987  13.477 -0.1110  2.5850 -1.0681
10031TIP3    H251585   5.807   2.011  13.562 -0.1411 -0.1588 -0.1324
10032TIP3   OH251586   1.099   6.369   4.456  0.6275  0.1379  0.4942
10032TIP3    H151587   1.131   6.389   4.368 -1.4354 -2.0694 -0.8638
10032TIP3    H251588   1.004   6.382   4.450  0.4264 -0.2463  2.3587
10033TIP3   OH251589   1.936   5.005  13.489 -0.3451  0.5172  0.4077
10033TIP3    H151590   2.031   5.002  13.482 -0.2943 -3.2256  0.9685
10033TIP3    H251591   1.919   5.075  13.552  2.1078  0.5255  1.1655
10034TIP3   OH251592   2.151   5.502  12.986  0.0537  0.4349  0.1220
10034TIP3    H151593   2.121   5.480  13.074  0.3432  1.0373  0.3812
10034TIP3    H251594   2.210   5.577  12.999  1.5797 -0.6289 -0.3725
10035TIP3   OH251595   6.746   2.934  15.728  0.3080 -0.1363  0.1610
10035TIP3    H151596   6.776   2.887  15.806 -0.1422  0.2339  0.5605
10035TIP3    H251597   6.796   3.016  15.729  1.3363 -0.7162 -0.7141
10036TIP3   OH251598   5.528   4.590  13.298 -0.8069  0.2061 -0.2173
10036TIP3    H151599   5.595   4.601  13.366  0.4645 -0.3019 -1.3418
10036TIP3    H251600   5.570   4.536  13.231 -2.0234  0.6906 -1.4260
10037TIP3   OH251601   0.314   1.282  16.073 -0.1778  0.7072 -0.5711
10037TIP3    H151602   0.329   1.287  16.168 -0.3395 -0.4568 -0.4658
10037TIP3    H251603   0.316   1.188  16.054 -3.6782  0.6110 -1.1062
10038TIP3   OH251604   6.345   1.112   5.735  0.1286  0.0479  0.0431
10038TIP3    H151605   6.387   1.027   5.743  1.1113  0.3681 -1.2668
10038TIP3    H251606   6.417   1.173   5.716 -0.4841  1.2712  1.4078
10039TIP3   OH251607   6.395   4.768   0.067 -0.2771 -0.5865  0.0727
10039TIP3    H151608   6.369   4.680   0.094  1.5003 -1.5710 -1.2139
10039TIP3    H251609   6.458   4.796   0.132  0.2283 -0.8737 -0.2868
10040TIP3   OH251610   5.654   4.829   2.264 -0.1178 -0.1090  0.0073
10040TIP3    H151611   5.710   4.847   2.339 -0.6591  1.5866  0.0450
10040TIP3    H251612   5.714   4.802   2.195  0.3764 -1.8389  1.0388
10041TIP3   OH251613   1.940   2.707  16.539 -0.5494 -0.3771  0.2805
10041TIP3    H151614   1.941   2.705  16.635  0.1767 -0.4556  0.2713
10041TIP3    H251615   1.920   2.617  16.513 -1.7784 -0.1539  0.3575
10042TIP3   OH251616   0.708   1.314  12.909  0.7420  0.0215  0.1851
10042TIP3    H151617   0.725   1.382  12.844 -0.6144 -0.8447 -1.1379
10042TIP3    H251618   0.731   1.232  12.865  0.9425 -0.5059  1.2312
10043TIP3   OH251619   4.380   0.040   6.243  0.2438 -0.4384 -0.0482
10043TIP3    H151620   4.403  -0.050   6.221  0.0337 -0.5535  0.2078
10043TIP3    H251621   4.319   0.033   6.317  1.1646 -0.0392  0.7719
10044TIP3   OH251622   1.220   0.547  16.041 -0.3135  0.4009 -0.4352
10044TIP3    H151623   1.220   0.507  16.128 -0.1237 -1.2282 -1.1382
10044TIP3    H251624   1.216   0.641  16.057 -1.8079  0.0786  1.2940
10045TIP3   OH251625   6.523   2.352  15.928 -0.0695 -0.0078 -0.1323
10045TIP3    H151626   6.611   2.353  15.965  0.5468 -1.0761 -1.4772
10045TIP3    H251627   6.481   2.275  15.966  0.1467 -0.4169 -0.7100
10046TIP3   OH251628   2.323   3.719  14.915  0.0118 -0.1975 -0.4617
10046TIP3    H151629   2.302   3.811  14.925  0.5229 -0.2019  0.8322
10046TIP3    H251630   2.293   3.696  14.827  1.3120  1.5742 -1.4213
10047TIP3   OH251631   4.771   0.174   0.177  0.8296 -0.0883 -0.1923
10047TIP3    H151632   4.776   0.229   0.098  2.6656  0.7449  0.4637
10047TIP3    H251633   4.768   0.084   0.143 -0.4091  0.3131 -1.2336
10048TIP3   OH251634   0.202   0.288  13.189  0.3799 -0.3426 -0.0495
10048TIP3    H151635   0.282   0.244  13.162  0.4368  0.0664 -0.5552
10048TIP3    H251636   0.227   0.334  13.270  0.0573 -2.0164  1.0514
10049TIP3   OH251637   5.133   2.209  10.945  0.0542  0.0056 -0.7790
10049TIP3    H151638   5.122   2.181  11.035  0.7924  0.9154 -0.3933
10049TIP3    H251639   5.177   2.294  10.951  1.1816 -0.4591 -2.0277
10050TIP3   OH251640   6.393   0.489   2.745 -0.8654  0.7534 -0.4888
10050TIP3    H151641   6.378   0.549   2.673 -1.7687 -0.9960 -1.8384
10050TIP3    H251642   6.482   0.509   2.775 -0.2986  1.2606 -2.3799
10051TIP3   OH251643   3.653   2.370   2.033 -0.1705  0.6387 -0.2942
10051TIP3    H151644   3.667   2.374   1.939  0.3864 -0.2786 -0.2615
10051TIP3    H251645   3.741   2.377   2.071 -0.2560 -0.2530  0.1015
10052TIP3   OH251646   4.198   3.505  11.493 -0.0354  0.5157  0.0961
10052TIP3    H151647   4.254   3.582  11.505  0.0296  0.3950  0.5606
10052TIP3    H251648   4.121   3.539  11.447  1.0174  0.4368 -1.8358
10053TIP3   OH251649   3.208   6.050   1.376  0.3252 -0.3795  0.0603
10053TIP3    H151650   3.287   6.078   1.330  0.9258 -1.7179  0.2146
10053TIP3    H251651   3.237   6.036   1.466 -0.5422  0.9496  0.5792
10054TIP3   OH251652   3.431   4.382   4.810 -0.2898  0.4435 -0.2978
10054TIP3    H151653   3.398   4.295   4.787 -1.2517 -0.0621  2.6292
10054TIP3    H251654   3.495   4.402   4.741 -0.1803 -2.4806 -1.1775
10055TIP3   OH251655   3.033   3.616  12.056  0.0097  0.0855 -0.1394
10055TIP3    H151656   3.074   3.531  12.039 -0.4424 -0.1803  0.0764
10055TIP3    H251657   2.984   3.603  12.137 -0.2215  0.4967 -0.2110
10056TIP3   OH251658   1.535   3.004  15.762 -0.0141 -0.1941  0.7034
10056TIP3    H151659   1.590   3.056  15.820  0.3367 -0.7026  0.8387
10056TIP3    H251660   1.460   2.980  15.816  0.1893 -0.4525  0.8789
10057TIP3   OH251661   5.107   2.777  14.755  0.0502 -0.0478  0.2234
10057TIP3    H151662   5.035   2.714  14.754 -0.5856  0.6080  1.8541
10057TIP3    H251663   5.174   2.737  14.701 -0.5727 -1.8420  0.7185
10058TIP3   OH251664   2.983   3.444   0.787  0.2744 -0.3162 -0.0282
10058TIP3    H151665   2.975   3.370   0.847 -0.6434 -0.8715 -0.8044
10058TIP3    H251666   2.896   3.452   0.747  0.5799  0.6883 -0.5308
10059TIP3   OH251667   2.534   2.683  15.353  0.2557 -0.0313 -0.5014
10059TIP3    H151668   2.572   2.655  15.436 -0.0341  1.0956  0.0350
10059TIP3    H251669   2.607   2.682  15.291  0.4217 -1.0962 -0.3031
10060TIP3   OH251670   0.287   2.019   5.176 -0.2141  0.0526 -0.3574
10060TIP3    H151671   0.379   2.046   5.170  0.8660 -2.9774  0.3796
10060TIP3    H251672   0.250   2.043   5.091  1.3050  1.2183 -0.7371
10061TIP3   OH251673   6.285   3.762   2.309 -0.3404  0.8130  0.2933
10061TIP3    H151674   6.226   3.747   2.383  0.3395  0.2525  0.7399
10061TIP3    H251675   6.357   3.813   2.346  0.8554 -0.9202  0.4590
10062TIP3   OH251676   3.059   5.126   4.402  0.0322 -0.4517  0.7542
10062TIP3    H151677   2.964   5.128   4.407 -0.0934 -0.7601 -0.9853
10062TIP3    H251678   3.080   5.037   4.375  0.6325  0.2019 -1.1329
10063TIP3   OH251679   4.780   5.396  15.101  0.4972 -0.2081  0.4882
10063TIP3    H151680   4.739   5.467  15.052 -1.5267 -1.0169  0.9254
10063TIP3    H251681   4.722   5.322  15.090 -0.1337 -0.4406  4.1206
10064TIP3   OH251682   0.103   3.608   4.635 -0.0834 -0.6676 -0.6057
10064TIP3    H151683   0.057   3.525   4.622 -0.2348 -0.4826 -1.2878
10064TIP3    H251684   0.098   3.624   4.729 -1.5546 -0.5716 -0.6804
10065TIP3   OH251685   5.607   0.339  15.533 -0.3900 -0.3433 -0.3772
10065TIP3    H151686   5.687   0.308  15.576  0.8734 -0.5490 -2.7120
10065TIP3    H251687   5.546   0.265  15.540  0.2764 -0.8790 -0.1486
10066TIP3   OH251688   4.506   6.728   3.005  0.5422  0.2789  0.2845
10066TIP3    H151689   4.461   6.646   2.987 -0.3604  0.6323  0.8587
10066TIP3    H251690   4.466   6.761   3.086 -0.2153  2.0650 -0.7513
10067TIP3   OH251691   0.015   4.787   5.108 -0.0544  0.9423  0.2406
10067TIP3    H151692   0.074   4.862   5.115  0.4331  1.3392 -4.6546
10067TIP3    H251693  -0.073   4.824   5.109 -0.0342  1.0217  1.6354
10068TIP3   OH251694   3.205   0.445  12.880  0.0578  0.0071  0.2163
10068TIP3    H151695   3.252   0.522  12.849  1.4268 -0.3477  1.3280
10068TIP3    H251696   3.199   0.388  12.802  0.1992  0.6625 -0.2827
10069TIP3   OH251697   3.564   3.371   3.902 -0.1387 -0.1110 -0.2452
10069TIP3    H151698   3.478   3.407   3.920  0.0004 -0.1764  0.6116
10069TIP3    H251699   3.595   3.419   3.825 -1.7005 -1.4091 -1.7534
10070TIP3   OH251700   0.887   3.700  11.886 -0.3984 -0.2336 -0.1558
10070TIP3    H151701   0.803   3.695  11.839 -0.4145 -0.0505 -0.1440
10070TIP3    H251702   0.922   3.786  11.865  0.3792 -0.7745 -1.1637
10071TIP3   OH251703   5.603   5.448   5.301  0.5112  0.0332 -0.0225
10071TIP3    H151704   5.679   5.421   5.352  0.8371 -1.4859 -1.2619
10071TIP3    H251705   5.627   5.431   5.210 -0.7973  0.8350 -0.5533
10072TIP3   OH251706   0.097   1.248  15.305 -0.1532 -0.2752  0.2933
10072TIP3    H151707   0.035   1.281  15.240 -0.6208 -1.6951 -0.0110
10072TIP3    H251708   0.050   1.255  15.389 -1.3886 -2.7627 -0.1095
10073TIP3   OH251709   3.589   6.390  15.356 -0.1665  0.0241 -0.3044
10073TIP3    H151710   3.659   6.452  15.337  1.5499 -0.3922  3.6176
10073TIP3    H251711   3.509   6.443  15.355  0.9284  1.7714  0.4122
10074TIP3   OH251712   3.515   4.863  11.073 -0.1268  0.6118 -0.3444
10074TIP3    H151713   3.541   4.896  11.159  1.3403  2.9416 -1.5785
10074TIP3    H251714   3.578   4.902  11.013 -1.3313 -0.6661 -2.5399
10075TIP3   OH251715   5.878   5.360  11.318 -0.5192  0.9634  0.4752
10075TIP3    H151716   5.919   5.371  11.232 -0.7328 -0.9456  0.0785
10075TIP3    H251717   5.951   5.351  11.379 -0.3125 -0.3852  0.0641
10076TIP3   OH251718   6.094   3.099   5.482 -0.1703 -0.7224  0.3227
10076TIP3    H151719   6.151   3.072   5.554 -0.1749 -0.4277  0.4374
10076TIP3    H251720   6.153   3.132   5.415 -0.2067 -0.4126  0.4435
10077TIP3   OH251721   0.219   4.994  14.015  0.0761  0.5796 -0.2908
10077TIP3    H151722   0.296   5.039  14.051  0.4790 -0.1041 -0.2877
10077TIP3    H251723   0.244   4.902  14.012 -0.4565  0.4532 -1.0392
10078TIP3   OH251724   1.772   0.931   5.083  0.3144 -0.2500  0.6686
10078TIP3    H151725   1.697   0.877   5.058  0.2030 -1.1039  2.6792
10078TIP3    H251726   1.798   0.975   5.002 -4.0185  2.2405  0.3287
10079TIP3   OH251727   3.736   1.500   0.870  0.0836 -0.3050 -0.5843
10079TIP3    H151728   3.790   1.571   0.835 -0.3984  0.8051  0.8325
10079TIP3    H251729   3.796   1.447   0.922  0.0164  0.3788  0.2065
10080TIP3   OH251730   5.495   0.294   0.611  0.0415 -0.1477  0.1473
10080TIP3    H151731   5.559   0.243   0.661 -0.5084  0.5059  1.5898
10080TIP3    H251732   5.430   0.321   0.676 -0.9857  0.3238 -1.0361
10081TIP3   OH251733   5.778   5.224  14.168  0.2601 -0.7052 -0.2723
10081TIP3    H151734   5.778   5.160  14.239  0.1760 -0.6550 -0.2265
10081TIP3    H251735   5.863   5.269  14.176  0.0440 -0.3596  0.1040
10082TIP3   OH251736   0.308   5.502   6.254 -0.5793 -0.5862  0.5361
10082TIP3    H151737   0.293   5.573   6.318  2.3787 -0.8552  1.7277
10082TIP3    H251738   0.325   5.425   6.308 -0.5172 -1.4330 -0.6613
10083TIP3   OH251739   3.662   0.293  12.430  0.2649 -0.2753  0.9340
10083TIP3    H151740   3.700   0.296  12.518  0.6463  0.0424  0.7596
10083TIP3    H251741   3.593   0.227  12.436 -0.5464  0.6046  1.8073
10084TIP3   OH251742   3.269   5.324   0.699 -0.2173  0.4875  0.0948
10084TIP3    H151743   3.270   5.412   0.662 -0.7993  1.6281  2.5851
10084TIP3    H251744   3.216   5.332   0.778  1.7366 -1.5214  1.7433
10085TIP3   OH251745   1.769   0.618   0.702 -0.2909  0.3793 -0.4702
10085TIP3    H151746   1.738   0.555   0.637  0.6521 -0.7565  0.1347
10085TIP3    H251747   1.781   0.699   0.654 -0.0536 -0.3162 -1.6090
10086TIP3   OH251748   4.243   1.329  14.153  0.2573  0.0743  0.4765
10086TIP3    H151749   4.155   1.320  14.191  0.1369  1.6473  0.6083
10086TIP3    H251750   4.254   1.423  14.139  1.2647 -0.2425 -1.1227
10087TIP3   OH251751   6.616   3.843  11.365  0.5864  0.0325  0.0120
10087TIP3    H151752   6.532   3.823  11.408  0.9979  0.2162  0.9383
10087TIP3    H251753   6.595   3.845  11.272 -0.4285  0.0036  0.2202
10088TIP3   OH251754   0.132   4.463   0.962 -0.3552 -0.1708  0.0303
10088TIP3    H151755   0.169   4.468   0.874 -0.0584  0.8547  0.2001
10088TIP3    H251756   0.099   4.551   0.980 -0.4137 -0.3619  0.9431
10089TIP3   OH251757   6.731   6.062   1.761 -0.4335  0.0392 -0.0484
10089TIP3    H151758   6.648   6.068   1.713 -0.3775 -1.3080 -0.3642
10089TIP3    H251759   6.793   6.109   1.706 -0.7066 -0.1235 -0.5093
10090TIP3   OH251760   1.316   1.377   3.728  0.0010 -0.2189 -0.3403
10090TIP3    H151761   1.340   1.336   3.645 -0.6164  0.4525 -0.8661
10090TIP3    H251762   1.220   1.386   3.723 -0.0213 -0.0219  0.3735
10091TIP3   OH251763   0.236   6.655  12.327  0.2192  0.5708  0.1506
10091TIP3    H151764   0.219   6.588  12.260  3.3284 -0.9742  0.7419
10091TIP3    H251765   0.170   6.638  12.395 -0.4273 -0.4504 -0.6879
10092TIP3   OH251766   0.107   1.606  12.248 -0.0285 -0.1483  0.6862
10092TIP3    H151767   0.175   1.639  12.189 -0.5165 -2.2583 -1.1637
10092TIP3    H251768   0.029   1.657  12.226  0.5874  1.4804  2.0209
10093TIP3   OH251769   0.013   1.002  13.217  0.0562 -0.7406 -0.4646
10093TIP3    H151770   0.096   1.046  13.198 -0.0883 -0.6679 -0.9468
10093TIP3    H251771   0.039   0.916  13.249  0.3323 -1.8507 -3.3496
10094TIP3   OH251772   5.107   4.725  16.291 -0.3993 -0.3857  0.1994
10094TIP3    H151773   5.067   4.638  16.284  0.7742 -0.9442  0.1613
10094TIP3    H251774   5.082   4.769  16.210  0.9247 -1.5550 -0.9037
10095TIP3   OH251775   5.885   3.661   2.048  0.4583 -0.2534  0.1846
10095TIP3    H151776   5.805   3.693   2.088  0.9275  0.5547  0.5120
10095TIP3    H251777   5.888   3.568   2.070  0.5745  0.1149  1.8257
10096TIP3   OH251778   2.301   5.447   3.884  0.0970  0.5179  0.2595
10096TIP3    H151779   2.384   5.412   3.853  0.9308  0.4695  2.4397
10096TIP3    H251780   2.310   5.542   3.875 -0.0624  0.4672 -0.5311
10097TIP3   OH251781   3.380   1.443   5.894  0.3406 -0.0092  0.2825
10097TIP3    H151782   3.311   1.474   5.952  0.1715 -1.1611  0.7370
10097TIP3    H251783   3.411   1.362   5.935  1.6942  0.2786 -0.1192
10098TIP3   OH251784   2.404   4.525  15.759 -0.2902  0.1383 -0.1675
10098TIP3    H151785   2.493   4.544  15.791  0.3105 -0.3792 -1.4879
10098TIP3    H251786   2.347   4.560  15.828  0.9355 -0.9817  1.5152
10099TIP3   OH251787   4.353   0.323   5.719 -0.6795  0.1906 -0.0709
10099TIP3    H151788   4.440   0.361   5.708 -0.7617  0.4979  0.3098
10099TIP3    H251789   4.357   0.239   5.673  0.5763 -0.9114  1.9261
10100TIP3   OH251790   5.767   6.087  15.625 -0.1975  0.0112 -0.2173
10100TIP3    H151791   5.701   6.136  15.672 -0.4115 -1.0749  0.6541
10100TIP3    H251792   5.834   6.151  15.602 -0.6761  0.7746  0.4985
10101TIP3   OH251793   1.164   6.457   1.799  0.0083 -0.1865  0.8775
10101TIP3    H151794   1.197   6.402   1.869 -2.5063  0.0052  2.3239
10101TIP3    H251795   1.106   6.400   1.748 -0.6845  0.4675  0.9116
10102TIP3   OH251796   2.722   6.626   1.420  0.0657  0.7588  0.1411
10102TIP3    H151797   2.749   6.600   1.508  0.4664  0.8121  0.0385
10102TIP3    H251798   2.805   6.639   1.373 -0.1261  1.8742  0.0851
10103TIP3   OH251799   5.967   1.526  15.389  0.2493  0.0597 -0.3426
10103TIP3    H151800   5.940   1.551  15.301  1.4579  0.2814 -0.6726
10103TIP3    H251801   6.056   1.561  15.397  0.0455  0.2933  1.0727
10104TIP3   OH251802   0.827   4.720  12.407  0.4402 -0.3686 -0.4397
10104TIP3    H151803   0.783   4.708  12.491  0.6566 -1.5916 -0.4784
10104TIP3    H251804   0.884   4.796  12.420  0.8111 -0.8105  0.6726
10105TIP3   OH251805   0.311   1.488  11.794  0.3769  0.2295 -0.2088
10105TIP3    H151806   0.299   1.583  11.802 -1.6225 -0.0774  1.1086
10105TIP3    H251807   0.405   1.475  11.808  0.5768  1.9414  0.3335
10106TIP3   OH251808   5.021   3.948   0.239 -0.0418 -0.1858 -0.5673
10106TIP3    H151809   4.939   3.958   0.288  0.8475  0.7397  0.8188
10106TIP3    H251810   5.014   4.009   0.166 -1.0707 -0.9884 -1.1462
10107TIP3   OH251811   6.568   1.969   2.241 -0.5463  0.0197 -0.1364
10107TIP3    H151812   6.644   1.948   2.186 -0.3151 -0.9044  0.5059
10107TIP3    H251813   6.592   2.051   2.284 -0.4366  0.3813 -0.8720
10108TIP3   OH251814   5.570   3.690  16.329 -0.3900  0.0769 -0.0141
10108TIP3    H151815   5.487   3.640  16.327 -1.1450  1.1828  1.4438
10108TIP3    H251816   5.620   3.649  16.399  0.5536 -0.9033 -1.2138
10109TIP3   OH251817   2.074   3.784   6.081  0.1650 -0.5825 -0.2377
10109TIP3    H151818   2.059   3.761   6.173 -0.8674  0.0050 -0.2363
10109TIP3    H251819   2.167   3.806   6.077  0.3574 -1.1797  0.5311
10110TIP3   OH251820   4.269   4.900   1.081 -0.0987 -0.4502 -0.3363
10110TIP3    H151821   4.212   4.831   1.048  1.1292 -1.5069 -0.2858
10110TIP3    H251822   4.235   4.980   1.041 -1.2864 -1.1171 -0.7120
10111TIP3   OH251823   4.708   2.040   0.800 -0.7677 -0.1099 -0.4325
10111TIP3    H151824   4.766   2.007   0.869  0.8672  1.2073 -1.1223
10111TIP3    H251825   4.731   2.132   0.791 -2.2029  0.1741 -1.5368
10112TIP3   OH251826   4.476   5.656  14.554  0.2128 -0.9874  0.9672
10112TIP3    H151827   4.564   5.621  14.540  1.5429  1.9945  1.1335
10112TIP3    H251828   4.436   5.655  14.468  0.5230 -1.9829  0.8126
10113TIP3   OH251829   1.622   5.779   3.518 -0.2368 -0.3630  0.6136
10113TIP3    H151830   1.672   5.751   3.442 -2.2807 -0.8573 -0.6270
10113TIP3    H251831   1.626   5.875   3.516  0.2868 -0.3913  0.2855
10114TIP3   OH251832   6.151   0.966   0.157 -0.9334 -0.1011 -0.0048
10114TIP3    H151833   6.186   0.877   0.147  1.2727  0.7541 -0.4259
10114TIP3    H251834   6.215   1.011   0.212 -0.8982  1.7844 -1.5020
10115TIP3   OH251835   4.668   0.187   6.006  0.0982 -0.2586 -0.2384
10115TIP3    H151836   4.597   0.248   6.025  0.2225  0.2894 -1.4320
10115TIP3    H251837   4.625   0.102   5.997 -0.2372 -0.1410  0.1945
10116TIP3   OH251838   0.453   3.690  14.727 -0.2962 -0.4043  0.3381
10116TIP3    H151839   0.461   3.623  14.795 -1.2402 -0.7555  0.1132
10116TIP3    H251840   0.492   3.650  14.649 -0.1949 -0.4135  0.3931
10117TIP3   OH251841   2.730   4.269   0.474  0.0341  0.1416 -0.3744
10117TIP3    H151842   2.825   4.265   0.482 -0.0476 -0.0564  0.5959
10117TIP3    H251843   2.714   4.273   0.380  0.9217 -2.1317 -0.6863
10118TIP3   OH251844   0.000   1.838  16.916  0.0281 -0.1522 -0.1732
10118TIP3    H151845   0.033   1.815  17.003 -0.1244  0.5943  0.0913
10118TIP3    H251846   0.076   1.828  16.858  1.6253  3.9723  0.7920
10119TIP3   OH251847   3.395   4.754  13.478  0.6373  0.1338 -0.6702
10119TIP3    H151848   3.321   4.723  13.530  1.4678 -0.3677  0.2333
10119TIP3    H251849   3.361   4.831  13.432 -0.7210 -0.6502 -1.0384
10120TIP3   OH251850   4.108   6.710   5.066 -0.3355  0.1786 -0.3825
10120TIP3    H151851   4.188   6.744   5.107  0.3816 -0.4047 -1.2879
10120TIP3    H251852   4.044   6.711   5.137 -0.0816  2.4276 -0.0887
10121TIP3   OH251853   5.927   2.670  17.194 -0.0490  0.4968 -0.1118
10121TIP3    H151854   5.991   2.599  17.203 -0.6750  0.1035  1.6605
10121TIP3    H251855   5.948   2.710  17.110  1.1568 -0.9625 -0.5651
10122TIP3   OH251856   2.412   2.417   1.864  0.1823 -0.2725 -0.1259
10122TIP3    H151857   2.429   2.499   1.911 -1.5792  0.8048 -1.2809
10122TIP3    H251858   2.450   2.350   1.921  1.0712  1.2535  1.1940
10123TIP3   OH251859   3.951   1.920   1.200 -0.2381 -0.1901 -0.3037
10123TIP3    H151860   3.963   1.942   1.108 -2.1686 -0.3779 -0.6391
10123TIP3    H251861   3.993   1.991   1.247 -0.9907  1.0018 -1.3603
10124TIP3   OH251862   3.804   3.920  13.452  0.3335 -0.4656  0.6024
10124TIP3    H151863   3.795   3.909  13.547 -0.1122  1.7430  0.8796
10124TIP3    H251864   3.714   3.935  13.421  0.6796  0.8434  0.1710
10125TIP3   OH251865   2.402   4.968   3.080 -0.2433 -0.3445  0.7300
10125TIP3    H151866   2.358   4.958   3.164 -0.8095  0.2583  0.5153
10125TIP3    H251867   2.360   4.904   3.022 -2.3179  1.5786 -0.0374
10126TIP3   OH251868   3.059   3.278  12.258 -0.3066  0.5246  0.1966
10126TIP3    H151869   3.100   3.275  12.172 -0.0465 -2.1553  0.3168
10126TIP3    H251870   2.965   3.273  12.241 -0.2860  0.7218  0.0342
10127TIP3   OH251871   2.007   5.306   2.215 -0.9310 -0.7269  0.6493
10127TIP3    H151872   2.099   5.308   2.242 -0.8865 -1.1405  0.5414
10127TIP3    H251873   1.992   5.391   2.174 -0.6425 -0.5922  0.8169
10128TIP3   OH251874   1.368   3.146   2.172  0.3058  0.4627  0.4970
10128TIP3    H151875   1.320   3.063   2.176 -0.4782  0.9227  3.6494
10128TIP3    H251876   1.366   3.171   2.080 -1.8890 -1.6198 -0.1209
10129TIP3   OH251877   4.221   1.789  16.017  0.0938 -0.3069 -0.2014
10129TIP3    H151878   4.151   1.813  16.078  1.0704 -0.0459  0.8472
10129TIP3    H251879   4.178   1.736  15.950 -1.1059 -0.1240  0.4040
10130TIP3   OH251880   4.101   5.778  15.215 -0.2953  0.0333 -0.3532
10130TIP3    H151881   4.064   5.761  15.128 -0.3332  0.1072 -0.3518
10130TIP3    H251882   4.040   5.840  15.256  0.6296  1.3556 -0.9227
10131TIP3   OH251883   1.889   3.017   4.922 -0.1067  0.2550  0.2352
10131TIP3    H151884   1.899   3.093   4.980  0.2621  0.0421  0.4507
10131TIP3    H251885   1.954   2.954   4.954  0.4348  0.3241 -0.7090
10132TIP3   OH251886   1.947   2.839  16.811  0.1204  0.1772  0.1456
10132TIP3    H151887   1.909   2.788  16.883 -1.4619  1.5347  0.3380
10132TIP3    H251888   1.973   2.921  16.852 -0.0196  0.6306 -0.6652
10133TIP3   OH251889   2.233   4.095   0.636 -0.1778  0.0742 -0.2562
10133TIP3    H151890   2.242   4.038   0.713  3.0024 -1.2074 -1.4009
10133TIP3    H251891   2.319   4.138   0.629 -0.9599  1.4154 -2.1476
10134TIP3   OH251892   1.563   6.294   2.260 -0.4193  0.7303 -0.2845
10134TIP3    H151893   1.644   6.301   2.311  0.5090 -2.0070 -1.1923
10134TIP3    H251894   1.511   6.230   2.308  0.4402 -1.8560 -2.5055
10135TIP3   OH251895   1.555   1.260  14.069 -0.0770 -0.2186 -0.1562
10135TIP3    H151896   1.506   1.291  14.145 -1.9228  0.9352 -1.7081
10135TIP3    H251897   1.604   1.337  14.039  1.3030 -0.8826  0.2893
10136TIP3   OH251898   0.652   5.424   6.272 -0.3478 -0.2701  0.1435
10136TIP3    H151899   0.587   5.379   6.325 -0.5742  1.4414  1.3971
10136TIP3    H251900   0.622   5.414   6.182 -0.1357 -2.9448  0.3034
10137TIP3   OH251901   6.393   3.994  15.314  0.1009  0.3664  0.4415
10137TIP3    H151902   6.374   3.984  15.220  1.1634  1.7381  0.0441
10137TIP3    H251903   6.457   3.924  15.332  0.1582  0.3147  0.0551
10138TIP3   OH251904   3.671   0.848   5.745  0.0288  0.2030 -0.0072
10138TIP3    H151905   3.680   0.849   5.650  0.9928  0.3113  0.0816
10138TIP3    H251906   3.638   0.761   5.766  1.8639 -0.5828 -0.2655
10139TIP3   OH251907   2.920   2.906   0.035 -0.0960  0.3400 -0.1491
10139TIP3    H151908   2.964   2.829   0.071 -0.4996  0.1848  0.0305
10139TIP3    H251909   2.901   2.960   0.111 -3.3156 -1.1985  0.3219
10140TIP3   OH251910   2.110   6.573   6.414 -0.1706  0.0426 -0.0743
10140TIP3    H151911   2.049   6.645   6.397  0.4487  0.5901 -0.0290
10140TIP3    H251912   2.123   6.575   6.509  0.8558  0.7320 -0.2056
10141TIP3   OH251913   1.120   4.797  16.064 -0.4808 -0.6400 -0.5527
10141TIP3    H151914   1.144   4.872  16.119 -0.6952 -0.4426 -0.7296
10141TIP3    H251915   1.026   4.787  16.077 -0.5681 -0.4682 -1.0432
10142TIP3   OH251916   4.106   2.651   2.855  0.2626 -0.7156 -0.0836
10142TIP3    H151917   4.104   2.741   2.823  1.6880 -0.7966 -0.4595
10142TIP3    H251918   4.123   2.598   2.778  0.6444 -1.1958  0.3205
10143TIP3   OH251919   3.044   2.478   2.302 -0.0759  0.2108  0.0307
10143TIP3    H151920   3.113   2.499   2.366  1.3861  0.1623 -1.4714
10143TIP3    H251921   2.967   2.461   2.356  0.8156  1.2285  1.7314
10144TIP3   OH251922   4.686   3.032   0.946 -0.1071 -0.1149 -0.4249
10144TIP3    H151923   4.695   3.114   0.994  0.7694 -0.6186  0.3157
10144TIP3    H251924   4.603   2.996   0.977  1.3424 -1.4037  2.3892
10145TIP3   OH251925   5.072   5.395  14.901  0.0181 -0.6055  0.0059
10145TIP3    H151926   5.116   5.310  14.894  0.9522 -0.2122  0.8817
10145TIP3    H251927   5.045   5.401  14.992 -0.5979 -0.2193 -0.1970
10146TIP3   OH251928   3.613   5.869  12.139  0.1822  0.1909 -0.4545
10146TIP3    H151929   3.610   5.774  12.131  1.4001  0.1151 -0.2579
10146TIP3    H251930   3.703   5.892  12.114 -0.1050  1.2875 -0.5087
10147TIP3   OH251931   3.474   6.789  13.710  0.0219  0.9279 -0.2635
10147TIP3    H151932   3.508   6.730  13.643  1.8396  1.2945  0.2934
10147TIP3    H251933   3.470   6.875  13.668 -1.9769  0.5973 -0.8631
10148TIP3   OH251934   3.348   6.349  17.050 -0.0667  0.3090 -0.4086
10148TIP3    H151935   3.308   6.311  16.972 -1.0398  0.0171  0.2188
10148TIP3    H251936   3.334   6.284  17.119  0.4975  0.7016  0.0969
10149TIP3   OH251937   1.599   0.725  14.125 -0.2480 -0.4646  0.1302
10149TIP3    H151938   1.584   0.768  14.040 -0.1404 -1.8903 -0.6483
10149TIP3    H251939   1.586   0.794  14.189  0.4434  0.8557 -1.0826
10150TIP3   OH251940   1.491   6.003   6.061 -0.9166 -0.0805 -0.1942
10150TIP3    H151941   1.517   6.094   6.044 -0.2437 -0.2862 -0.2665
10150TIP3    H251942   1.469   6.002   6.154 -1.6791  0.3327 -0.3570
10151TIP3   OH251943   6.798   3.265  13.083 -0.1630 -0.4554  0.2019
10151TIP3    H151944   6.748   3.192  13.117 -0.2748 -0.6450 -0.3554
10151TIP3    H251945   6.839   3.231  13.003  3.8865 -1.5151  2.4302
10152TIP3   OH251946   1.472   4.157  16.423 -0.5330 -0.0277  0.1508
10152TIP3    H151947   1.394   4.175  16.370 -0.1274  0.7749 -0.1898
10152TIP3    H251948   1.439   4.111  16.500 -1.1644 -1.0342 -0.6838
10153TIP3   OH251949   3.799   0.575  11.237  0.3697 -0.1432  0.1231
10153TIP3    H151950   3.797   0.532  11.323  0.9488 -0.4395 -0.0036
10153TIP3    H251951   3.817   0.667  11.257  1.3452 -0.3517  0.2926
10154TIP3   OH251952   4.499   1.961   4.021  0.3408 -0.4960 -0.5507
10154TIP3    H151953   4.582   1.946   3.976  0.3774  0.4851 -0.8412
10154TIP3    H251954   4.443   2.002   3.955 -0.0625 -0.3149 -0.1032
10155TIP3   OH251955   5.800   6.820   0.282 -0.1127 -0.0652 -0.4451
10155TIP3    H151956   5.777   6.773   0.363 -0.2082 -0.0984 -0.4915
10155TIP3    H251957   5.762   6.907   0.293  0.5405  0.1832 -0.1196
10156TIP3   OH251958   6.260   2.239  12.248  0.0051 -0.0508 -0.0090
10156TIP3    H151959   6.176   2.283  12.234  0.4540  1.1102  0.8076
10156TIP3    H251960   6.244   2.149  12.221 -1.6665  0.0033  0.6400
10157TIP3   OH251961   3.000   0.261  14.695 -0.1527  0.4189  0.1584
10157TIP3    H151962   3.074   0.317  14.672 -0.2873  0.3501 -0.4423
10157TIP3    H251963   3.026   0.173  14.667 -1.0430  0.6190 -1.4281
10158TIP3   OH251964   1.176   3.633   3.015  0.7150  0.0253 -0.1960
10158TIP3    H151965   1.233   3.645   3.091 -0.0757  0.2699  0.3730
10158TIP3    H251966   1.172   3.538   3.003  0.3743 -0.0472  0.4431
10159TIP3   OH251967   5.670   2.333   3.701  0.2563 -0.0069  0.1474
10159TIP3    H151968   5.609   2.363   3.634 -0.4952 -1.0406  0.3482
10159TIP3    H251969   5.672   2.404   3.766 -0.9812 -0.0878  0.2900
10160TIP3   OH251970   4.662   1.784   4.473 -0.0331  0.4168  0.3814
10160TIP3    H151971   4.709   1.701   4.487 -0.8413  0.1338  1.5502
10160TIP3    H251972   4.625   1.805   4.558 -1.7361  0.8101 -0.4098
10161TIP3   OH251973   1.615   3.642  13.403  0.1799  0.1308  0.1153
10161TIP3    H151974   1.541   3.583  13.419 -1.4331  1.9835 -0.0195
10161TIP3    H251975   1.685   3.585  13.371 -0.9121 -1.8153  0.9731
10162TIP3   OH251976   3.285   3.146   0.564 -0.0467 -0.1627 -0.1864
10162TIP3    H151977   3.340   3.224   0.576 -0.8627  0.3229  0.4508
10162TIP3    H251978   3.289   3.100   0.648  0.5957 -0.9263 -0.6251
10163TIP3   OH251979   1.994   3.197   6.228 -0.8881 -0.2557 -0.5090
10163TIP3    H151980   2.082   3.162   6.212 -0.6148  0.2191 -0.0637
10163TIP3    H251981   2.003   3.250   6.307 -1.3113  0.7707 -1.1274
10164TIP3   OH251982   4.487   5.322   0.076  0.2596 -0.2236 -0.1551
10164TIP3    H151983   4.401   5.295   0.046 -0.4781  0.8713  0.9129
10164TIP3    H251984   4.524   5.373   0.004 -0.0502 -0.5404 -0.5383
10165TIP3   OH251985   5.865   0.442   3.662  0.4714 -0.6134  0.9360
10165TIP3    H151986   5.869   0.525   3.613  1.7076 -1.5051 -0.5903
10165TIP3    H251987   5.870   0.468   3.754  0.2247  1.0401  0.5199
10166TIP3   OH251988   2.046   6.697  12.733 -0.2103  0.1196 -0.0595
10166TIP3    H151989   1.961   6.719  12.695  0.7389 -0.2241 -2.6180
10166TIP3    H251990   2.092   6.780  12.738 -1.2664  0.6467  3.2094
10167TIP3   OH251991   2.134   1.832   5.942  0.3547 -0.3388  0.0362
10167TIP3    H151992   2.053   1.865   5.981 -0.1693 -0.3863 -0.9616
10167TIP3    H251993   2.196   1.904   5.953 -0.3603  0.4509 -0.8025
10168TIP3   OH251994   3.167   0.968   1.188 -0.4959  0.0167  0.3954
10168TIP3    H151995   3.127   0.960   1.275 -0.2028 -0.0038  0.5301
10168TIP3    H251996   3.255   1.001   1.206 -1.4755  3.2557 -0.0668
10169TIP3   OH251997   1.077   3.368  16.662  0.2946  0.1019  0.7389
10169TIP3    H151998   1.086   3.387  16.568 -1.2470  0.3054  0.5964
10169TIP3    H251999   1.131   3.290  16.676 -0.6046 -0.8285 -0.6608
10170TIP3   OH252000   5.697   3.842  13.091  0.0048  0.1530  0.6254
10170TIP3    H152001   5.779   3.889  13.108  1.1567 -0.9823 -1.3839
10170TIP3    H252002   5.698   3.827  12.996 -2.2504 -0.4358  0.6530
10171TIP3   OH252003   5.807   4.143  11.323 -0.5592 -0.3023  0.1113
10171TIP3    H152004   5.804   4.237  11.303  1.0151  0.0710  1.4758
10171TIP3    H252005   5.782   4.138  11.415  0.1076 -1.1591  0.2467
10172TIP3   OH252006   1.581   6.446  15.555  0.4882  0.1105  0.0374
10172TIP3    H152007   1.635   6.453  15.476  0.5649  0.8281  0.1522
10172TIP3    H252008   1.575   6.535  15.588 -0.3028 -0.0483  0.3402
10173TIP3   OH252009   4.672   3.230  15.210 -0.0023 -0.5183 -0.5253
10173TIP3    H152010   4.765   3.206  15.213  0.0022 -0.5386 -0.8769
10173TIP3    H252011   4.626   3.146  15.217 -0.0299 -0.3862  1.7221
10174TIP3   OH252012   2.262   4.912   3.303  0.2914  0.2360 -0.4007
10174TIP3    H152013   2.180   4.879   3.339  0.2933  0.8904  0.2207
10174TIP3    H252014   2.290   4.979   3.365  1.3680 -0.0774 -0.5296
10175TIP3   OH252015   4.154   4.081  13.034  0.2996  0.6885  0.0359
10175TIP3    H152016   4.148   4.046  12.945  2.3163  0.7290 -0.1556
10175TIP3    H252017   4.242   4.118  13.040  0.6092 -0.2501  2.3652
10176TIP3   OH252018   0.345   3.080   4.182 -0.1740  0.2668  0.6909
10176TIP3    H152019   0.329   3.126   4.100 -1.9243  0.9260  1.3565
10176TIP3    H252020   0.375   2.993   4.156  0.4149  0.8349 -0.6052
10177TIP3   OH252021   1.738   2.500   6.016  0.6045  0.2578 -0.0591
10177TIP3    H152022   1.754   2.415   5.974  1.6626  1.7651 -2.9400
10177TIP3    H252023   1.822   2.545   6.014  0.1628  1.2965  1.7827
10178TIP3   OH252024   6.133   2.994  13.682  0.0849  0.7315 -0.4226
10178TIP3    H152025   6.083   3.075  13.686  0.9737  1.2616  1.9684
10178TIP3    H252026   6.223   3.021  13.665  0.1711  0.1179 -0.9896
10179TIP3   OH252027   5.481   1.919   3.642  0.0180  0.2496 -0.2289
10179TIP3    H152028   5.535   1.920   3.563 -0.1918 -2.4398 -0.5103
10179TIP3    H252029   5.441   2.006   3.645  0.6700  0.7070 -2.6322
10180TIP3   OH252030   4.670   1.682   3.720 -0.0853  0.7192 -0.3082
10180TIP3    H152031   4.665   1.601   3.670 -3.3076  0.1093  0.7541
10180TIP3    H252032   4.631   1.748   3.663  0.2410  0.9703 -0.2402
10181TIP3   OH252033   0.091   5.438  11.611 -0.3217 -0.5729  0.5352
10181TIP3    H152034   0.096   5.448  11.706  0.7863  0.7855  0.3721
10181TIP3    H252035   0.147   5.364  11.591 -0.9379 -1.1654  0.9667
10182TIP3   OH252036   0.567   4.701  13.917  0.9664  0.5161 -0.2375
10182TIP3    H152037   0.524   4.786  13.910  0.5802  0.3359 -0.0540
10182TIP3    H252038   0.594   4.680  13.828  0.8330  0.7112 -0.3237
10183TIP3   OH252039   3.528   3.863   2.141 -0.1791  0.4848  0.1390
10183TIP3    H152040   3.590   3.852   2.068 -1.7872 -0.2478 -1.1905
10183TIP3    H252041   3.571   3.821   2.215  0.4206 -1.1147 -1.0453
10184TIP3   OH252042   3.903   2.014  16.003  0.2834 -0.1535 -0.0558
10184TIP3    H152043   3.950   1.947  16.052  1.4413 -0.1085 -1.0625
10184TIP3    H252044   3.963   2.088  16.000 -0.5737  0.5596  0.1703
10185TIP3   OH252045   5.629   5.742   5.713 -0.7802  0.3746 -0.2798
10185TIP3    H152046   5.592   5.823   5.747  0.3964  0.3339  1.1859
10185TIP3    H252047   5.708   5.769   5.667 -0.3368  0.0621  0.2865
10186TIP3   OH252048   3.308   1.957  15.652 -0.9620  0.5924 -0.1706
10186TIP3    H152049   3.268   1.909  15.725 -1.5753  0.2021 -0.7439
10186TIP3    H252050   3.281   2.048  15.665  1.5974  1.1705  1.8672
10187TIP3   OH252051   2.388   0.846  14.483  0.1965 -0.5111  0.2079
10187TIP3    H152052   2.373   0.924  14.537  2.4990  0.0669  0.1015
10187TIP3    H252053   2.472   0.811  14.513  1.0981 -0.7356 -2.3101
10188TIP3   OH252054   5.029   5.536   5.684  0.6136  0.1981  0.0421
10188TIP3    H152055   5.003   5.570   5.770  2.9110  2.4069  0.0006
10188TIP3    H252056   5.047   5.444   5.699  1.8296  0.7154  2.2270
10189TIP3   OH252057   3.734   2.228   4.798  0.3659 -0.0731 -0.1777
10189TIP3    H152058   3.777   2.182   4.870 -0.7173  0.2267  0.6792
10189TIP3    H252059   3.717   2.316   4.832  0.0974  0.1622 -0.9040
10190TIP3   OH252060   3.136   6.545   2.769 -0.1365 -0.6447  0.1644
10190TIP3    H152061   3.093   6.590   2.697 -0.7812  0.3536  1.1506
10190TIP3    H252062   3.211   6.600   2.791 -1.1166  0.1842  1.5926
10191TIP3   OH252063   5.068   3.570  11.319 -0.1364  0.0053  0.5458
10191TIP3    H152064   5.060   3.490  11.370 -0.6163 -0.3763 -0.1148
10191TIP3    H252065   4.980   3.588  11.287 -0.7449  2.5302  3.1815
10192TIP3   OH252066   4.501   3.626  12.704  0.0418  0.2801  0.0976
10192TIP3    H152067   4.567   3.600  12.768 -0.0205 -1.5144 -0.5040
10192TIP3    H252068   4.427   3.655  12.756  0.5391  0.2938  0.8122
10193TIP3   OH252069   0.252   6.414  13.951 -0.1360  0.1352 -0.0497
10193TIP3    H152070   0.170   6.378  13.917  0.3312 -1.1435  0.1174
10193TIP3    H252071   0.307   6.338  13.966  0.9122  0.9406  0.3165
10194TIP3   OH252072   4.209   1.298   2.712 -0.0384  0.1109  0.2920
10194TIP3    H152073   4.254   1.235   2.768  1.0731  0.7311  0.1264
10194TIP3    H252074   4.279   1.339   2.660 -0.9563  0.0472 -1.0572
10195TIP3   OH252075   4.676   3.512  14.435  0.1635 -0.4464  0.4220
10195TIP3    H152076   4.713   3.440  14.384  1.0862  0.7967 -0.7192
10195TIP3    H252077   4.581   3.503  14.424  0.2933 -1.1514 -0.1775
10196TIP3   OH252078   4.778   4.072  12.776  0.1932  0.3130 -0.0647
10196TIP3    H152079   4.822   4.040  12.855  0.4645  0.8822  0.0241
10196TIP3    H252080   4.850   4.104  12.720  0.0305 -0.3208 -0.6604
10197TIP3   OH252081   4.761   4.919   3.934  0.3019  0.4341 -0.1232
10197TIP3    H152082   4.777   4.965   3.852  1.0422  1.8126  0.7526
10197TIP3    H252083   4.843   4.928   3.982 -0.0065 -0.6518  0.6375
10198TIP3   OH252084   0.968   2.612  11.263  0.5419  0.4678 -0.0859
10198TIP3    H152085   0.956   2.523  11.298 -0.0449  1.0152  1.1598
10198TIP3    H252086   0.885   2.633  11.221  0.5730  0.5457 -0.1085
10199TIP3   OH252087   1.794   1.333   5.759 -0.2501  0.2191 -0.1827
10199TIP3    H152088   1.828   1.273   5.825  0.9674  0.4284 -0.5800
10199TIP3    H252089   1.749   1.277   5.696 -1.8830  0.0671  1.0508
10200TIP3   OH252090   2.512   4.577  15.122 -0.0934 -0.2228  0.0589
10200TIP3    H152091   2.550   4.500  15.163  0.1922 -0.2429 -0.2376
10200TIP3    H252092   2.587   4.621  15.081 -0.1732  0.4693  0.6393
10201TIP3   OH252093   3.954   4.844   1.325 -0.1343 -0.5218 -0.1331
10201TIP3    H152094   4.044   4.877   1.321 -0.3995  0.4809  1.4507
10201TIP3    H252095   3.956   4.781   1.397 -0.4379 -1.4372 -0.9042
10202TIP3   OH252096   6.768   3.264   3.737  0.1407 -0.5798 -0.4614
10202TIP3    H152097   6.676   3.247   3.717 -0.4127 -0.5813  1.7732
10202TIP3    H252098   6.809   3.177   3.733 -0.3037 -0.8237  0.0164
10203TIP3   OH252099   6.441   5.261   0.305 -0.1716 -0.0628  0.1886
10203TIP3    H152100   6.417   5.295   0.219 -0.2912  0.9973  0.6220
10203TIP3    H252101   6.505   5.192   0.287 -0.3266  0.0275 -0.7523
10204TIP3   OH252102   4.806   3.659  12.747 -1.0936 -0.4390  0.0906
10204TIP3    H152103   4.762   3.702  12.673 -3.8858 -0.3780  1.6600
10204TIP3    H252104   4.824   3.570  12.715 -1.6073 -0.2151 -0.8843
10205TIP3   OH252105   4.763   5.222   5.253  0.0432 -0.1208 -0.7118
10205TIP3    H152106   4.681   5.175   5.267 -0.1587  0.3345 -0.3383
10205TIP3    H252107   4.831   5.160   5.278 -0.1548 -0.7372 -1.6774
10206TIP3   OH252108   5.612   1.282  16.549 -0.2513 -0.6752  0.3749
10206TIP3    H152109   5.578   1.365  16.516 -0.0620 -0.5645  0.4571
10206TIP3    H252110   5.692   1.306  16.596 -0.0856 -0.9298  0.2226
10207TIP3   OH252111   2.865   0.230  11.784  0.0327 -0.3184  0.5815
10207TIP3    H152112   2.950   0.275  11.791  0.1875 -0.1171 -1.7420
10207TIP3    H252113   2.807   0.296  11.747 -1.1707 -0.4831  2.0827
10208TIP3   OH252114   4.283   1.596  15.162 -0.4081  0.3287 -0.4503
10208TIP3    H152115   4.365   1.556  15.133  0.1582  0.7450  0.5236
10208TIP3    H252116   4.308   1.653  15.235 -1.3885  1.4542 -0.9559
10209TIP3   OH252117   3.087   6.570  11.302  0.7257 -0.3563 -0.4864
10209TIP3    H152118   3.120   6.577  11.213 -1.8296  1.0910 -1.4293
10209TIP3    H252119   3.070   6.476  11.315  1.5353 -0.6283 -1.3392
10210TIP3   OH252120   3.141   1.178   6.265 -0.4074  0.0680 -0.9940
10210TIP3    H152121   3.068   1.150   6.319 -1.0042 -0.2061 -1.9237
10210TIP3    H252122   3.204   1.215   6.327 -1.0056 -0.3729 -0.1081
10211TIP3   OH252123   4.454   6.690   4.840  0.4560 -0.2338  0.4807
10211TIP3    H152124   4.428   6.779   4.820  1.2414  0.0229  0.5676
10211TIP3    H252125   4.391   6.635   4.794  1.0239  0.3467 -1.0353
10212TIP3   OH252126   4.086   2.559   2.082 -1.0236  0.1933 -0.4681
10212TIP3    H152127   4.093   2.649   2.049 -0.8760  1.1160  1.8705
10212TIP3    H252128   4.082   2.569   2.177  0.0182 -2.3467 -0.0813
10213TIP3   OH252129   0.747   6.587  14.545 -0.1489 -0.2284  0.6407
10213TIP3    H152130   0.831   6.611  14.507  0.0888 -0.8872  0.7292
10213TIP3    H252131   0.749   6.491  14.547 -1.4471 -0.3003 -0.5799
10214TIP3   OH252132   0.836   3.035   0.964  0.2014 -0.0782  0.2117
10214TIP3    H152133   0.850   3.086   0.884 -0.0886 -1.2854 -0.6321
10214TIP3    H252134   0.919   3.041   1.011 -0.0674  1.8026  0.5303
10215TIP3   OH252135   0.678   6.645   1.411  0.6438  0.3241  0.3066
10215TIP3    H152136   0.589   6.626   1.381  0.3535  0.6788  0.9123
10215TIP3    H252137   0.669   6.724   1.464  1.3078  0.3062  0.4612
10216TIP3   OH252138   4.986   6.495  14.681  0.4048 -0.1337 -0.1018
10216TIP3    H152139   4.996   6.559  14.610  0.6620 -2.0509 -1.8940
10216TIP3    H252140   5.064   6.439  14.674 -1.1233 -2.3533 -0.4662
10217TIP3   OH252141   4.779   0.819  15.955 -0.5470 -0.3512  0.0572
10217TIP3    H152142   4.749   0.909  15.946  0.6137 -0.0047 -0.4243
10217TIP3    H252143   4.741   0.774  15.879 -2.0718 -0.5614  0.8958
10218TIP3   OH252144   1.063   1.673   3.843  0.6669 -0.4220 -0.2789
10218TIP3    H152145   1.094   1.760   3.867  0.9272 -0.5255 -0.2309
10218TIP3    H252146   1.121   1.613   3.890 -1.2959 -0.6539  1.9912
10219TIP3   OH252147   1.820   2.161   0.538 -0.3204  0.1273 -0.1859
10219TIP3    H152148   1.776   2.246   0.536  0.6286  0.6489  0.3535
10219TIP3    H252149   1.757   2.100   0.501 -0.1092  1.4896 -3.0840
10220TIP3   OH252150   4.747   4.707  14.518 -0.0779 -0.3905 -0.4089
10220TIP3    H152151   4.677   4.649  14.487 -0.2753 -0.1175 -0.4739
10220TIP3    H252152   4.827   4.654  14.512 -0.3513 -0.8726  0.1535
10221TIP3   OH252153   5.580   4.306  13.352 -0.8141 -0.3696 -0.1640
10221TIP3    H152154   5.632   4.352  13.285  0.6185 -1.4131  0.1661
10221TIP3    H252155   5.610   4.343  13.435 -2.7694  1.0986 -0.0542
10222TIP3   OH252156   3.769   4.467  16.934  0.0935 -0.2436 -0.0964
10222TIP3    H152157   3.844   4.442  16.879 -0.7816 -1.5799 -0.7217
10222TIP3    H252158   3.725   4.536  16.884  0.0421 -0.5357 -0.4610
10223TIP3   OH252159   2.842   2.480   0.343  0.1531  0.0464  0.1131
10223TIP3    H152160   2.847   2.398   0.294 -0.7271 -1.1067  1.8509
10223TIP3    H252161   2.749   2.502   0.345  0.1235 -0.1235  1.5260
10224TIP3   OH252162   5.343   2.327  16.592  0.2356 -0.1268 -0.0474
10224TIP3    H152163   5.297   2.406  16.620 -1.3792 -1.3106  0.8436
10224TIP3    H252164   5.383   2.351  16.508  0.0924  1.7121  0.3726
10225TIP3   OH252165   1.491   3.180  13.742 -0.1006 -0.3778 -0.5726
10225TIP3    H152166   1.420   3.211  13.686  0.1115  0.7657 -0.2386
10225TIP3    H252167   1.556   3.251  13.740  0.2177 -0.6140  0.5652
10226TIP3   OH252168   4.724   4.367  15.453 -0.2485  0.4047 -0.2154
10226TIP3    H152169   4.746   4.358  15.360  1.6970  1.2232  0.1094
10226TIP3    H252170   4.770   4.447  15.480 -0.6612  0.0870  1.4737
10227TIP3   OH252171   4.003   6.370   1.055  0.6384  0.2781  0.5511
10227TIP3    H152172   4.004   6.451   1.004 -0.0603  1.6052  2.5082
10227TIP3    H252173   4.011   6.399   1.146 -0.8236 -1.7561  1.4123
10228TIP3   OH252174   6.785   6.177  14.404 -0.4423  0.4978  0.0854
10228TIP3    H152175   6.713   6.237  14.386  1.5702  2.3799 -2.6014
10228TIP3    H252176   6.831   6.216  14.478 -1.0516  0.3587  0.5464
10229TIP3   OH252177   3.755   2.182  16.992  0.8920 -0.5033 -0.0373
10229TIP3    H152178   3.842   2.199  16.956  1.7419 -1.2420  1.5381
10229TIP3    H252179   3.733   2.262  17.040  1.1104 -0.6486  0.3090
10230TIP3   OH252180   0.985   2.886   3.384 -0.5407 -0.0866  0.3283
10230TIP3    H152181   0.930   2.940   3.442  0.7477 -0.2397  1.7403
10230TIP3    H252182   0.923   2.851   3.320 -2.0241  0.1507  1.5496
10231TIP3   OH252183   1.765   3.771  11.777  0.0908  0.3233  0.1256
10231TIP3    H152184   1.835   3.811  11.829  1.4529 -0.4177 -1.0457
10231TIP3    H252185   1.728   3.843  11.726  0.0326  0.7161  0.7166
10232TIP3   OH252186   5.154   1.854   3.595  0.0720  0.1678  0.3894
10232TIP3    H152187   5.138   1.809   3.512  0.2916 -0.6280  0.7684
10232TIP3    H252188   5.248   1.843   3.610 -0.2643 -1.2988  1.6396
10233TIP3   OH252189   1.414   2.945   3.730 -0.3054  0.0566 -0.2960
10233TIP3    H152190   1.446   2.903   3.810 -0.5313 -1.3865 -0.9388
10233TIP3    H252191   1.325   2.911   3.719 -1.6381  2.9035  0.6901
10234TIP3   OH252192   5.529   5.458  14.241  0.0066  0.0903 -0.2936
10234TIP3    H152193   5.450   5.480  14.192  0.7270  1.7005 -0.7981
10234TIP3    H252194   5.528   5.362  14.245 -0.7579 -0.0479 -2.3297
10235TIP3   OH252195   5.414   5.588  11.395 -0.4921  0.0103 -0.0936
10235TIP3    H152196   5.488   5.542  11.434 -0.2634 -1.9792 -2.5587
10235TIP3    H252197   5.449   5.674  11.370  0.3038 -0.0297  0.8518
10236TIP3   OH252198   0.619   0.849   4.757  0.4739  0.1054 -0.2245
10236TIP3    H152199   0.614   0.820   4.666  2.2442  1.7382 -0.8989
10236TIP3    H252200   0.536   0.821   4.795 -0.6952  0.1537 -2.5568
10237TIP3   OH252201   1.900   1.686   0.498 -0.2728  0.1061  0.1371
10237TIP3    H152202   1.941   1.695   0.412 -0.4931 -1.2195 -0.1193
10237TIP3    H252203   1.939   1.756   0.551  1.5971 -0.5200 -0.3587
10238TIP3   OH252204   1.085   3.054  15.837  0.0655 -0.0101 -0.8606
10238TIP3    H152205   1.134   3.087  15.762 -0.8629  1.4957 -0.8301
10238TIP3    H252206   1.003   3.022  15.800 -1.1632  2.3528 -0.3575
10239TIP3   OH252207   4.910   0.431  15.903  0.5578  0.8315 -0.2907
10239TIP3    H152208   4.928   0.505  15.846  1.2339 -0.5042 -1.8740
10239TIP3    H252209   4.819   0.408  15.885  1.0570 -0.2186 -1.6591
10240TIP3   OH252210   2.446   6.299  15.643 -0.3492  0.2793  0.1741
10240TIP3    H152211   2.463   6.320  15.735  0.1568 -0.2556  0.2107
10240TIP3    H252212   2.376   6.235  15.646  0.6284 -0.8223  0.2860
10241TIP3   OH252213   2.235   5.782   4.201  0.1127 -0.3959 -0.0019
10241TIP3    H152214   2.174   5.744   4.138 -1.2832 -0.7373  1.4889
10241TIP3    H252215   2.278   5.707   4.241 -1.5726 -0.4103  1.8976
10242TIP3   OH252216   4.664   5.768  15.646 -0.0198 -0.0600 -0.5630
10242TIP3    H152217   4.741   5.810  15.609  0.6261 -1.2842 -0.6862
10242TIP3    H252218   4.700   5.704  15.709 -1.0053  0.6624  0.7897
10243TIP3   OH252219   4.163   2.506  14.179  1.4122 -0.5993  0.1275
10243TIP3    H152220   4.188   2.507  14.271 -0.1152 -2.0716  0.5982
10243TIP3    H252221   4.210   2.581  14.141  1.8015  0.2481  2.1412
10244TIP3   OH252222   6.363   2.787  10.671 -0.2657 -0.0641  0.2476
10244TIP3    H152223   6.408   2.799  10.755  1.0383 -0.8160 -0.3110
10244TIP3    H252224   6.432   2.757  10.611 -1.5229 -1.2588 -0.6500
10245TIP3   OH252225   0.093   1.607  15.763  0.0858  0.0716 -0.4238
10245TIP3    H152226   0.001   1.632  15.756  0.5776  2.4772  0.7591
10245TIP3    H252227   0.091   1.526  15.814 -1.2848  2.3140  3.5386
10246TIP3   OH252228   5.021   5.323  15.165 -0.3029  0.2857 -0.4076
10246TIP3    H152229   5.009   5.231  15.186  0.3242  0.3030  0.0527
10246TIP3    H252230   4.932   5.359  15.161 -0.7231 -0.8139 -2.9325
10247TIP3   OH252231   6.425   5.010  16.201 -0.4645 -0.0165 -0.0520
10247TIP3    H152232   6.440   4.928  16.154  2.1698  0.5289 -0.3651
10247TIP3    H252233   6.351   4.992  16.258 -0.6040 -2.2922 -0.8302
10248TIP3   OH252234   4.333   4.392   1.257  0.1327 -0.3501 -0.8825
10248TIP3    H152235   4.371   4.340   1.187  2.0212  0.6862 -0.7016
10248TIP3    H252236   4.366   4.481   1.241  1.6590 -0.2814  1.9295
10249TIP3   OH252237   4.222   6.380  15.857  0.3492 -0.2622  0.3793
10249TIP3    H152238   4.303   6.405  15.814 -0.2756 -0.3281 -0.9145
10249TIP3    H252239   4.153   6.416  15.801 -0.5221  0.3206  1.7742
10250TIP3   OH252240   1.823   3.926  12.668 -0.1244 -0.4029 -0.1264
10250TIP3    H152241   1.783   3.936  12.581  0.0335  1.4880 -0.0361
10250TIP3    H252242   1.898   3.986  12.666 -1.4272  1.4172  2.0451
10251TIP3   OH252243   1.761   1.924  16.417  0.1608  0.1519 -0.5180
10251TIP3    H152244   1.771   1.845  16.470 -3.1090 -0.1412 -0.1677
10251TIP3    H252245   1.820   1.909  16.343  0.6351 -2.0063  0.2029
10252TIP3   OH252246   5.002   4.445  11.690  0.0774  0.4291 -0.8815
10252TIP3    H152247   4.914   4.445  11.651 -0.8106 -0.7993  0.9833
10252TIP3    H252248   4.992   4.493  11.772  1.7240  2.2630 -1.6586
10253TIP3   OH252249   0.777   4.044   0.044  0.5364  0.2674 -0.6050
10253TIP3    H152250   0.786   3.963  -0.007 -0.0735 -0.0174 -0.2781
10253TIP3    H252251   0.689   4.076   0.024 -0.6859 -1.1090  1.9752
10254TIP3   OH252252   6.406   4.125  12.798  0.9686 -0.3955 -0.2232
10254TIP3    H152253   6.466   4.149  12.727 -0.8758  1.9612 -1.1297
10254TIP3    H252254   6.423   4.190  12.866 -0.9184  0.7682 -0.7798
10255TIP3   OH252255   4.723   0.207   2.477  0.1114 -0.2292  0.0186
10255TIP3    H152256   4.782   0.272   2.437  0.3371 -1.0922 -1.1260
10255TIP3    H252257   4.635   0.239   2.456  0.2255 -0.5746 -1.0593
10256TIP3   OH252258   2.758   3.688  17.192  0.3675 -0.0191  0.3267
10256TIP3    H152259   2.823   3.644  17.246  0.4172 -0.0059  0.2772
10256TIP3    H252260   2.808   3.751  17.140  0.6770 -1.6935 -1.5304
10257TIP3   OH252261   1.515   5.625  11.237  0.4549  0.0865 -0.4802
10257TIP3    H152262   1.583   5.692  11.239  0.2851  0.2705 -0.8944
10257TIP3    H252263   1.479   5.629  11.149 -1.3377  1.2333  0.2580
10258TIP3   OH252264   6.567   6.250  13.846 -0.6659  0.4395  0.0576
10258TIP3    H152265   6.537   6.168  13.886 -1.7131 -0.0038 -1.5191
10258TIP3    H252266   6.645   6.274  13.896 -0.3730 -1.4922  0.6326
10259TIP3   OH252267   3.164   1.297  12.157 -0.4892 -0.4491 -0.4514
10259TIP3    H152268   3.132   1.289  12.067 -1.5263  0.1708 -0.1558
10259TIP3    H252269   3.172   1.207  12.187 -0.7090 -0.6494 -0.9743
10260TIP3   OH252270   4.390   6.188  17.055  0.6560 -0.0343 -0.0824
10260TIP3    H152271   4.419   6.098  17.041  0.0735 -0.2363 -0.0147
10260TIP3    H252272   4.388   6.198  17.150  0.0328 -0.1817 -0.0763
10261TIP3   OH252273   3.546   5.482   0.996 -0.6104 -0.0568 -0.7193
10261TIP3    H152274   3.503   5.552   0.947 -0.1689 -0.1361 -1.2155
10261TIP3    H252275   3.582   5.424   0.930 -0.2805 -0.3346 -0.3024
10262TIP3   OH252276   5.813   6.733   4.208  0.2299 -0.2266  0.5453
10262TIP3    H152277   5.906   6.753   4.212  0.2461  0.2537 -1.4018
10262TIP3    H252278   5.784   6.766   4.123 -2.0816  1.0642  1.7403
10263TIP3   OH252279   6.734   4.711   3.442 -0.5051  0.4986 -0.0298
10263TIP3    H152280   6.798   4.755   3.386 -1.6320  0.3620 -1.4894
10263TIP3    H252281   6.786   4.652   3.496  0.5134 -0.7510 -2.2263
10264TIP3   OH252282   4.520   0.097  15.422  0.3501 -0.3440 -0.0186
10264TIP3    H152283   4.584   0.157  15.385 -0.2825  1.3051  1.4219
10264TIP3    H252284   4.443   0.105  15.365  0.1896  0.4094  0.2962
10265TIP3   OH252285   5.970   0.401  15.769  0.3319 -0.7775 -0.0777
10265TIP3    H152286   6.059   0.377  15.743  1.3975  1.7971  0.8159
10265TIP3    H252287   5.951   0.479  15.717 -0.7405 -0.3547  0.9201
10266TIP3   OH252288   6.801   2.339  11.666 -0.2778  0.1188  0.1521
10266TIP3    H152289   6.741   2.319  11.595  0.6125  0.3315 -0.6741
10266TIP3    H252290   6.886   2.354  11.624  0.4990 -0.7370  1.3423
10267TIP3   OH252291   5.855   6.021  11.944 -0.1747  0.2022 -0.0150
10267TIP3    H152292   5.801   6.000  11.867  2.1130  0.5217 -1.8228
10267TIP3    H252293   5.812   5.976  12.016 -1.8058 -1.0899 -1.6871
10268TIP3   OH252294   2.957   1.805  12.080 -0.1500 -0.5616  0.0470
10268TIP3    H152295   2.884   1.824  12.139 -0.2636 -0.8582  0.0036
10268TIP3    H252296   2.917   1.788  11.995  0.0895  0.9412 -0.3904
10269TIP3   OH252297   4.525   0.947   0.312  0.4201  0.0989  0.0445
10269TIP3    H152298   4.486   0.992   0.237 -0.0515 -1.6826 -0.8398
10269TIP3    H252299   4.620   0.955   0.297  0.3353 -0.0339 -0.6174
10270TIP3   OH252300   2.358   0.205   5.564  0.0171  0.0214  0.1180
10270TIP3    H152301   2.347   0.128   5.508 -1.0977  0.1891  0.0956
10270TIP3    H252302   2.328   0.176   5.651  0.4292  0.1735  0.3127
10271TIP3   OH252303   0.719   4.837  16.715 -0.1856  0.0406  0.1494
10271TIP3    H152304   0.762   4.815  16.798 -1.1124 -0.6584  0.4624
10271TIP3    H252305   0.633   4.871  16.741 -0.1714  0.5892 -0.4969
10272TIP3   OH252306   0.438   6.009  14.930  0.1003  0.4522  0.4552
10272TIP3    H152307   0.388   6.045  15.003  0.3049 -1.2443  1.4984
10272TIP3    H252308   0.510   5.961  14.971  0.2057 -0.5850 -0.8435
10273TIP3   OH252309   5.127   4.880   2.547  0.3215  0.3109  0.6489
10273TIP3    H152310   5.215   4.917   2.551  1.1051 -1.2232 -0.8169
10273TIP3    H252311   5.139   4.788   2.574 -0.6298 -0.1651 -0.4582
10274TIP3   OH252312   0.637   1.060  13.946  0.3143 -0.4263 -0.0275
10274TIP3    H152313   0.591   0.977  13.931 -0.2663 -0.1030 -0.0476
10274TIP3    H252314   0.613   1.085  14.035 -0.4060  0.2774 -0.4089
10275TIP3   OH252315   1.167   0.558   2.209  0.0059  0.4198  0.1210
10275TIP3    H152316   1.155   0.463   2.222  0.9914  0.0890 -1.1266
10275TIP3    H252317   1.145   0.571   2.117 -0.3215  1.4554  0.3429
10276TIP3   OH252318   5.038   5.128   2.622  0.9017  0.1906 -0.1432
10276TIP3    H152319   5.059   5.046   2.578 -1.0627  0.9441 -2.7124
10276TIP3    H252320   5.050   5.195   2.556 -0.5399  1.6151  0.9620
10277TIP3   OH252321   4.513   2.264  16.224 -0.5507 -0.5350 -0.5617
10277TIP3    H152322   4.551   2.343  16.261  1.6043 -0.9521 -1.7056
10277TIP3    H252323   4.478   2.216  16.299 -0.9301  0.9862  0.2656
10278TIP3   OH252324   1.764   1.988   3.281 -0.0223 -0.7059  0.4630
10278TIP3    H152325   1.755   1.894   3.297 -2.8771 -0.4632  0.7418
10278TIP3    H252326   1.689   2.011   3.227  0.5763  1.4458  0.4568
10279TIP3   OH252327   2.466   4.848  15.885  0.2333  0.0920 -0.1806
10279TIP3    H152328   2.496   4.935  15.911  2.5392 -0.6300 -0.2462
10279TIP3    H252329   2.470   4.850  15.789  0.1428 -0.0589 -0.1875
10280TIP3   OH252330   4.474   3.096  16.475  0.1374 -0.0467 -0.5950
10280TIP3    H152331   4.488   3.164  16.541 -0.0871 -0.1828 -0.4059
10280TIP3    H252332   4.508   3.016  16.515 -1.5285 -0.4813  0.0635
10281TIP3   OH252333   1.506   5.010  14.610  0.4276  0.1133  0.1406
10281TIP3    H152334   1.480   4.918  14.609 -1.8183  0.6494 -2.2565
10281TIP3    H252335   1.456   5.048  14.683  0.0657 -0.2422  0.0831
10282TIP3   OH252336   0.744   1.472   0.844 -0.0808  0.0873  0.0275
10282TIP3    H152337   0.733   1.383   0.812 -0.0305 -0.4331  1.3836
10282TIP3    H252338   0.716   1.468   0.935 -1.2151  1.7298 -0.2104
10283TIP3   OH252339   0.299   1.146  16.890  0.1271  0.3591 -0.5880
10283TIP3    H152340   0.339   1.179  16.971  1.5094 -0.3716 -0.9494
10283TIP3    H252341   0.218   1.197  16.881 -2.2300 -2.2033  3.3588
10284TIP3   OH252342   3.468   2.650   2.496 -0.0820  0.2974 -0.1714
10284TIP3    H152343   3.555   2.690   2.495 -0.2467  0.6672 -0.1289
10284TIP3    H252344   3.418   2.701   2.432 -1.2031  2.2614  2.1192
10285TIP3   OH252345   1.270   0.901  14.356 -0.1599 -1.0109 -0.0305
10285TIP3    H152346   1.253   0.993  14.378  1.8483 -0.5364 -0.2491
10285TIP3    H252347   1.275   0.900  14.260  0.7885 -1.1519  0.0173
10286TIP3   OH252348   5.450   3.796  13.203 -0.0859 -0.2426 -0.1852
10286TIP3    H152349   5.504   3.832  13.274  0.4199  3.1298 -2.0296
10286TIP3    H252350   5.501   3.815  13.124 -1.9765 -1.0918 -1.6660
10287TIP3   OH252351   1.886   1.725  14.489 -0.2520 -0.2617 -0.1677
10287TIP3    H152352   1.818   1.662  14.464  0.7835 -2.4885  2.2363
10287TIP3    H252353   1.888   1.721  14.584 -0.2446  3.6687  0.1391
10288TIP3   OH252354   0.253   4.060  11.846  0.1637 -0.1786 -0.2235
10288TIP3    H152355   0.336   4.026  11.879  1.1714 -0.8697 -3.1667
10288TIP3    H252356   0.278   4.137  11.794 -0.7400 -1.3106 -2.4781
10289TIP3   OH252357   5.365   6.283  13.494  0.6005  0.0282 -0.0225
10289TIP3    H152358   5.457   6.262  13.508  0.7446  0.2059 -0.6519
10289TIP3    H252359   5.343   6.239  13.412 -0.0718 -0.5896  0.4767
10290TIP3   OH252360   5.377   5.346   5.784  0.8864 -0.2609  0.0054
10290TIP3    H152361   5.405   5.296   5.861  1.1457 -0.1856 -0.0377
10290TIP3    H252362   5.286   5.369   5.802  1.0700  0.1185  0.4815
10291TIP3   OH252363   5.517   1.766  14.689  0.0012 -0.1037  0.4379
10291TIP3    H152364   5.552   1.855  14.688 -0.8437  0.3062  2.2225
10291TIP3    H252365   5.471   1.757  14.605 -0.1649  1.2581  0.3647
10292TIP3   OH252366   1.954   1.173  17.153 -0.3649  0.5019  0.3167
10292TIP3    H152367   1.871   1.207  17.187  0.0253  1.9346 -0.0988
10292TIP3    H252368   2.020   1.236  17.181  0.4048  0.0428 -0.4005
10293TIP3   OH252369   0.346   0.766   3.713  0.3029 -0.2722  0.0227
10293TIP3    H152370   0.299   0.812   3.783 -1.1793 -0.2670 -0.9244
10293TIP3    H252371   0.327   0.673   3.729  0.6300 -0.3276  0.0894
10294TIP3   OH252372   2.129   1.371   0.302  0.2265 -0.1765  0.6388
10294TIP3    H152373   2.063   1.439   0.286  0.2559  0.0109  1.2831
10294TIP3    H252374   2.104   1.332   0.385 -1.3701 -2.8349 -0.9340
10295TIP3   OH252375   6.362   2.943  14.080  0.3105 -0.4665  0.1191
10295TIP3    H152376   6.445   2.990  14.087 -0.0894  0.3084 -0.1994
10295TIP3    H252377   6.367   2.898  13.996  0.0539  0.2915 -0.3056
10296TIP3   OH252378   4.082   1.388   1.233  0.1017 -0.1282 -0.2174
10296TIP3    H152379   4.054   1.445   1.161 -0.2430  0.0370  0.0455
10296TIP3    H252380   4.167   1.423   1.260  0.6536 -0.7284 -1.1249
10297TIP3   OH252381   1.829   6.270   5.147  0.2233  0.2852 -0.4438
10297TIP3    H152382   1.817   6.275   5.241 -0.9099 -0.0234 -0.5558
10297TIP3    H252383   1.801   6.357   5.115 -0.2672  0.0882 -0.5651
10298TIP3   OH252384   5.710   3.595   3.903 -0.4355  0.1427 -0.2452
10298TIP3    H152385   5.796   3.619   3.937 -0.0705 -0.3651 -0.7962
10298TIP3    H252386   5.698   3.652   3.827 -0.4077 -0.0681 -0.4083
10299TIP3   OH252387   0.754   6.657   3.591 -0.0984 -0.2679  0.6615
10299TIP3    H152388   0.777   6.687   3.679  0.9506  1.0107 -0.0293
10299TIP3    H252389   0.683   6.715   3.564 -0.5965 -0.8274  0.7546
10300TIP3   OH252390   6.036   2.126   5.570  0.4867 -0.4914 -0.7291
10300TIP3    H152391   6.008   2.036   5.554 -1.0388  0.2686 -2.7435
10300TIP3    H252392   5.954   2.174   5.586  1.3606  0.3633  1.6819
10301TIP3   OH252393   2.208   3.754   4.659 -0.2206  0.0876 -0.0686
10301TIP3    H152394   2.295   3.716   4.653 -0.6897 -0.7821 -1.7844
10301TIP3    H252395   2.160   3.695   4.717  0.1089  0.1836  0.3087
10302TIP3   OH252396   6.072   4.261  12.065  0.1821  0.6898 -0.0064
10302TIP3    H152397   6.009   4.334  12.066  0.0483  0.5915 -0.7109
10302TIP3    H252398   6.117   4.270  11.981  0.4121  0.1718  0.0607
10303TIP3   OH252399   6.435   1.719  16.081  0.4980 -0.3121 -0.2262
10303TIP3    H152400   6.396   1.801  16.111  1.4891 -0.8190  2.7830
10303TIP3    H252401   6.383   1.651  16.123  1.1430 -1.1638 -0.7724
10304TIP3   OH252402   0.136   6.344   4.662  0.0880 -0.9241  0.0569
10304TIP3    H152403   0.230   6.350   4.680 -0.3300  1.0676  2.0171
10304TIP3    H252404   0.095   6.343   4.749 -1.7284 -1.9589 -0.7521
10305TIP3   OH252405   4.964   1.124  16.068 -0.9243  0.4186 -0.3389
10305TIP3    H152406   5.018   1.113  15.990 -1.7726  1.0569 -1.0304
10305TIP3    H252407   4.951   1.035  16.101  0.1013  0.2101 -0.4617
10306TIP3   OH252408   1.912   3.196  15.456  0.0939 -0.4356  0.2186
10306TIP3    H152409   1.870   3.157  15.379 -0.8195 -0.0699  0.5247
10306TIP3    H252410   1.892   3.134  15.527  0.5140 -0.5209  0.2631
10307TIP3   OH252411   6.759   4.007  13.708 -0.0194  0.6149 -0.3711
10307TIP3    H152412   6.664   4.005  13.719  0.0680  0.8127  0.4888
10307TIP3    H252413   6.777   3.946  13.637 -0.8830  1.3491 -1.2385
10308TIP3   OH252414   3.768   1.157   1.414 -0.2722  0.2992 -0.6642
10308TIP3    H152415   3.809   1.097   1.352  0.5138  1.6673 -1.5319
10308TIP3    H252416   3.727   1.224   1.359  0.3861  1.5188  0.2736
10309TIP3   OH252417   4.105   0.228  12.588  0.7186 -0.3380  0.0180
10309TIP3    H152418   4.086   0.177  12.666  0.7295  0.7795  0.7836
10309TIP3    H252419   4.084   0.318  12.613  1.4183  0.1394 -1.0316
10310TIP3   OH252420   4.133   3.447   4.335  0.0808  0.1800  0.4545
10310TIP3    H152421   4.043   3.480   4.326  0.7846  1.5591 -2.7253
10310TIP3    H252422   4.183   3.522   4.368  0.1992 -0.4279  1.7104
10311TIP3   OH252423   1.976   3.237   3.763  0.3591  0.2018 -0.0808
10311TIP3    H152424   1.972   3.198   3.676  1.7635 -0.9391  0.3247
10311TIP3    H252425   2.067   3.225   3.791  0.1844  1.4354  1.1497
10312TIP3   OH252426   4.241   2.690   1.367  0.3066 -0.0050  0.5769
10312TIP3    H152427   4.225   2.644   1.285  0.7908  0.9282 -0.0455
10312TIP3    H252428   4.258   2.781   1.342  3.1596 -0.1884  1.4227
10313TIP3   OH252429   6.438   1.159  15.460  0.3435  0.1536 -0.4777
10313TIP3    H152430   6.343   1.148  15.455  0.3812 -0.7425  0.4835
10313TIP3    H252431   6.473   1.095  15.398  0.3397  0.2300 -0.5604
10314TIP3   OH252432   6.455   0.700   2.280  0.0499  0.1835 -0.4758
10314TIP3    H152433   6.467   0.788   2.316  1.9390 -0.6639  1.1865
10314TIP3    H252434   6.504   0.700   2.198 -1.2212  1.0813 -1.2610
10315TIP3   OH252435   4.719   3.542  11.473  0.8420 -0.3242 -0.1351
10315TIP3    H152436   4.624   3.535  11.481  0.8104  0.5197  0.3306
10315TIP3    H252437   4.731   3.596  11.394  0.8225  2.3340  1.5641
10316TIP3   OH252438   2.224   2.459  16.998 -0.0648  0.0459  0.0827
10316TIP3    H152439   2.229   2.420  17.085  0.3150  0.2527  0.1534
10316TIP3    H252440   2.195   2.549  17.013 -0.8970 -0.1879 -0.0800
10317TIP3   OH252441   3.810   0.180  13.686  0.4623  0.3485  0.5440
10317TIP3    H152442   3.841   0.095  13.718 -0.4933  0.2244  1.1739
10317TIP3    H252443   3.720   0.163  13.658  1.0701  0.5557 -1.8069
10318TIP3   OH252444   6.510   0.468  11.148 -0.0334  0.0890 -0.2275
10318TIP3    H152445   6.569   0.480  11.223  1.6316  0.6430 -1.5680
10318TIP3    H252446   6.568   0.446  11.075 -1.4400  1.1491 -1.7331
10319TIP3   OH252447   5.838   5.172   3.806 -0.4473  0.6340  0.2897
10319TIP3    H152448   5.796   5.104   3.753  0.6980 -1.0741  1.4915
10319TIP3    H252449   5.767   5.209   3.858 -0.9153 -0.4592  0.4597
10320TIP3   OH252450   0.205   2.903   0.893  0.0123 -0.4264  0.0219
10320TIP3    H152451   0.273   2.880   0.830 -0.4634 -1.1584 -0.2441
10320TIP3    H252452   0.142   2.831   0.886 -1.1799  0.6238 -0.3061
10321TIP3   OH252453   4.447   1.133  15.240  0.3435  0.0279  0.6022
10321TIP3    H152454   4.447   1.180  15.323 -0.8778 -0.1874  0.7539
10321TIP3    H252455   4.403   1.192  15.179  0.7449 -0.0376  0.2453
10322TIP3   OH252456   4.041   5.786  13.789 -0.3700  0.1296 -0.2842
10322TIP3    H152457   4.136   5.799  13.785 -0.4949  1.1613 -0.1469
10322TIP3    H252458   4.014   5.828  13.870 -0.7261 -1.7499  0.6254
10323TIP3   OH252459   2.665   2.939   3.990 -0.2594 -0.1038 -0.2426
10323TIP3    H152460   2.616   2.870   3.945 -0.7224  0.3443 -0.4449
10323TIP3    H252461   2.731   2.967   3.927  0.4884 -0.9334  0.1495
10324TIP3   OH252462   6.032   5.162   2.166  0.0515 -0.3907 -0.3652
10324TIP3    H152463   5.942   5.137   2.186 -1.3287  2.0235 -2.8551
10324TIP3    H252464   6.053   5.230   2.230  0.0981 -0.9149  0.1811
10325TIP3   OH252465   3.532   0.676  12.411 -0.5385 -0.2295  0.2961
10325TIP3    H152466   3.593   0.640  12.347 -1.3855  0.3029 -0.8714
10325TIP3    H252467   3.466   0.721  12.357 -2.0921 -1.0062  1.4803
10326TIP3   OH252468   4.643   0.364  16.807  0.0258  0.3167 -0.2251
10326TIP3    H152469   4.608   0.322  16.886 -1.2278 -0.3584 -1.1066
10326TIP3    H252470   4.567   0.402  16.763  0.7919  1.2468 -0.7967
10327TIP3   OH252471   5.871   0.254  15.369  0.1717  0.6894 -0.1744
10327TIP3    H152472   5.846   0.265  15.461  0.0943  2.4719 -0.3717
10327TIP3    H252473   5.788   0.244  15.322  0.2178 -0.3618 -0.0490
10328TIP3   OH252474   0.467   6.244  16.886 -0.3299 -0.0605 -0.2368
10328TIP3    H152475   0.554   6.205  16.884 -0.0826  0.5027 -1.8364
10328TIP3    H252476   0.475   6.323  16.831 -1.4109  0.9351  0.9777
10329TIP3   OH252477   1.716   3.142  16.379 -0.9761  0.4931 -0.4503
10329TIP3    H152478   1.634   3.103  16.407 -2.2155  2.1682 -1.5361
10329TIP3    H252479   1.728   3.218  16.437  0.5818 -0.5083  0.6270
10330TIP3   OH252480   0.647   3.367   3.182 -0.5189  0.3502 -0.4911
10330TIP3    H152481   0.697   3.381   3.262  0.0037  0.8580 -0.9024
10330TIP3    H252482   0.609   3.280   3.193  1.8775 -0.8181 -0.9353
10331TIP3   OH252483   5.371   5.963   2.197 -0.5353  0.3647  0.3541
10331TIP3    H152484   5.354   5.906   2.272 -4.5778  0.6094 -0.1685
10331TIP3    H252485   5.398   6.046   2.236  1.8482 -0.7280  1.2512
10332TIP3   OH252486   5.839   3.565  12.758 -0.3516  0.0991 -0.8184
10332TIP3    H152487   5.867   3.532  12.672 -1.2360  1.6544 -1.7636
10332TIP3    H252488   5.839   3.488  12.815  2.1136 -0.6578 -1.6987
10333TIP3   OH252489   3.635   5.057  11.594 -0.0727  0.4492 -0.7984
10333TIP3    H152490   3.613   5.148  11.573 -1.7259  0.3422  0.2494
10333TIP3    H252491   3.683   5.062  11.677  1.8188  0.4827 -1.8304
10334TIP3   OH252492   3.726   2.465  11.592 -0.0226 -0.1345  0.4320
10334TIP3    H152493   3.699   2.417  11.514 -1.5891  0.5680  0.5026
10334TIP3    H252494   3.693   2.412  11.665 -1.3973  0.7793  0.5172
10335TIP3   OH252495   3.936   5.007  13.192 -0.1264 -0.2850  0.0830
10335TIP3    H152496   3.884   4.944  13.243 -0.5473 -0.1664 -0.1969
10335TIP3    H252497   3.977   4.955  13.124  2.2491 -0.8645  1.8321
10336TIP3   OH252498   5.031   0.021   0.862 -0.4604 -0.4231 -0.0165
10336TIP3    H152499   4.970  -0.051   0.845 -0.0059 -0.7340 -0.3713
10336TIP3    H252500   5.114  -0.009   0.824 -0.0243 -0.1115  0.6750
10337TIP3   OH252501   3.143   1.475  12.356 -0.6746  0.3447  0.3583
10337TIP3    H152502   3.152   1.404  12.293  0.9253  0.7845  0.0492
10337TIP3    H252503   3.048   1.483  12.370 -1.0419 -0.1010 -1.5797
10338TIP3   OH252504   6.486   1.329  14.812  0.3550 -0.6081 -0.0130
10338TIP3    H152505   6.515   1.414  14.779  1.9689 -0.5418  1.4090
10338TIP3    H252506   6.460   1.280  14.734  1.7719  0.3252 -1.1204
10339TIP3   OH252507   0.979   4.372   5.509  0.6576 -0.1432 -0.1830
10339TIP3    H152508   0.964   4.328   5.425  3.0995  1.6854 -1.7128
10339TIP3    H252509   1.033   4.311   5.559 -0.7031 -1.1873  0.0893
10340TIP3   OH252510   0.809   2.730   6.855 -0.4026 -0.4291  0.2334
10340TIP3    H152511   0.722   2.691   6.863 -0.9632  0.5665 -0.7300
10340TIP3    H252512   0.865   2.658   6.824 -0.6163 -1.3571  1.8907
10341TIP3   OH252513   0.888   6.197  14.731  0.7667 -0.2658  0.1017
10341TIP3    H152514   0.862   6.266  14.670 -2.2589 -0.1520  1.3426
10341TIP3    H252515   0.979   6.177  14.708  0.9950  2.4778 -1.8111
10342TIP3   OH252516   0.375   1.967   2.314  0.3327  0.3318  0.1561
10342TIP3    H152517   0.451   1.985   2.370  0.2194  0.2253  0.3429
10342TIP3    H252518   0.362   1.873   2.321 -0.5179  0.4912  1.0301
10343TIP3   OH252519   2.805   6.062  14.936  0.2347  0.1815  0.2133
10343TIP3    H152520   2.811   6.045  14.842 -1.0647  1.2435 -0.0932
10343TIP3    H252521   2.796   5.976  14.976  2.1967 -0.4045 -0.4698
10344TIP3   OH252522   5.877   6.587   3.847 -0.0297 -0.2716  1.0785
10344TIP3    H152523   5.906   6.659   3.904 -0.6436  0.4005  0.5583
10344TIP3    H252524   5.815   6.628   3.787  0.6364 -0.9607 -0.1003
10345TIP3   OH252525   2.572   2.233  14.731  0.2744  0.5432 -0.1536
10345TIP3    H152526   2.643   2.183  14.772  0.5629 -0.4348 -1.7705
10345TIP3    H252527   2.605   2.322  14.727  1.0272  0.2786 -0.0396
10346TIP3   OH252528   3.405   2.134  11.864  0.0541  0.2200 -0.1731
10346TIP3    H152529   3.377   2.170  11.949  2.1112  0.4634  0.4650
10346TIP3    H252530   3.460   2.059  11.887  0.9362  0.5107 -1.2610
10347TIP3   OH252531   1.906   4.588  13.956 -0.8133 -0.5151 -0.1149
10347TIP3    H152532   1.960   4.522  13.999 -0.4271 -1.2226 -1.6368
10347TIP3    H252533   1.968   4.648  13.916 -1.0922 -1.3775 -1.9454
10348TIP3   OH252534   4.060   3.824   1.780 -0.1690 -0.2278  0.1010
10348TIP3    H152535   4.068   3.887   1.851  2.0801 -0.7566  0.4056
10348TIP3    H252536   4.059   3.876   1.701 -2.4166  0.3548  0.4582
10349TIP3   OH252537   0.098   1.396   1.194 -0.1406  0.4164  0.0592
10349TIP3    H152538   0.015   1.355   1.216 -0.5166  1.1118 -0.0341
10349TIP3    H252539   0.152   1.384   1.272 -0.7023  0.9014  0.5382
10350TIP3   OH252540   5.841   2.748   1.824 -0.6645 -0.7525  0.2974
10350TIP3    H152541   5.849   2.741   1.728 -1.5022 -0.1451  0.1726
10350TIP3    H252542   5.747   2.756   1.839 -0.4711 -0.0130  1.1185
10351TIP3   OH252543   2.867   2.542   4.401 -0.0241  0.6936 -0.4907
10351TIP3    H152544   2.957   2.571   4.386  0.3782 -0.0993  0.2781
10351TIP3    H252545   2.876   2.455   4.439 -1.1800 -0.2430 -2.2115
10352TIP3   OH252546   5.313   5.881  10.900 -0.3725 -1.1604 -0.3570
10352TIP3    H152547   5.268   5.859  10.818 -1.1832  0.1009 -0.2669
10352TIP3    H252548   5.405   5.889  10.875 -0.7390  0.2631 -1.3810
10353TIP3   OH252549   4.687   0.944   4.107  0.2403 -0.2270  0.0533
10353TIP3    H152550   4.704   1.001   4.032  1.4600 -0.5989  0.0218
10353TIP3    H252551   4.774   0.913   4.134 -0.2935 -1.1682  0.7709
10354TIP3   OH252552   5.774   3.103  16.606  0.1749  0.4422  0.3018
10354TIP3    H152553   5.854   3.153  16.588  1.1185 -1.5513 -1.4845
10354TIP3    H252554   5.713   3.168  16.641  2.2663  2.2096  0.9364
10355TIP3   OH252555   3.445   3.940  12.341 -0.2146 -0.2760  0.7948
10355TIP3    H152556   3.382   3.879  12.303  0.0389 -0.4434  0.6404
10355TIP3    H252557   3.454   3.911  12.432  0.6700 -1.1106  0.4610
10356TIP3   OH252558   5.432   4.693   2.351 -0.6237 -0.2802  0.2157
10356TIP3    H152559   5.411   4.634   2.279 -1.6469  0.5113 -0.1663
10356TIP3    H252560   5.477   4.767   2.309  0.3138 -0.6014  0.6359
10357TIP3   OH252561   3.975   4.939  12.889 -0.0149 -0.1721  0.2984
10357TIP3    H152562   4.065   4.913  12.906  0.0867  0.4544  0.7490
10357TIP3    H252563   3.980   4.991  12.809  0.0002 -0.2574  0.2442
10358TIP3   OH252564   1.752   6.085  10.747 -0.3714 -0.4387 -0.1772
10358TIP3    H152565   1.716   6.005  10.786 -0.8510  0.8325  2.1772
10358TIP3    H252566   1.686   6.152  10.765  0.6336  0.7824 -0.8754
10359TIP3   OH252567   4.058   6.131   2.276 -0.0466  0.3583  0.2133
10359TIP3    H152568   4.094   6.126   2.364 -0.3920  0.9327  0.3929
10359TIP3    H252569   4.132   6.156   2.221  0.0709  0.4563  0.4125
10360TIP3   OH252570   3.538   2.236   1.645  0.1168 -0.1688 -0.2631
10360TIP3    H152571   3.551   2.203   1.556  2.4561 -0.4076  0.1077
10360TIP3    H252572   3.547   2.331   1.637  0.4419 -0.1991 -0.2698
10361TIP3   OH252573   5.751   3.629   1.452  0.1459 -0.1668 -0.0453
10361TIP3    H152574   5.777   3.538   1.440 -1.1340 -0.7283  1.1750
10361TIP3    H252575   5.800   3.677   1.386  1.9432 -1.5381  0.2250
10362TIP3   OH252576   4.574   2.656   1.183  0.7541 -0.4979 -0.3308
10362TIP3    H152577   4.593   2.639   1.276  0.8923 -4.1412 -0.8647
10362TIP3    H252578   4.486   2.621   1.170 -0.1027  1.8139 -1.2397
10363TIP3   OH252579   1.534   1.554   1.593  0.1140 -0.0920 -0.2056
10363TIP3    H152580   1.614   1.589   1.633  0.1045 -0.5314  0.2073
10363TIP3    H252581   1.564   1.478   1.543  0.0447  0.1357 -0.6039
10364TIP3   OH252582   0.604   1.611   4.107  0.0192  0.2719 -0.0307
10364TIP3    H152583   0.597   1.522   4.140 -1.9377  0.3860 -0.0423
10364TIP3    H252584   0.698   1.626   4.099  0.4189 -1.3567  1.1194
10365TIP3   OH252585   4.438   6.438   4.641  0.1529  0.2790  0.6389
10365TIP3    H152586   4.488   6.439   4.560 -1.2035  1.6546 -0.2298
10365TIP3    H252587   4.493   6.390   4.703  1.8371  0.4225 -0.6845
10366TIP3   OH252588   0.969   3.779   2.002 -0.3381 -0.3262  0.8906
10366TIP3    H152589   1.010   3.850   2.052  0.7213 -0.6137  0.4541
10366TIP3    H252590   1.039   3.715   1.990 -1.0412 -1.0329  0.4921
10367TIP3   OH252591   6.146   1.885  12.460 -0.0302  0.1245 -0.3723
10367TIP3    H152592   6.194   1.803  12.471 -0.0802  0.2110  0.5579
10367TIP3    H252593   6.214   1.950  12.441  0.1082  0.0298 -0.2102
10368TIP3   OH252594   2.037   2.578  13.341 -0.1722 -0.1537  0.1899
10368TIP3    H152595   2.036   2.635  13.265 -2.0652  0.5153  0.6713
10368TIP3    H252596   1.965   2.517  13.327 -1.0678  0.4722  1.7647
10369TIP3   OH252597   3.337   3.837  14.183 -0.2313 -0.6024 -0.2946
10369TIP3    H152598   3.277   3.849  14.258  1.0953  1.0715  0.5656
10369TIP3    H252599   3.404   3.777  14.215  0.4598  0.2873 -0.0299
10370TIP3   OH252600   5.551   4.627   0.510 -0.4791 -0.0784  0.2120
10370TIP3    H152601   5.610   4.611   0.436  0.4023  0.4988  0.7657
10370TIP3    H252602   5.495   4.699   0.481 -0.8073 -0.5168 -0.2572
10371TIP3   OH252603   0.068   2.450   1.878 -0.6058 -0.5481  0.4167
10371TIP3    H152604   0.057   2.372   1.823 -1.3637  0.3356 -0.7318
10371TIP3    H252605   0.162   2.466   1.879 -0.5340 -0.9200 -0.1260
10372TIP3   OH252606   3.705   2.458  17.075  0.2883  0.2087 -0.3648
10372TIP3    H152607   3.655   2.481  16.998 -2.2024 -0.6260  0.8893
10372TIP3    H252608   3.672   2.516  17.144 -0.8727 -2.0230  1.0831
10373TIP3   OH252609   4.268   2.563   2.658 -0.3637 -0.4675  0.7379
10373TIP3    H152610   4.337   2.532   2.717 -1.6638 -1.3041  1.8787
10373TIP3    H252611   4.301   2.544   2.571  0.7449 -1.0800  1.2694
10374TIP3   OH252612   6.243   1.583  16.210 -0.1721  0.2188 -0.1701
10374TIP3    H152613   6.156   1.560  16.178 -0.1834  1.0850 -0.8030
10374TIP3    H252614   6.228   1.624  16.295 -0.3739  0.3035 -0.2490
10375TIP3   OH252615   5.210   2.521  17.187 -0.8171 -0.4944  0.4297
10375TIP3    H152616   5.184   2.488  17.101  1.0242 -0.8604 -0.0321
10375TIP3    H252617   5.252   2.605  17.168 -0.2833 -0.6393  0.9473
10376TIP3   OH252618   0.585   0.396   4.534 -0.2485 -1.1387  0.7865
10376TIP3    H152619   0.491   0.387   4.518 -0.1850 -0.7904  0.2009
10376TIP3    H252620   0.617   0.448   4.460  0.3133 -0.7990  1.2659
10377TIP3   OH252621   6.420   3.741  14.917  0.0665 -0.9387  0.0026
10377TIP3    H152622   6.459   3.678  14.977 -1.0424  0.4292  2.3104
10377TIP3    H252623   6.343   3.697  14.882  0.0534 -1.3483  0.5428
10378TIP3   OH252624   2.307   1.775  15.148 -0.5484 -0.0902 -0.2716
10378TIP3    H152625   2.362   1.853  15.135 -0.1038 -0.6946 -2.4435
10378TIP3    H252626   2.253   1.796  15.223  0.1088  2.0142 -0.3227
10379TIP3   OH252627   4.324   5.526   4.556  0.8978 -0.3254 -0.1132
10379TIP3    H152628   4.365   5.525   4.643  1.1724 -0.1281 -0.2384
10379TIP3    H252629   4.231   5.512   4.573  0.4819  2.6142  0.4464
10380TIP3   OH252630   6.077   6.053   4.863  0.1071  0.8012 -0.0740
10380TIP3    H152631   6.115   6.140   4.872  1.4006  0.1584  1.1785
10380TIP3    H252632   6.040   6.034   4.950  0.5246 -0.1852 -0.0938
10381TIP3   OH252633   6.689   0.027  16.102  0.2355  0.0233 -0.1646
10381TIP3    H152634   6.700  -0.057  16.147 -2.9861 -1.2717 -1.4719
10381TIP3    H252635   6.675   0.003  16.010  0.4419  2.1061 -0.7832
10382TIP3   OH252636   2.978   6.218  12.477  0.1561  0.8561  0.0062
10382TIP3    H152637   2.966   6.261  12.562 -1.0991 -1.6969  1.2297
10382TIP3    H252638   3.067   6.183  12.480 -0.0603  0.3271  0.5373
10383TIP3   OH252639   5.734   2.183  15.696  0.0169  1.0059  0.2921
10383TIP3    H152640   5.784   2.263  15.680 -0.6810  1.8625  2.1951
10383TIP3    H252641   5.800   2.119  15.726  0.2797  1.5054  0.7917
10384TIP3   OH252642   2.957   4.418   4.932 -0.3496  0.6152  0.1163
10384TIP3    H152643   3.043   4.456   4.949  0.3994 -0.3354 -1.3383
10384TIP3    H252644   2.909   4.430   5.014  1.5998  0.0040  1.4449
10385TIP3   OH252645   2.192   3.029   1.304 -0.4333 -0.2779 -0.2284
10385TIP3    H152646   2.239   2.980   1.372  0.4787 -2.1703 -2.1081
10385TIP3    H252647   2.261   3.065   1.249 -1.1587 -0.8548 -1.5458
10386TIP3   OH252648   0.704   5.651  11.216 -0.1621  0.5564  0.1997
10386TIP3    H152649   0.715   5.745  11.205  1.9346  0.1897 -1.6454
10386TIP3    H252650   0.743   5.613  11.138 -0.1851 -1.8901  1.2756
10387TIP3   OH252651   0.107   2.495   0.444 -0.2054  0.3386  0.1744
10387TIP3    H152652   0.073   2.411   0.476  0.0854  0.0285 -0.3242
10387TIP3    H252653   0.041   2.526   0.382 -0.6789  0.8508  0.9117
10388TIP3   OH252654   6.227   4.270  12.516 -0.1667  0.4839 -0.1564
10388TIP3    H152655   6.311   4.244  12.478  0.6302  1.0661  1.1560
10388TIP3    H252656   6.230   4.237  12.605 -2.1346 -1.1352 -0.6068
10389TIP3   OH252657   2.080   5.395  16.063  0.1585 -0.0668  0.1924
10389TIP3    H152658   2.059   5.393  15.970  1.2611  1.2550 -0.1204
10389TIP3    H252659   2.003   5.435  16.104 -0.0474 -0.0091 -0.2458
10390TIP3   OH252660   1.337   5.840   2.867 -0.0209 -0.5347  0.2002
10390TIP3    H152661   1.264   5.841   2.929 -1.3165 -0.2916 -1.2643
10390TIP3    H252662   1.364   5.749   2.861  0.2260 -0.5370  1.2161
10391TIP3   OH252663   0.531   1.710   1.772  0.1404 -0.4761 -0.0046
10391TIP3    H152664   0.488   1.634   1.734  1.1131 -0.3107 -1.4870
10391TIP3    H252665   0.486   1.724   1.856 -0.8530 -1.9258 -0.2762
10392TIP3   OH252666   2.624   6.408   0.347 -0.2291  0.3086  0.0481
10392TIP3    H152667   2.534   6.379   0.362  0.0414 -0.3818  0.3829
10392TIP3    H252668   2.678   6.337   0.382  0.4447  0.2337 -1.0830
10393TIP3   OH252669   6.161   1.030   2.420  0.5365  0.0542 -0.8921
10393TIP3    H152670   6.223   1.075   2.478  0.3712 -1.7124  0.7686
10393TIP3    H252671   6.210   1.014   2.339  1.7512  0.0536 -0.1779
10394TIP3   OH252672   0.562   0.193   3.443  0.4362 -0.5535 -0.0752
10394TIP3    H152673   0.573   0.100   3.422  0.9841 -0.1385 -1.7645
10394TIP3    H252674   0.483   0.219   3.397  1.5314  0.3344 -1.5356
10395TIP3   OH252675   5.983   1.963  13.570 -0.3333  0.8273  0.3599
10395TIP3    H152676   6.029   1.968  13.654  0.6758  1.8921 -0.2312
10395TIP3    H252677   5.950   1.873  13.566  2.0006 -0.1339  0.6843
10396TIP3   OH252678   6.541   0.994   3.427  0.1787 -0.1565  0.3810
10396TIP3    H152679   6.611   0.944   3.470  1.6570  0.5390 -1.0764
10396TIP3    H252680   6.554   1.083   3.458  1.0765  0.2961 -1.1981
10397TIP3   OH252681   1.761   1.461  12.553  0.3564  0.0932  0.0392
10397TIP3    H152682   1.720   1.498  12.630  2.0701  0.0362  1.0429
10397TIP3    H252683   1.695   1.403  12.515 -0.8369  0.8495  0.9157
10398TIP3   OH252684   0.623   1.454  14.369  0.1491 -0.1352 -0.0969
10398TIP3    H152685   0.683   1.457  14.294 -0.0943  1.1676 -0.2665
10398TIP3    H252686   0.676   1.481  14.444 -0.0895  0.5195 -0.1585
10399TIP3   OH252687   4.035   5.335  14.275 -0.2837  0.3631  0.8461
10399TIP3    H152688   3.976   5.342  14.351 -1.7169 -2.0295  0.0770
10399TIP3    H252689   3.976   5.336  14.199  0.6914 -1.3709  0.0040
10400TIP3   OH252690   4.181   6.046  15.518  0.1592 -0.6819 -0.3587
10400TIP3    H152691   4.110   6.006  15.568  0.9153  0.2497  1.5376
10400TIP3    H252692   4.142   6.065  15.432 -2.2683  0.8722  0.9728
10401TIP3   OH252693   3.397   4.942  14.374 -0.7905 -0.0970  0.1977
10401TIP3    H152694   3.360   4.911  14.456  1.1315 -1.3301  0.6673
10401TIP3    H252695   3.491   4.948  14.391 -0.3601 -0.2597 -1.8593
10402TIP3   OH252696   2.238   1.896  10.869 -0.0562  0.1384  0.5368
10402TIP3    H152697   2.221   1.802  10.873 -0.6470  0.2148  0.0199
10402TIP3    H252698   2.154   1.936  10.891 -0.1552  0.5331 -0.5025
10403TIP3   OH252699   2.215   6.775   0.053  0.1543 -0.1610 -0.0661
10403TIP3    H152700   2.121   6.793   0.048 -0.6470 -3.1826  1.5692
10403TIP3    H252701   2.257   6.859   0.033 -2.8643  1.3777 -0.5036
10404TIP3   OH252702   2.747   5.154   6.402 -0.4940  0.1384 -0.0965
10404TIP3    H152703   2.808   5.227   6.415 -0.1347  0.3104 -2.3625
10404TIP3    H252704   2.687   5.185   6.334 -1.8012 -0.8402  0.5729
10405TIP3   OH252705   2.144   3.588   3.913 -0.1548 -0.1031 -0.3247
10405TIP3    H152706   2.059   3.559   3.944 -0.2153 -0.4895 -0.8389
10405TIP3    H252707   2.162   3.668   3.963 -0.5131 -0.3833  0.2648
10406TIP3   OH252708   3.464   2.605  14.222 -0.3671 -0.4618  0.1055
10406TIP3    H152709   3.474   2.513  14.200 -2.4669 -0.2118 -2.4272
10406TIP3    H252710   3.494   2.652  14.145  0.3598  0.9915  1.2227
10407TIP3   OH252711   0.306   4.179  16.082 -0.5502 -0.4250  0.1822
10407TIP3    H152712   0.339   4.090  16.094 -1.8687 -0.9593  0.0342
10407TIP3    H252713   0.230   4.185  16.141 -0.9276  0.3522 -0.3567
10408TIP3   OH252714   5.100   3.978   0.994  0.5416 -0.4416 -0.4714
10408TIP3    H152715   5.130   4.041   1.059  0.5213  0.1022 -0.9745
10408TIP3    H252716   5.102   3.894   1.038 -0.3084  0.0292  0.5044
10409TIP3   OH252717   4.623   3.769   2.631 -0.0639 -0.5116 -0.0859
10409TIP3    H152718   4.642   3.816   2.712  0.2782 -0.6675 -0.0704
10409TIP3    H252719   4.601   3.838   2.567  1.1305 -0.2575 -0.2568
10410TIP3   OH252720   1.208   3.224  11.752 -0.0670  0.2048 -0.1143
10410TIP3    H152721   1.242   3.309  11.723 -0.9031  0.2655 -0.9535
10410TIP3    H252722   1.241   3.214  11.841  2.5683  0.0479 -1.0112
10411TIP3   OH252723   0.490   1.882  12.955 -0.3268 -0.3093  0.7079
10411TIP3    H152724   0.547   1.959  12.959 -0.0800 -0.4150 -0.4333
10411TIP3    H252725   0.539   1.814  13.000  1.0870 -0.7549 -1.3444
10412TIP3   OH252726   5.309   0.275   0.852  0.5226  0.0954  0.5452
10412TIP3    H152727   5.289   0.366   0.829 -0.2882 -0.5960 -1.7679
10412TIP3    H252728   5.237   0.247   0.908  0.2351  0.5791  0.4226
10413TIP3   OH252729   1.540   2.391   1.830  0.6262  0.2943  0.6913
10413TIP3    H152730   1.527   2.320   1.893 -0.1579  0.6923  0.9831
10413TIP3    H252731   1.635   2.407   1.831  0.6762 -0.0179  1.4108
10414TIP3   OH252732   0.070   3.999   4.032 -0.0135  0.1796 -0.2947
10414TIP3    H152733   0.003   4.013   3.965 -1.6890 -0.6507  1.1312
10414TIP3    H252734   0.022   3.964   4.107  1.5009  2.5367  1.9610
10415TIP3   OH252735   5.793   6.812  11.474 -0.3142  0.0691 -0.3428
10415TIP3    H152736   5.749   6.883  11.520  0.5347  1.0484 -1.0128
10415TIP3    H252737   5.734   6.788  11.403 -0.9317 -0.3985  0.3210
10416TIP3   OH252738   5.488   3.651  16.705  0.7482 -0.1700 -0.2266
10416TIP3    H152739   5.513   3.559  16.694  0.3893 -0.5428  1.6962
10416TIP3    H252740   5.398   3.648  16.737  0.6947  0.8531 -0.2404
10417TIP3   OH252741   1.638   5.604  12.702  0.4323 -0.4749 -0.6322
10417TIP3    H152742   1.676   5.616  12.614 -1.2990 -0.1664 -1.3743
10417TIP3    H252743   1.596   5.518  12.698 -1.1751  0.2802 -0.7219
10418TIP3   OH252744   5.369   1.549  11.540  0.6024 -0.3987 -0.2992
10418TIP3    H152745   5.276   1.571  11.544 -0.3208 -3.7727  1.6488
10418TIP3    H252746   5.413   1.623  11.580 -1.3308  0.8691 -0.3624
10419TIP3   OH252747   5.774   0.039  12.397 -0.0643  0.1868  0.4277
10419TIP3    H152748   5.766  -0.018  12.473  1.9145  0.7168  1.0876
10419TIP3    H252749   5.720   0.116  12.419  0.2275  0.1872  1.1583
10420TIP3   OH252750   3.425   3.364   1.788 -0.0726  0.0040  0.0400
10420TIP3    H152751   3.440   3.458   1.801 -0.4196  0.1490 -0.5637
10420TIP3    H252752   3.449   3.324   1.871 -2.7482  0.9154  1.3380
10421TIP3   OH252753   0.609   1.443  11.841 -0.6205 -0.1141  0.5599
10421TIP3    H152754   0.617   1.406  11.753  0.8840  1.1272  0.1255
10421TIP3    H252755   0.642   1.375  11.900 -1.6414 -0.9534  0.1831
10422TIP3   OH252756   4.387   0.838  15.585 -0.8516  0.2958  0.0130
10422TIP3    H152757   4.425   0.841  15.497 -2.1182 -0.7742 -0.5898
10422TIP3    H252758   4.322   0.769  15.581 -0.7856  0.0853  1.8702
10423TIP3   OH252759   3.027   6.262   1.227  0.7492 -0.2884  0.0603
10423TIP3    H152760   2.976   6.212   1.163  2.3108  1.1192 -2.4676
10423TIP3    H252761   3.049   6.199   1.295 -2.5419 -1.4230  0.2425
10424TIP3   OH252762   0.543   4.253  16.871 -0.3158  0.9609 -0.6494
10424TIP3    H152763   0.464   4.304  16.851 -1.4825 -1.1087 -1.5566
10424TIP3    H252764   0.610   4.290  16.812 -0.6457  2.5077 -0.1142
10425TIP3   OH252765   4.913   3.090  14.015  0.0003  0.1406 -0.0755
10425TIP3    H152766   4.845   3.149  13.984 -0.1781 -0.6066 -1.1548
10425TIP3    H252767   4.870   3.005  14.021  0.1215  0.1832  1.9448
10426TIP3   OH252768   5.374   5.680  15.552  0.7518  0.3636  0.2820
10426TIP3    H152769   5.430   5.757  15.557  2.5524 -0.9194  0.9158
10426TIP3    H252770   5.431   5.611  15.519 -0.4418 -1.0407  1.0368
10427TIP3   OH252771   1.307   3.543  10.566  0.0215 -0.0176  1.2233
10427TIP3    H152772   1.378   3.497  10.610 -0.0135 -0.3258  0.9588
10427TIP3    H252773   1.278   3.609  10.629  0.6722  0.2440  1.2587
10428TIP3   OH252774   3.446   5.734   0.884  0.0281  0.4524  0.3436
10428TIP3    H152775   3.369   5.780   0.917  0.8761  1.1407  1.4333
10428TIP3    H252776   3.516   5.798   0.888  0.7389 -0.2515 -0.3417
10429TIP3   OH252777   2.703   5.526   5.883 -0.2302  0.4997 -0.7452
10429TIP3    H152778   2.763   5.462   5.845  1.3707  1.6818 -0.2792
10429TIP3    H252779   2.711   5.603   5.827 -0.6050  0.9962 -0.1206
10430TIP3   OH252780   2.014   3.275  13.010 -0.3980  0.3892  0.1817
10430TIP3    H152781   2.039   3.349  12.956 -0.1338  0.5947  0.5852
10430TIP3    H252782   1.927   3.298  13.044 -1.0728 -0.2270 -1.0367
10431TIP3   OH252783   4.127   2.272  10.521 -0.6007 -0.0893 -0.0658
10431TIP3    H152784   4.117   2.223  10.602 -0.3129  1.3110  0.8636
10431TIP3    H252785   4.222   2.271  10.503 -0.5470  0.3975  0.1575
10432TIP3   OH252786   2.469   2.165  10.892  0.4606  0.1008  0.1665
10432TIP3    H152787   2.396   2.223  10.871 -0.4838 -0.1846  2.3907
10432TIP3    H252788   2.518   2.212  10.960  0.2979 -1.2004  1.2238
10433TIP3   OH252789   1.780   1.616   5.920  0.3662  0.4027  0.2562
10433TIP3    H152790   1.782   1.694   5.976  1.3549  1.1958 -0.8341
10433TIP3    H252791   1.741   1.548   5.975  0.5892  1.3557  1.6435
10434TIP3   OH252792   3.979   4.409  10.494  0.3296  0.1807  0.1216
10434TIP3    H152793   3.904   4.408  10.552 -0.3376  0.6963 -0.7066
10434TIP3    H252794   4.036   4.339  10.527 -0.2394  0.1601  1.0957
10435TIP3   OH252795   3.310   1.446  13.424 -0.3781  0.1537 -0.1414
10435TIP3    H152796   3.356   1.400  13.494  0.2235  0.0583 -0.5915
10435TIP3    H252797   3.322   1.391  13.346 -2.3468 -0.5390 -0.0188
10436TIP3   OH252798   2.360   3.198  11.629  0.3220  0.8928 -0.2367
10436TIP3    H152799   2.374   3.233  11.541 -0.5112  0.5219 -0.5150
10436TIP3    H252800   2.269   3.218  11.649  0.1143 -0.2391 -0.0042
10437TIP3   OH252801   3.833   0.204  15.531  0.7841  0.4518 -0.5084
10437TIP3    H152802   3.922   0.187  15.561  1.1337  2.3449 -0.3408
10437TIP3    H252803   3.841   0.278  15.470 -0.8469  1.9375  0.9595
10438TIP3   OH252804   1.446   6.295  14.093 -0.2648  0.1569  0.3585
10438TIP3    H152805   1.536   6.273  14.113 -0.1315 -0.3953 -0.8157
10438TIP3    H252806   1.432   6.264  14.004 -1.9469 -0.7734  0.8967
10439TIP3   OH252807   5.070   3.895  14.579 -0.5661  0.0613 -0.0628
10439TIP3    H152808   5.153   3.848  14.580  0.1872  1.3080 -1.1150
10439TIP3    H252809   5.041   3.895  14.670  0.8709  0.0733  0.4142
10440TIP3   OH252810   3.980   2.442  17.097  0.6003  0.0214 -0.7471
10440TIP3    H152811   3.967   2.351  17.124 -0.5913  0.2192 -0.6280
10440TIP3    H252812   3.893   2.474  17.074  1.0486  1.0361 -1.1198
10441TIP3   OH252813   1.874   4.329   1.073  0.5055  0.1649 -0.1973
10441TIP3    H152814   1.959   4.351   1.034  1.2865 -2.3228 -0.0947
10441TIP3    H252815   1.856   4.240   1.042 -1.2672  0.0026  1.1298
10442TIP3   OH252816   3.486   6.420   2.025  0.2252  0.3941  0.1584
10442TIP3    H152817   3.573   6.382   2.043  0.5064  0.9974  0.0996
10442TIP3    H252818   3.443   6.421   2.111  0.3293  0.2157  0.2133
10443TIP3   OH252819   5.436   1.911   1.999 -0.6784 -0.2454  0.0070
10443TIP3    H152820   5.454   1.819   1.981  0.2458  0.0919 -0.9477
10443TIP3    H252821   5.505   1.937   2.061 -1.0908 -0.2491  0.4758
10444TIP3   OH252822   2.418   1.413  13.536  0.5368 -0.0785 -0.1929
10444TIP3    H152823   2.495   1.356  13.529 -0.2713 -1.4275  1.1717
10444TIP3    H252824   2.364   1.389  13.461  0.9774  0.1002 -0.5645
10445TIP3   OH252825   3.575   1.034   0.524 -0.4353  0.3491 -0.5076
10445TIP3    H152826   3.626   1.095   0.471 -0.7558  1.2976  0.2564
10445TIP3    H252827   3.585   0.950   0.479  0.7121  0.7774 -1.1032
10446TIP3   OH252828   0.200   3.040  15.773 -0.1134 -0.2209 -0.5607
10446TIP3    H152829   0.286   3.013  15.806  0.0997 -0.1269 -1.0295
10446TIP3    H252830   0.220   3.093  15.696 -0.6130 -0.8069 -1.1021
10447TIP3   OH252831   3.450   4.190   2.657 -0.2261 -0.3337  0.5472
10447TIP3    H152832   3.436   4.115   2.599 -0.3235  0.9772 -1.2161
10447TIP3    H252833   3.376   4.248   2.640  0.5288  0.7635  0.8719
10448TIP3   OH252834   0.409   5.289  16.601  0.0987 -0.2525  0.4507
10448TIP3    H152835   0.380   5.256  16.515  0.9114  0.8186 -0.2574
10448TIP3    H252836   0.483   5.346  16.581 -0.4894  1.0345  1.7544
10449TIP3   OH252837   0.768   2.497   0.898 -0.4256 -0.4448  0.2218
10449TIP3    H152838   0.774   2.518   0.991 -1.2187 -1.8980  0.6361
10449TIP3    H252839   0.853   2.522   0.862  0.5684 -1.5103  1.6909
10450TIP3   OH252840   5.382   4.698  14.037 -0.5584 -0.0264  0.4088
10450TIP3    H152841   5.477   4.685  14.038 -0.5085  0.2801  0.0806
10450TIP3    H252842   5.371   4.789  14.009 -1.0014 -1.0490 -3.2022
10451TIP3   OH252843   1.905   3.427   2.386 -0.6017 -0.5287  0.5473
10451TIP3    H152844   1.965   3.472   2.326 -1.6072  0.2522  0.1072
10451TIP3    H252845   1.935   3.453   2.474  0.8001 -1.5781  0.4240
10452TIP3   OH252846   4.331   5.384   3.003  0.0634 -0.3568  0.2835
10452TIP3    H152847   4.397   5.347   3.062  0.4509  0.7545  0.5647
10452TIP3    H252848   4.278   5.441   3.059 -1.6551 -1.8191  0.2338
10453TIP3   OH252849   1.059   5.096   4.232 -0.4894 -0.0776 -0.2436
10453TIP3    H152850   0.979   5.078   4.182 -0.9738 -0.2007  0.5518
10453TIP3    H252851   1.045   5.183   4.269  0.3196  0.4607 -1.1723
10454TIP3   OH252852   3.578   3.648   5.969 -0.3382  0.5881 -0.0804
10454TIP3    H152853   3.557   3.588   6.041 -0.2877  0.2185 -0.3745
10454TIP3    H252854   3.673   3.643   5.961 -0.4347 -0.1794 -0.8727
10455TIP3   OH252855   0.024   5.264   1.545 -0.6143 -0.1109  0.0297
10455TIP3    H152856   0.119   5.269   1.557 -0.6368 -0.6089  0.4130
10455TIP3    H252857   0.012   5.203   1.472 -0.6097  0.6173 -0.5951
10456TIP3   OH252858   4.442   4.535   4.129  0.1251  0.6029  0.2122
10456TIP3    H152859   4.350   4.550   4.152  0.1528  0.3249  0.5122
10456TIP3    H252860   4.443   4.535   4.033  0.2189  3.0441  0.1549
10457TIP3   OH252861   3.074   5.164   3.466  0.4067  0.6320  0.1436
10457TIP3    H152862   3.098   5.242   3.518  1.6140 -0.8596  1.9518
10457TIP3    H252863   2.999   5.128   3.512  0.2334  0.3979 -0.3263
10458TIP3   OH252864   4.519   0.273  14.761  0.0553  0.3716 -0.1661
10458TIP3    H152865   4.589   0.337  14.750  0.9681 -0.7395 -1.0941
10458TIP3    H252866   4.478   0.268  14.675 -0.6605  0.4395  0.1693
10459TIP3   OH252867   3.291   0.936   3.720 -0.6831 -0.0570  0.1680
10459TIP3    H152868   3.215   0.975   3.676 -0.8247 -0.0476  0.4181
10459TIP3    H252869   3.288   0.844   3.695 -1.0968 -0.1693  0.6214
10460TIP3   OH252870   2.944   6.466  15.669 -0.1998 -0.1195  0.0242
10460TIP3    H152871   2.900   6.451  15.585  1.1098 -1.5654 -0.4712
10460TIP3    H252872   3.027   6.419  15.660  1.2008  1.9759  1.1198
10461TIP3   OH252873   5.868   3.397   4.227  0.2333  0.2635 -0.0135
10461TIP3    H152874   5.815   3.464   4.269  2.5844  0.4795  2.8477
10461TIP3    H252875   5.899   3.342   4.298  1.8731 -1.3202 -1.8260
10462TIP3   OH252876   5.370   2.918  16.004 -0.4698  1.1777  0.0941
10462TIP3    H152877   5.402   2.867  16.078 -1.3995 -0.1587 -0.3770
10462TIP3    H252878   5.438   2.984  15.989  0.9404 -0.0935  0.5729
10463TIP3   OH252879   2.061   5.334  15.797 -0.5423 -0.3477  0.2502
10463TIP3    H152880   2.007   5.401  15.755 -2.1136 -1.4159  0.4482
10463TIP3    H252881   2.148   5.345  15.760 -1.2225  0.5456 -1.1499
10464TIP3   OH252882   5.470   2.047   5.955  0.2335  0.1950 -0.4979
10464TIP3    H152883   5.454   2.127   5.905 -0.1720  2.1409  2.5335
10464TIP3    H252884   5.395   1.991   5.935 -1.5432  2.1866  0.2707
10465TIP3   OH252885   5.577   5.084   4.947 -0.7066 -0.3954 -0.3002
10465TIP3    H152886   5.483   5.077   4.932 -0.7140 -1.2631  0.1140
10465TIP3    H252887   5.613   5.003   4.912 -0.4292 -1.3291  1.9834
10466TIP3   OH252888   1.728   6.589   6.071 -0.1052  0.0558 -0.2985
10466TIP3    H152889   1.770   6.620   6.152  1.0732  2.7437 -1.7958
10466TIP3    H252890   1.661   6.655   6.052 -0.2888 -0.4587 -1.5355
10467TIP3   OH252891   6.027   4.427   3.646  0.3517  0.1092 -0.1799
10467TIP3    H152892   6.055   4.398   3.733 -0.6309 -0.6358 -0.0862
10467TIP3    H252893   6.107   4.431   3.594  0.7089 -1.5014  0.1908
10468TIP3   OH252894   3.639   4.255  13.321 -0.2279  0.7654  0.1840
10468TIP3    H152895   3.545   4.237  13.314 -0.1476  0.5060 -0.2323
10468TIP3    H252896   3.681   4.181  13.277  0.2114  0.3476  1.2662
10469TIP3   OH252897   2.870   3.844   3.076  0.0867 -0.3253 -0.2967
10469TIP3    H152898   2.888   3.866   2.985 -1.6959  1.5968 -0.2670
10469TIP3    H252899   2.776   3.860   3.087 -0.2385 -2.7630  1.3098
10470TIP3   OH252900   5.644   3.551  13.192  0.1510  0.0287  0.1918
10470TIP3    H152901   5.675   3.587  13.275  1.0593  0.9013 -0.5019
10470TIP3    H252902   5.642   3.626  13.132 -0.6415 -0.5525 -0.5368
10471TIP3   OH252903   3.688   5.631   0.420  0.1842 -0.1329 -0.5862
10471TIP3    H152904   3.784   5.630   0.427  0.2370  1.1317 -0.8369
10471TIP3    H252905   3.659   5.559   0.476  1.3725 -2.3114 -2.5630
10472TIP3   OH252906   4.107   5.730   3.647  0.4211 -0.2686 -0.6982
10472TIP3    H152907   4.085   5.708   3.738 -0.2083  0.7208 -0.5932
10472TIP3    H252908   4.032   5.699   3.596  0.2687  0.1514 -0.7383
10473TIP3   OH252909   4.562   5.458   5.312 -0.2663  0.1348  0.3515
10473TIP3    H152910   4.517   5.375   5.294 -0.0539 -0.2024  1.3250
10473TIP3    H252911   4.546   5.474   5.405  0.2912  0.8226  0.3339
10474TIP3   OH252912   3.662   5.512   4.147 -0.0453 -0.0995 -0.0231
10474TIP3    H152913   3.719   5.503   4.224 -0.3890 -0.9348  0.1447
10474TIP3    H252914   3.652   5.607   4.136 -0.2215  0.0436  1.1431
10475TIP3   OH252915   1.532   5.430  15.609 -0.3533  0.1245 -0.1586
10475TIP3    H152916   1.549   5.431  15.703 -0.7149 -0.9773 -0.0738
10475TIP3    H252917   1.611   5.392  15.571 -0.5507 -0.2211 -0.2238
10476TIP3   OH252918   1.325   5.647   6.668 -0.7373 -0.2199 -0.2718
10476TIP3    H152919   1.252   5.616   6.615 -0.0448 -2.6763  0.0676
10476TIP3    H252920   1.325   5.590   6.745  0.1223  1.2761  0.9073
10477TIP3   OH252921   5.965   5.800   6.494 -0.0942  0.2458  0.1630
10477TIP3    H152922   6.059   5.811   6.509 -0.3281 -0.3534  2.5787
10477TIP3    H252923   5.931   5.889   6.483  0.8945  0.3948 -2.0749
10478TIP3   OH252924   2.826   6.097  13.015 -0.4728 -0.0603 -0.1616
10478TIP3    H152925   2.907   6.064  12.977  0.1294 -0.0582  1.0816
10478TIP3    H252926   2.788   6.151  12.945  0.5027 -0.1867 -0.8194
10479TIP3   OH252927   5.364   1.212  15.447 -0.0787  0.1761  0.0587
10479TIP3    H152928   5.363   1.283  15.511  0.4651 -0.8033  1.1999
10479TIP3    H252929   5.276   1.212  15.410 -1.0380 -0.3904  2.1844
10480TIP3   OH252930   2.959   1.282   4.871  0.3300 -0.5410  0.3904
10480TIP3    H152931   2.999   1.197   4.887  1.4963 -0.0803 -0.0249
10480TIP3    H252932   2.973   1.299   4.778  0.1150  0.1059  0.4657
10481TIP3   OH252933   0.619   1.986   3.941  0.2029  0.7483 -0.0132
10481TIP3    H152934   0.603   2.041   4.018  0.8080 -1.1055  1.5011
10481TIP3    H252935   0.698   1.937   3.963 -0.6123 -1.1150 -1.0506
10482TIP3   OH252936   0.039   6.199   5.396  0.1032 -0.5185 -0.8256
10482TIP3    H152937   0.007   6.214   5.485 -0.0395 -0.3822 -0.8997
10482TIP3    H252938   0.116   6.256   5.389  2.1064 -2.8852  0.3099
10483TIP3   OH252939   0.690   2.438  17.005  0.2517  0.0766  0.1130
10483TIP3    H152940   0.620   2.472  16.948 -1.1187  0.9996  2.1992
10483TIP3    H252941   0.652   2.441  17.093  2.2998 -1.2061  1.1073
10484TIP3   OH252942   1.406   6.635  14.199 -0.3610  0.0153 -0.0570
10484TIP3    H152943   1.389   6.714  14.249 -0.8576 -0.2813  0.2441
10484TIP3    H252944   1.437   6.571  14.264 -2.5232 -0.8754  0.1833
10485TIP3   OH252945   6.129   5.345   0.041  0.0420 -0.6057  0.7126
10485TIP3    H152946   6.212   5.353  -0.005 -0.0872  0.4231  0.6498
10485TIP3    H252947   6.086   5.430   0.031 -0.8791 -1.0126  1.0161
10486TIP3   OH252948   5.325   0.902  14.250 -0.0866  0.2387  0.0245
10486TIP3    H152949   5.403   0.850  14.232 -0.1476  0.1935 -0.1069
10486TIP3    H252950   5.358   0.991  14.263  0.2928 -0.1710  2.4158
10487TIP3   OH252951   0.567   5.554  14.259 -0.0542  0.5971 -0.4025
10487TIP3    H152952   0.525   5.469  14.243 -0.6653  0.7301  0.4187
10487TIP3    H252953   0.531   5.583  14.343  2.7534  0.0681  1.1298
10488TIP3   OH252954   4.563   1.841  11.483  0.5281 -0.8562  0.6094
10488TIP3    H152955   4.502   1.829  11.410 -2.6810  2.9899  2.2671
10488TIP3    H252956   4.509   1.829  11.561  2.1060  1.5236  2.2045
10489TIP3   OH252957   3.409   6.438   3.254 -0.0509  0.5355 -0.1193
10489TIP3    H152958   3.328   6.414   3.208 -0.9474  1.7512  0.7616
10489TIP3    H252959   3.393   6.410   3.344  0.6062  0.5806  0.0104
10490TIP3   OH252960   6.667   6.469  17.173 -0.4915  0.4370 -0.2365
10490TIP3    H152961   6.632   6.553  17.143 -0.4065  0.6609  0.2774
10490TIP3    H252962   6.750   6.492  17.215 -1.1502  0.2798  1.1827
10491TIP3   OH252963   5.313   3.577  10.850  0.1214 -0.3833 -0.2120
10491TIP3    H152964   5.355   3.626  10.779 -0.8405 -0.4796 -0.8678
10491TIP3    H252965   5.344   3.487  10.839  0.8657 -0.1831  0.1962
10492TIP3   OH252966   5.163   5.562  11.502 -0.0174  0.3011  0.3108
10492TIP3    H152967   5.161   5.636  11.563  2.5365 -0.0717  0.9782
10492TIP3    H252968   5.250   5.568  11.461 -0.5835 -1.1248 -1.2010
10493TIP3   OH252969   0.245   2.900  13.281 -0.3108  0.0855 -0.9107
10493TIP3    H152970   0.163   2.853  13.267 -0.6288  0.2493  0.3031
10493TIP3    H252971   0.246   2.919  13.375  1.5910 -0.7655 -0.7326
10494TIP3   OH252972   6.311   4.574   4.324  0.3293  0.0371 -0.2762
10494TIP3    H152973   6.394   4.598   4.365  0.2633 -0.0156 -0.1136
10494TIP3    H252974   6.293   4.645   4.262 -0.0296  0.5748  0.4337
10495TIP3   OH252975   0.979   4.459   0.964 -0.6926 -0.4486 -0.0776
10495TIP3    H152976   0.917   4.526   0.935  1.4311  1.6719 -0.0168
10495TIP3    H252977   0.999   4.482   1.054  1.8840  0.4012 -0.7784
10496TIP3   OH252978   2.489   6.722   3.651 -0.4762  0.3795  0.0807
10496TIP3    H152979   2.495   6.779   3.727  0.8603  0.3132  0.0546
10496TIP3    H252980   2.576   6.683   3.643 -0.7390 -0.0170 -1.1656
10497TIP3   OH252981   6.757   5.262   5.834  0.1904  0.3188 -0.2913
10497TIP3    H152982   6.684   5.316   5.865 -1.3031 -1.4016 -0.6949
10497TIP3    H252983   6.719   5.175   5.821  2.1318 -0.4202 -1.3227
10498TIP3   OH252984   4.733   4.609  14.218 -0.2894 -0.2250 -0.1211
10498TIP3    H152985   4.681   4.536  14.251  1.9915 -0.7820  2.5677
10498TIP3    H252986   4.824   4.586  14.239  0.8403  1.9558 -2.0990
10499TIP3   OH252987   1.087   1.412  12.206  0.3164  0.2494 -0.6724
10499TIP3    H152988   1.117   1.321  12.212 -0.2905 -0.1746 -3.0486
10499TIP3    H252989   1.081   1.429  12.112 -1.3177  2.1646 -0.2817
10500TIP3   OH252990   4.221   2.866  14.535  0.1006 -0.1053  0.1686
10500TIP3    H152991   4.176   2.868  14.619  2.2923 -2.4384  1.5307
10500TIP3    H252992   4.309   2.897  14.554  0.0479  1.5086 -1.8008
10501TIP3   OH252993   5.307   1.887  11.827 -0.3059  0.6794  0.4160
10501TIP3    H152994   5.231   1.831  11.845  0.7119 -0.4669  1.3217
10501TIP3    H252995   5.292   1.965  11.881 -0.6235  0.2523  0.9646
10502TIP3   OH252996   3.350   3.378  16.321 -0.2839 -0.1332  0.4054
10502TIP3    H152997   3.264   3.407  16.289 -0.0365  0.4438  0.2604
10502TIP3    H252998   3.345   3.391  16.415  0.5904  2.5113  0.1548
10503TIP3   OH252999   6.721   1.616   2.906 -0.4241  0.0735 -0.2404
10503TIP3    H153000   6.627   1.600   2.913 -0.4796  0.0174 -1.0316
10503TIP3    H253001   6.760   1.554   2.968 -0.9687  1.0365  1.1035
10504TIP3   OH253002   2.046   5.367   1.571  0.0349  0.2328  0.5876
10504TIP3    H153003   1.972   5.377   1.511 -0.1172  0.2091  0.7731
10504TIP3    H253004   2.037   5.278   1.605 -0.6047  0.6711  1.6201
10505TIP3   OH253005   2.645   0.735  14.480 -0.1504  0.4823 -0.4431
10505TIP3    H153006   2.610   0.649  14.501  0.2220  0.4042 -0.1331
10505TIP3    H253007   2.663   0.731  14.386  0.2404  0.0867 -0.3546
10506TIP3   OH253008   4.503   4.904   0.197 -0.2646 -0.0422 -0.0441
10506TIP3    H153009   4.520   4.980   0.142 -0.3028  0.8324  1.1207
10506TIP3    H253010   4.569   4.909   0.266 -0.7248 -0.6702  0.4500
10507TIP3   OH253011   2.644   2.441   1.021  0.1794 -0.1249  0.7372
10507TIP3    H153012   2.592   2.361   1.020  0.0624 -0.0519 -0.2029
10507TIP3    H253013   2.658   2.460   1.113  1.1052 -1.8052  0.9848
10508TIP3   OH253014   5.971   0.046   3.240 -0.3302 -0.2935 -0.2215
10508TIP3    H153015   5.946   0.021   3.151 -0.1662  0.9337 -0.6301
10508TIP3    H253016   5.900   0.102   3.270  0.9290  1.6498 -0.6807
10509TIP3   OH253017   3.898   0.391  15.322  0.7120 -0.1234 -0.3967
10509TIP3    H153018   3.882   0.486  15.319  1.0710  0.0126  1.1646
10509TIP3    H253019   3.991   0.382  15.303  0.5422 -0.2276 -1.2037
10510TIP3   OH253020   4.505   1.259  13.776  0.2937  0.2133  0.2949
10510TIP3    H153021   4.508   1.235  13.868 -0.6420 -0.9524  0.0563
10510TIP3    H253022   4.538   1.348  13.772  3.0191 -0.6728  1.3987
10511TIP3   OH253023   3.717   3.829   1.940 -0.1023  0.4719  0.2528
10511TIP3    H153024   3.803   3.794   1.959  0.2264  1.2740  0.2891
10511TIP3    H253025   3.721   3.855   1.848 -0.5961 -0.2978  0.0058
10512TIP3   OH253026   1.032   4.054   0.455 -0.0274 -0.0628 -0.0239
10512TIP3    H153027   1.024   4.116   0.528  0.9372 -0.1638  0.1859
10512TIP3    H253028   0.942   4.032   0.431 -0.3534  0.1913  0.9482
10513TIP3   OH253029   2.164   3.049   2.234  0.8540  0.1973  0.2079
10513TIP3    H153030   2.076   3.042   2.199  0.2308  2.3784  1.1459
10513TIP3    H253031   2.211   2.974   2.198 -1.0903 -0.4451 -1.1263
10514TIP3   OH253032   4.793   6.815  15.206 -0.0714  0.0167 -0.0543
10514TIP3    H153033   4.766   6.907  15.216  1.4783  0.7931 -2.1712
10514TIP3    H253034   4.867   6.805  15.266 -0.7891 -0.1314  0.8234
10515TIP3   OH253035   2.311   6.663   0.681  0.3767  0.1303  0.3356
10515TIP3    H153036   2.265   6.744   0.659 -1.1495 -0.6571  0.4979
10515TIP3    H253037   2.286   6.645   0.772  0.5463 -0.6174  0.2398
10516TIP3   OH253038   0.156   5.793  13.956  0.1617  0.2758  0.1078
10516TIP3    H153039   0.196   5.709  13.930 -0.9322 -0.3757  0.4819
10516TIP3    H253040   0.217   5.829  14.020  0.8634 -0.0291 -0.3717
10517TIP3   OH253041   3.904   1.240   0.243  0.0868 -0.6993  0.0509
10517TIP3    H153042   3.823   1.243   0.293  0.2742  1.0954  0.3059
10517TIP3    H253043   3.925   1.332   0.225  1.7139 -1.1511 -0.5686
10518TIP3   OH253044   4.476   6.684   0.857 -0.4008 -0.0735 -0.0840
10518TIP3    H153045   4.538   6.612   0.851 -1.1954 -0.8084  0.3938
10518TIP3    H253046   4.399   6.647   0.898 -0.8841  1.0184  0.0412
10519TIP3   OH253047   4.862   6.121   2.818  0.0870 -0.3151  0.4361
10519TIP3    H153048   4.852   6.203   2.867  1.8713  1.2493 -1.5896
10519TIP3    H253049   4.914   6.065   2.874 -1.5586 -0.3229  2.0676
10520TIP3   OH253050   1.212   2.549  16.637 -0.5503  0.4829 -0.3978
10520TIP3    H153051   1.276   2.608  16.599  0.6927  0.6726  1.8009
10520TIP3    H253052   1.143   2.607  16.670 -0.2668  0.5792  0.0476
10521TIP3   OH253053   3.463   3.154   4.849 -0.0921  0.6921  0.4347
10521TIP3    H153054   3.377   3.112   4.846 -1.3844  3.2098 -1.1875
10521TIP3    H253055   3.463   3.213   4.774  3.3082  0.4088  0.0702
10522TIP3   OH253056   5.729   4.357   3.465 -0.1672 -0.2113  0.4674
10522TIP3    H153057   5.776   4.352   3.382 -0.3091 -0.6606  0.4149
10522TIP3    H253058   5.771   4.430   3.512 -0.5786  0.5433 -0.3066
10523TIP3   OH253059   4.522   0.272   5.352  0.3512  0.9657  0.2586
10523TIP3    H153060   4.613   0.242   5.361  0.2433  0.4350 -0.3052
10523TIP3    H253061   4.523   0.363   5.382  0.8973  0.7047  1.0460
10524TIP3   OH253062   3.757   1.792   6.147 -0.8330 -0.0211  0.2935
10524TIP3    H153063   3.733   1.884   6.137  2.2978  0.8426 -0.3098
10524TIP3    H253064   3.759   1.777   6.242 -1.1944  0.5906  0.3990
10525TIP3   OH253065   4.800   2.980  13.638 -0.3436  0.2406 -0.0006
10525TIP3    H153066   4.728   3.028  13.679  0.1273  0.2975  0.7868
10525TIP3    H253067   4.840   2.930  13.709 -1.5097 -2.2653 -0.9819
10526TIP3   OH253068   5.086   5.981  15.085 -0.1995  0.0160 -0.1185
10526TIP3    H153069   5.150   5.948  15.021 -1.4144 -0.2003 -1.2732
10526TIP3    H253070   5.100   6.076  15.085 -1.1170  0.1917 -1.8224
10527TIP3   OH253071   0.731   2.918  13.038 -0.2322  0.1708  0.5000
10527TIP3    H153072   0.653   2.891  13.087 -0.6332 -0.5359 -0.4820
10527TIP3    H253073   0.709   3.005  13.005 -0.1434  0.4555  1.1817
10528TIP3   OH253074   4.507   6.226   0.716 -0.5808  0.2275 -0.2767
10528TIP3    H153075   4.433   6.215   0.656 -0.4123 -0.0062 -0.4437
10528TIP3    H253076   4.499   6.152   0.776 -2.0728  1.6752  1.4242
10529TIP3   OH253077   2.655   4.862   1.957 -0.2691  0.3460  0.7779
10529TIP3    H153078   2.591   4.925   1.924  0.3731  0.4065 -0.4150
10529TIP3    H253079   2.638   4.858   2.051 -2.8084 -0.5120  0.3738
10530TIP3   OH253080   0.293   3.513  13.153  0.3450  0.1381 -0.1311
10530TIP3    H153081   0.267   3.491  13.063 -1.5905 -1.7265  0.7912
10530TIP3    H253082   0.342   3.436  13.183 -0.4700  0.0147  0.9291
10531TIP3   OH253083   1.366   5.049   5.230 -0.1734 -0.0649 -0.1087
10531TIP3    H153084   1.387   4.970   5.280  0.8672  0.7276  0.7495
10531TIP3    H253085   1.394   5.029   5.141  0.4952 -0.5038  0.1945
10532TIP3   OH253086   3.838   1.350  12.194 -0.0989 -0.0536  0.3066
10532TIP3    H153087   3.857   1.433  12.239  0.3490  0.9447 -1.6156
10532TIP3    H253088   3.923   1.320  12.162 -0.6152  0.1553 -1.3074
10533TIP3   OH253089   2.412   0.927   5.825 -0.1791  0.0703 -0.0883
10533TIP3    H153090   2.431   0.865   5.755  1.6026  0.7323 -0.2418
10533TIP3    H253091   2.451   0.888   5.903  1.4635  1.1946 -0.2917
10534TIP3   OH253092   6.568   0.188  16.754 -0.6418  0.0097 -0.0389
10534TIP3    H153093   6.513   0.128  16.803 -2.0404  0.8969 -0.4644
10534TIP3    H253094   6.574   0.150  16.666  1.3607 -1.2622  0.5795
10535TIP3   OH253095   6.461   3.247   5.910  0.1037 -0.3122 -0.1806
10535TIP3    H153096   6.507   3.235   5.993 -1.0057 -1.1056  0.3409
10535TIP3    H253097   6.377   3.285   5.934  0.6759  1.7812 -1.1825
10536TIP3   OH253098   5.989   4.132   3.020 -0.6180 -0.5678 -0.2437
10536TIP3    H153099   5.938   4.190   2.963  2.9045  1.5052 -1.6453
10536TIP3    H253100   6.036   4.075   2.959  0.4622 -0.8490  0.8263
10537TIP3   OH253101   3.671   1.249   5.530  0.4786 -0.0841  0.0732
10537TIP3    H153102   3.603   1.306   5.496  1.6230  0.6791 -1.0182
10537TIP3    H253103   3.670   1.265   5.625 -0.2795  0.5456 -0.0263
10538TIP3   OH253104   6.429   5.333   0.019  0.4617 -0.1817 -0.2890
10538TIP3    H153105   6.471   5.306  -0.063 -0.3993  1.5851 -1.3886
10538TIP3    H253106   6.441   5.428   0.021  0.1214 -0.1495  1.4606
10539TIP3   OH253107   1.306   6.389  14.830 -0.1202 -0.1126 -0.4971
10539TIP3    H153108   1.343   6.303  14.812 -0.5974 -0.2225 -1.0153
10539TIP3    H253109   1.381   6.447  14.839  0.1943 -0.5130 -0.5325
10540TIP3   OH253110   4.727   6.306   5.833 -0.3676 -0.2209  0.4247
10540TIP3    H153111   4.679   6.314   5.915  0.1892  1.2725  0.6515
10540TIP3    H253112   4.779   6.387   5.829 -1.1108  0.2072 -1.8564
10541TIP3   OH253113   1.941   2.256   3.760 -0.0012 -0.4170 -0.0371
10541TIP3    H153114   1.961   2.261   3.666  1.4923 -0.6343  0.2364
10541TIP3    H253115   1.875   2.324   3.774 -1.2732 -1.2844 -1.4660
10542TIP3   OH253116   5.198   0.651  15.569 -0.1986 -0.5150  0.1219
10542TIP3    H153117   5.200   0.564  15.531 -2.1125 -0.7384  0.4495
10542TIP3    H253118   5.220   0.710  15.497 -1.5848 -1.0845 -0.8081
10543TIP3   OH253119   0.670   4.817  12.620  0.6919 -0.1571 -0.1579
10543TIP3    H153120   0.723   4.887  12.659  1.7401 -1.1635  0.3057
10543TIP3    H253121   0.655   4.756  12.692 -0.3455 -0.3372 -0.5185
10544TIP3   OH253122   2.909   2.115  12.282  0.1520  0.2193  0.1165
10544TIP3    H153123   2.933   2.044  12.341  1.7221  0.5418 -0.0994
10544TIP3    H253124   2.844   2.166  12.330 -0.5472 -0.9985  0.5087
10545TIP3   OH253125   6.386   6.165  14.762  0.0808 -0.0401  0.2778
10545TIP3    H153126   6.364   6.108  14.836 -0.2929 -0.2162  0.0322
10545TIP3    H253127   6.345   6.249  14.783  1.3404  0.3997  1.0442
10546TIP3   OH253128   3.528   6.414  16.885  0.2711  0.7413  0.2340
10546TIP3    H153129   3.528   6.319  16.874  1.4764  0.5441  1.5588
10546TIP3    H253130   3.470   6.430  16.959  0.4960  0.9676  0.3667
10547TIP3   OH253131   4.163   2.013  10.405  0.0678 -0.1992  0.1649
10547TIP3    H153132   4.167   2.095  10.454  2.2761  1.1452 -2.0192
10547TIP3    H253133   4.110   2.034  10.328  0.0760 -1.0444 -0.0799
10548TIP3   OH253134   0.831   4.989   6.490 -0.0178  0.1601 -0.0009
10548TIP3    H153135   0.758   5.043   6.462 -1.0306  0.1437  2.3775
10548TIP3    H253136   0.792   4.903   6.506  0.7184 -0.1278  0.2966
10549TIP3   OH253137   4.460   6.443   3.796 -0.6120 -0.3277 -0.4312
10549TIP3    H153138   4.406   6.458   3.873 -2.6973  2.4684 -2.2066
10549TIP3    H253139   4.415   6.375   3.747  0.0036 -1.1871  0.1777
10550TIP3   OH253140   4.285   2.233   6.334 -0.5346  0.3646  0.1015
10550TIP3    H153141   4.367   2.221   6.287  0.2142 -0.3064  1.5206
10550TIP3    H253142   4.227   2.165   6.300  0.4429 -1.0099  1.0612
10551TIP3   OH253143   1.177   5.017   1.848 -0.1744  0.0057  0.5995
10551TIP3    H153144   1.144   5.085   1.907  0.0333 -0.0078  0.7326
10551TIP3    H253145   1.243   5.062   1.795 -1.3194  0.3598 -0.5631
10552TIP3   OH253146   2.801   0.315   0.401  0.3027  0.3856  0.2134
10552TIP3    H153147   2.731   0.252   0.417 -1.4151  2.2032  0.2967
10552TIP3    H253148   2.776   0.392   0.451 -0.1362  2.7626 -3.2701
10553TIP3   OH253149   0.799   1.849   1.643  0.1216 -0.4596 -0.2869
10553TIP3    H153150   0.779   1.832   1.551 -1.8200  3.5203 -0.8146
10553TIP3    H253151   0.725   1.812   1.691 -1.0986  1.2544 -0.8024
10554TIP3   OH253152   1.274   1.364  15.971 -0.4627  0.1834 -0.0712
10554TIP3    H153153   1.204   1.345  16.032 -0.1437 -2.1935 -0.3408
10554TIP3    H253154   1.231   1.407  15.897 -1.4199 -0.0681  0.3307
10555TIP3   OH253155   2.480   0.663  14.096 -0.5241 -0.1102  0.7548
10555TIP3    H153156   2.547   0.600  14.073 -1.5405 -0.7786 -0.4730
10555TIP3    H253157   2.415   0.613  14.145 -1.2072  0.0292  0.0080
10556TIP3   OH253158   3.813   3.892  12.353 -0.5252 -0.3871 -0.2648
10556TIP3    H153159   3.742   3.957  12.355 -1.3435 -1.1417 -2.1045
10556TIP3    H253160   3.800   3.838  12.431 -0.9001  0.5520  0.3388
10557TIP3   OH253161   3.905   4.830   5.716  0.0429  0.1252  0.0112
10557TIP3    H153162   3.852   4.786   5.650  0.8946 -1.9138  0.6178
10557TIP3    H253163   3.924   4.763   5.781  2.6282  0.9853  0.2557
10558TIP3   OH253164   2.754   0.371  15.079 -0.3084 -0.4497  0.4449
10558TIP3    H153165   2.822   0.411  15.135 -0.9452  0.2641  0.7330
10558TIP3    H253166   2.789   0.285  15.056 -0.1208 -0.8678  2.1482
10559TIP3   OH253167   3.111   1.014   3.386  0.3145 -0.0174  0.0710
10559TIP3    H153168   3.180   1.055   3.335  0.0025 -1.7255 -1.8361
10559TIP3    H253169   3.033   1.022   3.331 -0.6415  0.3037  1.4122
10560TIP3   OH253170   5.423   5.077  15.386  0.0530  0.0939 -0.4443
10560TIP3    H153171   5.338   5.101  15.421  0.2567  1.6368 -0.9301
10560TIP3    H253172   5.468   5.160  15.372  0.9524 -0.5899 -1.9011
10561TIP3   OH253173   0.999   1.149   2.989  0.8545 -0.4230  0.2374
10561TIP3    H153174   0.961   1.206   3.056 -0.0489 -0.5587 -0.1434
10561TIP3    H253175   0.954   1.175   2.908  1.5493 -0.6238 -0.2183
10562TIP3   OH253176   2.252   6.387  16.583 -0.4663  0.2111  0.2210
10562TIP3    H153177   2.245   6.311  16.641  0.8558  0.3077  0.5346
10562TIP3    H253178   2.302   6.451  16.633 -0.7374  0.9255 -0.4075
10563TIP3   OH253179   3.728   4.058  12.030 -0.1150  0.4419 -0.0173
10563TIP3    H153180   3.740   3.990  11.964 -0.3709  1.4198 -1.0979
10563TIP3    H253181   3.657   4.026  12.085 -1.3792  0.5699 -1.5208
10564TIP3   OH253182   2.839   2.886   6.493  1.0196 -0.0220 -0.0269
10564TIP3    H153183   2.815   2.978   6.489 -1.5934 -0.6290 -0.0632
10564TIP3    H253184   2.898   2.880   6.568 -1.2967  1.2660  2.0775
10565TIP3   OH253185   5.682   5.959  11.721 -0.6672  0.7436 -0.3578
10565TIP3    H153186   5.587   5.949  11.731 -0.6452  0.2733 -0.6215
10565TIP3    H253187   5.691   6.026  11.653 -0.8165  0.2533 -0.8698
10566TIP3   OH253188   1.279   4.262  13.913 -0.0824  0.3918 -0.7252
10566TIP3    H153189   1.350   4.221  13.962  0.1752  0.6013 -0.9242
10566TIP3    H253190   1.292   4.234  13.823 -0.7712 -0.2923 -0.6160
10567TIP3   OH253191   4.375   1.343  16.986  0.2828  0.0779  0.0133
10567TIP3    H153192   4.439   1.407  16.957  1.1788 -0.6250  0.3604
10567TIP3    H253193   4.348   1.374  17.072 -0.0409  0.5168 -0.2459
10568TIP3   OH253194   3.647   3.871  16.869 -0.2328 -0.3618  0.1300
10568TIP3    H153195   3.570   3.816  16.883  0.5434 -2.3171 -2.5877
10568TIP3    H253196   3.612   3.953  16.834 -1.1370 -1.9705 -3.1419
10569TIP3   OH253197   6.059   4.313  15.048 -0.5231 -0.3987  0.3826
10569TIP3    H153198   6.072   4.333  15.140  0.6911 -1.8597  0.5773
10569TIP3    H253199   5.975   4.353  15.026 -0.4957  0.5939  1.9131
10570TIP3   OH253200   6.070   5.942  10.808 -0.1229  0.0860 -0.4575
10570TIP3    H153201   5.974   5.938  10.808 -0.1054 -0.5424 -0.0172
10570TIP3    H253202   6.096   5.897  10.728 -0.1951  0.1610 -0.5228
10571TIP3   OH253203   0.191   4.675   2.607 -0.6083  0.0799 -0.1195
10571TIP3    H153204   0.267   4.729   2.586  0.8503 -0.7967  2.4284
10571TIP3    H253205   0.213   4.588   2.572  0.0530 -0.3998  1.3866
10572TIP3   OH253206   6.473   0.344  11.962 -1.0584  0.2788  0.6365
10572TIP3    H153207   6.521   0.303  11.889  0.8117  1.4421  1.1417
10572TIP3    H253208   6.444   0.428  11.927 -4.4958 -1.1205 -0.2547
10573TIP3   OH253209   4.182   0.891  10.837  0.8253  0.0905 -0.2887
10573TIP3    H153210   4.150   0.830  10.770  0.9257  1.0176 -1.1896
10573TIP3    H253211   4.277   0.884  10.833  0.8616  0.9025 -0.9605
10574TIP3   OH253212   0.050   2.006   1.310  0.2325 -1.0927  0.6016
10574TIP3    H153213   0.051   1.940   1.380  1.6696 -1.8790 -0.1263
10574TIP3    H253214   0.102   2.078   1.344 -1.2184 -0.3373  1.3388
10575TIP3   OH253215   4.471   2.074  11.327 -0.1644 -0.2409 -0.2088
10575TIP3    H153216   4.544   2.118  11.370  1.0238  0.5100 -2.8323
10575TIP3    H253217   4.394   2.097  11.380  1.0695  1.3129  0.9963
10576TIP3   OH253218   2.217   1.177   2.087 -0.1846  0.2036 -0.0355
10576TIP3    H153219   2.253   1.165   2.175 -0.0372  3.3362  0.4421
10576TIP3    H253220   2.134   1.129   2.088 -0.4506  0.6160  2.0496
10577TIP3   OH253221   3.874   6.612  15.823 -0.1435 -0.1990 -0.3705
10577TIP3    H153222   3.944   6.566  15.778 -0.6948 -2.5274  1.0109
10577TIP3    H253223   3.803   6.616  15.759  0.5726  0.5717 -1.1595
10578TIP3   OH253224   5.991   6.212  14.190 -0.1038  0.3775  0.1536
10578TIP3    H153225   5.974   6.304  14.211 -2.3253 -0.3543  1.8704
10578TIP3    H253226   6.042   6.179  14.264 -0.2952 -0.0507  0.0980
10579TIP3   OH253227   2.671   1.994  11.612 -0.4464 -0.2368  0.1598
10579TIP3    H153228   2.736   2.047  11.659 -0.8164  1.4786 -1.1359
10579TIP3    H253229   2.674   1.909  11.654  1.3949  0.3188  1.2675
10580TIP3   OH253230   2.047   4.970   3.000 -0.5270  0.3530 -0.0990
10580TIP3    H153231   2.031   4.877   3.012 -2.0777  0.3613 -1.6888
10580TIP3    H253232   1.960   5.010   3.002  0.0624  1.6924 -0.0214
10581TIP3   OH253233   2.049   2.127   5.691  0.2123  0.1620  0.8056
10581TIP3    H153234   2.095   2.119   5.775 -0.0621  1.5406  1.1176
10581TIP3    H253235   2.030   2.221   5.684 -0.2050 -0.0127 -0.5735
10582TIP3   OH253236   4.150   5.903  12.076  0.6567 -0.2595 -0.0517
10582TIP3    H153237   4.171   5.810  12.077 -0.4659 -0.5246  0.3951
10582TIP3    H253238   4.200   5.938  12.002  0.0794 -1.4650 -1.0517
10583TIP3   OH253239   2.809   0.664  15.242 -0.0897 -0.0385 -0.7547
10583TIP3    H153240   2.874   0.694  15.306 -1.3564  2.1826 -0.4234
10583TIP3    H253241   2.757   0.599  15.290 -0.5995  1.1015  0.3022
10584TIP3   OH253242   6.260   4.257   0.462 -0.5039  0.1496  0.4354
10584TIP3    H153243   6.308   4.317   0.405 -1.2599  0.5697  0.2395
10584TIP3    H253244   6.168   4.280   0.450 -0.6543  0.6369  2.2459
10585TIP3   OH253245   5.700   4.218   0.599  0.0942  0.0694 -0.3451
10585TIP3    H153246   5.708   4.311   0.620  0.2427 -0.3113  1.3820
10585TIP3    H253247   5.790   4.188   0.586 -0.0409  0.5494 -2.8834
10586TIP3   OH253248   3.971   4.769  14.914  0.9792  0.2019  0.1551
10586TIP3    H153249   4.001   4.763  15.004  0.3613 -0.2244  0.3366
10586TIP3    H253250   4.044   4.808  14.867  0.5398  2.5140  1.2427
10587TIP3   OH253251   3.012   3.384  11.796  0.3259  0.4150 -0.0271
10587TIP3    H153252   3.069   3.309  11.813  0.9692  0.5739 -1.3878
10587TIP3    H253253   3.041   3.419  11.712 -1.1255  1.1259 -0.2720
10588TIP3   OH253254   5.652   6.791  11.218 -0.7089  0.0394  0.0178
10588TIP3    H153255   5.564   6.781  11.180 -1.4386 -0.9332  1.8496
10588TIP3    H253256   5.702   6.836  11.150 -2.1595 -0.8732 -1.7532
10589TIP3   OH253257   2.252   6.308   1.540 -0.6712  0.1082  0.5303
10589TIP3    H153258   2.343   6.333   1.524 -0.6418  0.4453  1.1642
10589TIP3    H253259   2.200   6.378   1.500 -0.5948  1.0661  2.0287
10590TIP3   OH253260   0.409   1.290  17.110 -0.0801  0.1577  0.4059
10590TIP3    H153261   0.486   1.346  17.114 -0.5433  0.8662 -0.3356
10590TIP3    H253262   0.426   1.222  17.175  1.3724  0.0240 -0.0773
10591TIP3   OH253263   0.941   5.715   4.211 -0.4095  0.7427 -0.5791
10591TIP3    H153264   0.974   5.662   4.283 -1.7901 -0.5386 -0.8424
10591TIP3    H253265   0.938   5.804   4.246 -0.0964  0.3149  0.5861
10592TIP3   OH253266   6.819   3.516  12.125 -0.0804  0.6287 -0.6148
10592TIP3    H153267   6.857   3.432  12.151 -2.4190 -0.1804  0.4696
10592TIP3    H253268   6.891   3.563  12.083  1.6216 -1.4205 -0.1603
10593TIP3   OH253269   6.569   0.017  15.160  0.2304 -0.7010 -0.0550
10593TIP3    H153270   6.598  -0.072  15.180  0.4629 -0.4327  0.8455
10593TIP3    H253271   6.649   0.062  15.134 -0.1846 -1.2653 -2.5590
10594TIP3   OH253272   4.518   2.408  12.857 -0.4079  0.3378 -0.8355
10594TIP3    H153273   4.546   2.407  12.949  0.1750  0.5504 -1.0092
10594TIP3    H253274   4.431   2.368  12.859 -0.8200  1.2071 -0.0564
10595TIP3   OH253275   4.160   0.975   5.046  0.0579  0.3796  0.0900
10595TIP3    H153276   4.150   1.051   5.103  0.7645  0.7293 -0.2444
10595TIP3    H253277   4.235   0.996   4.990  0.4769 -0.6977  0.2175
10596TIP3   OH253278   5.220   6.687  16.783 -0.6039 -0.3710 -0.2454
10596TIP3    H153279   5.242   6.761  16.726  0.9684 -2.3986 -2.4809
10596TIP3    H253280   5.279   6.697  16.858  0.0369  0.3066 -0.8166
10597TIP3   OH253281   0.260   4.740  11.493 -0.2756 -0.4553 -0.6978
10597TIP3    H153282   0.332   4.732  11.555  0.4511 -0.4026 -1.5153
10597TIP3    H253283   0.241   4.649  11.467 -1.7125 -0.6315  0.8431
10598TIP3   OH253284   3.365   5.230   0.275  0.8598  0.3729  0.3420
10598TIP3    H153285   3.346   5.311   0.228 -0.6354  0.2367  0.6633
10598TIP3    H253286   3.401   5.172   0.209  0.9115  0.9369 -0.1368
10599TIP3   OH253287   6.711   0.643  15.307 -0.2287 -0.2135 -0.4080
10599TIP3    H153288   6.743   0.648  15.397 -2.2624  0.9094  0.3224
10599TIP3    H253289   6.790   0.647  15.253  0.9594  0.6426  1.3034
10600TIP3   OH253290   1.658   0.427  15.262 -0.3147  0.3380 -0.0209
10600TIP3    H153291   1.588   0.416  15.327  0.1356  1.9830  0.7979
10600TIP3    H253292   1.669   0.340  15.225 -1.7718 -0.2868  0.8850
10601TIP3   OH253293   1.288   2.178  11.512  0.3730 -0.1562 -0.1718
10601TIP3    H153294   1.315   2.156  11.601  2.6412  1.1546 -0.4743
10601TIP3    H253295   1.368   2.170  11.460 -0.6226  0.3987 -1.8651
10602TIP3   OH253296   6.482   3.208  17.215 -0.3525  0.4814  0.2448
10602TIP3    H153297   6.481   3.304  17.207  0.3650  0.4389 -0.3951
10602TIP3    H253298   6.562   3.188  17.263 -1.2423  0.2775  1.7188
10603TIP3   OH253299   4.160   6.238   3.364 -0.4107 -0.5524 -0.7103
10603TIP3    H153300   4.145   6.153   3.404 -0.4361 -0.8146 -1.2731
10603TIP3    H253301   4.142   6.225   3.271  1.3135 -0.3832 -1.1009
10604TIP3   OH253302   2.125   6.234  10.168 -0.5717 -0.3408  0.3243
10604TIP3    H153303   2.033   6.210  10.159 -0.6522 -1.1188  2.7588
10604TIP3    H253304   2.123   6.319  10.212 -0.1247 -0.8846  1.4114
10605TIP3   OH253305   4.460   1.752  11.736 -0.4942  0.2393  0.1421
10605TIP3    H153306   4.530   1.703  11.779  0.1894  2.0425  1.2097
10605TIP3    H253307   4.448   1.830  11.791 -1.8728  1.0352 -1.1965
10606TIP3   OH253308   4.184   3.917   5.316 -0.1552  0.4442 -0.1088
10606TIP3    H153309   4.145   3.829   5.319  1.4516 -0.3083 -0.1782
10606TIP3    H253310   4.125   3.968   5.261 -0.7266 -0.8047 -0.6849
10607TIP3   OH253311   3.124   1.927   1.027  0.4578 -0.4198  0.0093
10607TIP3    H153312   3.198   1.960   0.975  2.0429 -3.1729  0.3088
10607TIP3    H253313   3.158   1.849   1.070 -2.3658 -1.2303  0.9995
10608TIP3   OH253314   0.024   5.830  12.716 -0.1151  0.7411  0.2637
10608TIP3    H153315  -0.055   5.883  12.725 -1.5048 -0.9975 -0.8396
10608TIP3    H253316   0.034   5.818  12.621  0.0091 -1.0683  0.4651
10609TIP3   OH253317   1.080   2.463  14.013 -0.1144 -0.2557  0.4218
10609TIP3    H153318   1.047   2.410  14.086 -0.9654 -0.9888 -0.4693
10609TIP3    H253319   1.143   2.523  14.054 -0.2601 -0.9244  1.6890
10610TIP3   OH253320   0.291   2.033  14.906 -0.4389  0.0991 -0.2725
10610TIP3    H153321   0.221   1.968  14.906 -2.1912  1.8128  1.8611
10610TIP3    H253322   0.281   2.079  14.822 -1.0365 -0.5179 -0.5472
10611TIP3   OH253323   0.917   5.224   5.120  0.2537 -0.3186  0.1934
10611TIP3    H153324   0.888   5.290   5.056  1.6269  2.0936  1.9032
10611TIP3    H253325   0.983   5.173   5.073 -0.7554 -0.4693 -1.1375
10612TIP3   OH253326   5.964   0.786  16.131 -0.2489  0.1386  0.6083
10612TIP3    H153327   6.021   0.729  16.079 -0.1793  0.9927 -0.2754
10612TIP3    H253328   5.944   0.734  16.209  0.6214 -0.7076  0.2982
10613TIP3   OH253329   1.876   6.257   5.422  0.5942  0.7693 -0.0646
10613TIP3    H153330   1.864   6.328   5.485 -0.4372  0.7047 -0.1744
10613TIP3    H253331   1.934   6.195   5.467 -2.0706 -0.4961  1.8751
10614TIP3   OH253332   6.624   1.800  11.849  0.1318  0.0602  0.2522
10614TIP3    H153333   6.645   1.711  11.823 -1.6985 -1.3655  3.1495
10614TIP3    H253334   6.549   1.824  11.796  0.2829 -0.3404 -0.1441
10615TIP3   OH253335   4.341   3.311  12.735  0.7346 -0.1878 -0.2558
10615TIP3    H153336   4.359   3.303  12.641  1.1668  0.0735 -0.2010
10615TIP3    H253337   4.407   3.373  12.766  1.9344 -1.8194  0.6163
10616TIP3   OH253338   0.650   0.712  13.069  0.6611  0.2137 -0.1183
10616TIP3    H153339   0.669   0.767  13.145 -0.0951  1.1255 -0.5633
10616TIP3    H253340   0.648   0.773  12.995  0.8897 -0.5826 -0.8046
10617TIP3   OH253341   3.575   4.850  12.853 -0.1775  0.2519 -0.7476
10617TIP3    H153342   3.614   4.783  12.797 -1.3410 -1.1407  0.0264
10617TIP3    H253343   3.638   4.862  12.924 -0.9808 -1.8610  0.4136
10618TIP3   OH253344   5.424   3.858  15.495 -0.0539 -0.4477  0.0802
10618TIP3    H153345   5.331   3.879  15.484 -0.1296 -0.9670 -0.2698
10618TIP3    H253346   5.425   3.782  15.553  0.2091  0.2730  1.0624
10619TIP3   OH253347   0.911   5.674  11.931 -0.4030  0.5627 -0.8056
10619TIP3    H153348   0.832   5.639  11.973 -0.7955 -0.5188 -2.3276
10619TIP3    H253349   0.941   5.744  11.989 -1.1810 -0.5099  0.9656
10620TIP3   OH253350   3.172   2.139  11.725 -0.3611 -0.3747 -0.2667
10620TIP3    H153351   3.136   2.228  11.723 -0.3002 -0.3610 -1.0150
10620TIP3    H253352   3.251   2.146  11.780  1.6440  0.8206 -3.0716
10621TIP3   OH253353   0.328   4.566  16.087 -0.6541 -0.0052 -0.1265
10621TIP3    H153354   0.406   4.595  16.133 -1.2250  1.5955 -0.1132
10621TIP3    H253355   0.335   4.605  16.000 -1.4283  0.1575 -0.1250
10622TIP3   OH253356   4.783   4.475   3.273  0.2501 -0.6651 -0.6867
10622TIP3    H153357   4.823   4.388   3.284 -0.4006 -0.8138  0.7147
10622TIP3    H253358   4.690   4.461   3.290 -0.2174 -0.0757 -2.5990
10623TIP3   OH253359   5.956   0.424   4.475  0.5318 -0.5823  0.3133
10623TIP3    H153360   5.866   0.398   4.492 -0.4974  2.2113 -0.4361
10623TIP3    H253361   5.998   0.421   4.561 -0.2968 -1.6861  0.7082
10624TIP3   OH253362   5.363   2.287  14.154 -0.2340  0.0961  0.1695
10624TIP3    H153363   5.342   2.283  14.061 -1.1820 -0.9875  0.4081
10624TIP3    H253364   5.459   2.284  14.157 -0.0644  2.4938 -0.8352
10625TIP3   OH253365   3.071   1.858   4.570  1.1544  0.0305 -0.4873
10625TIP3    H153366   3.166   1.870   4.564  1.3331 -0.5055  0.8695
10625TIP3    H253367   3.052   1.865   4.664  0.0794 -1.4529 -0.5684
10626TIP3   OH253368   3.104   5.084  16.829  0.6047 -0.4587 -0.1580
10626TIP3    H153369   3.166   5.140  16.876  0.4295 -0.1283 -0.3203
10626TIP3    H253370   3.046   5.145  16.784  1.3068 -0.7659 -1.5395
10627TIP3   OH253371   3.296   2.556  11.831  0.2992 -0.0036 -0.0372
10627TIP3    H153372   3.370   2.517  11.879 -0.1967 -0.2599  0.5293
10627TIP3    H253373   3.338   2.610  11.763  1.0042 -0.6798 -0.1588
10628TIP3   OH253374   4.728   2.901  12.986 -0.7877 -0.2447  1.2617
10628TIP3    H153375   4.823   2.895  12.977 -0.6759  1.2170  1.2568
10628TIP3    H253376   4.694   2.833  12.927  0.2152  0.2529  0.0616
10629TIP3   OH253377   5.938   2.193   0.987 -0.2359 -0.3013  0.0645
10629TIP3    H153378   5.892   2.270   0.952 -1.3150 -0.6290  0.7220
10629TIP3    H253379   5.881   2.119   0.968  0.6748 -0.9284 -0.3312
10630TIP3   OH253380   0.278   4.792   3.162  0.3160  0.5585  0.8113
10630TIP3    H153381   0.203   4.792   3.103  1.0705  0.9753 -0.1715
10630TIP3    H253382   0.281   4.703   3.197 -0.5110  0.4817  0.7032
10631TIP3   OH253383   5.003   2.041   0.197  0.0969 -0.2373 -0.1865
10631TIP3    H153384   4.993   2.128   0.160  2.5847 -1.0391 -3.1475
10631TIP3    H253385   4.951   1.985   0.139  0.2655 -0.9788  0.3691
10632TIP3   OH253386   6.171   2.431  13.105  0.7320  0.2870  0.7726
10632TIP3    H153387   6.239   2.363  13.103 -1.1851 -1.7561 -1.4373
10632TIP3    H253388   6.212   2.507  13.064  1.0273 -1.7838 -3.2350
10633TIP3   OH253389   2.885   2.741  11.621 -0.1845 -0.1900 -0.2946
10633TIP3    H153390   2.970   2.782  11.609  0.2326 -0.8591  0.2710
10633TIP3    H253391   2.847   2.736  11.533  0.9745 -1.1803 -0.7681
10634TIP3   OH253392   4.802   1.298  12.610 -0.3732 -0.2907  0.3680
10634TIP3    H153393   4.885   1.273  12.570 -0.1809 -1.6025  1.5085
10634TIP3    H253394   4.824   1.373  12.666 -0.1502 -0.0274 -0.0709
10635TIP3   OH253395   1.425   0.099   3.722 -0.0050  0.2219  0.4155
10635TIP3    H153396   1.432   0.027   3.660  0.6277  0.7925 -0.2029
10635TIP3    H253397   1.483   0.074   3.794 -2.1739 -1.3200  1.7237
10636TIP3   OH253398   6.347   3.756   1.655  0.5845 -0.3329 -0.1105
10636TIP3    H153399   6.376   3.827   1.713  1.1723 -0.5233 -0.1642
10636TIP3    H253400   6.290   3.702   1.709  1.6954 -0.9107  0.5210
10637TIP3   OH253401   3.383   2.979   2.379  0.5004 -0.1776  0.1443
10637TIP3    H153402   3.448   3.028   2.328  2.4611 -1.9661  0.7484
10637TIP3    H253403   3.367   2.900   2.328  1.9431 -1.6533  1.8221
10638TIP3   OH253404   5.039   5.017   4.631  0.3778 -0.3791  0.6786
10638TIP3    H153405   5.002   4.981   4.551  1.4236 -1.1770  0.5317
10638TIP3    H253406   4.967   5.017   4.693 -0.7029  1.0678 -0.4768
10639TIP3   OH253407   1.061   0.354   4.177 -0.2054  0.8825  0.6505
10639TIP3    H153408   0.996   0.326   4.242  1.3415  1.4516  2.5418
10639TIP3    H253409   1.010   0.400   4.110 -1.9946 -0.7043  0.8407
10640TIP3   OH253410   6.303   3.035   2.322  0.4672 -0.5741 -0.3971
10640TIP3    H153411   6.370   3.059   2.387 -0.0988  0.6601 -0.2504
10640TIP3    H253412   6.224   3.079   2.352 -0.0204 -0.6953 -1.4743
10641TIP3   OH253413   6.552   3.303   3.565 -0.7252 -0.2842 -0.0081
10641TIP3    H153414   6.576   3.328   3.476 -0.5947  2.5984  0.7454
10641TIP3    H253415   6.458   3.320   3.570 -0.5091  0.7415  0.7362
10642TIP3   OH253416   0.206   5.098   5.896 -0.2081 -0.3695 -0.0285
10642TIP3    H153417   0.128   5.154   5.899  0.2814  0.5160 -2.0913
10642TIP3    H253418   0.187   5.036   5.826  0.7705 -0.3953 -0.2783
10643TIP3   OH253419   4.616   4.679  12.420  0.3418  0.2431 -0.0338
10643TIP3    H153420   4.611   4.725  12.504 -0.0551 -0.1077  0.1417
10643TIP3    H253421   4.639   4.747  12.356 -1.2443  0.9227  0.0519
10644TIP3   OH253422   1.723   2.320  16.874 -0.0207  0.0953 -0.4498
10644TIP3    H153423   1.720   2.226  16.891 -0.8702  0.0464 -0.8637
10644TIP3    H253424   1.650   2.356  16.923  0.4908  0.5930 -0.0282
10645TIP3   OH253425   4.443   6.292   5.659  0.3823  0.3711 -0.5383
10645TIP3    H153426   4.518   6.316   5.605  2.0484 -0.9000  1.0744
10645TIP3    H253427   4.444   6.196   5.660 -0.5594  0.3505  0.4560
10646TIP3   OH253428   4.116   1.296  12.148 -0.0190 -0.5924  0.1194
10646TIP3    H153429   4.211   1.289  12.153 -0.0933 -0.9080  2.1135
10646TIP3    H253430   4.099   1.388  12.131  0.6458 -0.4129  0.3932
10647TIP3   OH253431   2.338   2.295   3.032 -0.0873 -0.4355 -0.1776
10647TIP3    H153432   2.409   2.291   2.968  0.5258 -1.9388  0.5507
10647TIP3    H253433   2.368   2.241   3.105 -1.8896 -0.9416  0.2411
10648TIP3   OH253434   5.534   1.527  13.866 -0.3295 -0.6454 -0.4738
10648TIP3    H153435   5.443   1.502  13.849 -1.4314  2.2604  0.5121
10648TIP3    H253436   5.573   1.449  13.905 -2.9786 -1.4300  0.8808
10649TIP3   OH253437   3.187   5.038   0.013  0.5319  0.6522 -0.4004
10649TIP3    H153438   3.158   5.120  -0.027  2.8192  2.1874  0.8626
10649TIP3    H253439   3.282   5.041   0.007  0.7207 -1.4365  0.6753
10650TIP3   OH253440   5.322   0.352   2.436  0.3888 -0.4049  0.2979
10650TIP3    H153441   5.238   0.398   2.438 -1.0709 -2.7218 -1.4677
10650TIP3    H253442   5.336   0.326   2.527 -1.0642 -0.3213  0.5790
10651TIP3   OH253443   3.981   2.731  14.025 -0.0113 -0.2728 -0.6997
10651TIP3    H153444   4.040   2.673  14.073  1.2002  0.0077 -1.7876
10651TIP3    H253445   3.911   2.752  14.087  0.3664 -1.6188  0.2168
10652TIP3   OH253446   3.251   3.748  13.212  0.2663 -0.2227  0.2291
10652TIP3    H153447   3.207   3.833  13.208 -0.9331 -0.8150  0.4560
10652TIP3    H253448   3.265   3.733  13.305  0.5293 -0.2496  0.1841
10653TIP3   OH253449   1.703   4.226  16.234 -0.1878  0.0371  0.3770
10653TIP3    H153450   1.623   4.208  16.284 -0.4047  0.4662  0.1888
10653TIP3    H253451   1.703   4.321  16.224  0.1614  0.0018  0.0616
10654TIP3   OH253452   3.285   6.325   3.052  0.3319  0.5272  0.2845
10654TIP3    H153453   3.330   6.245   3.023 -1.2168 -0.7412  1.2297
10654TIP3    H253454   3.302   6.389   2.982 -0.1727 -1.2654 -1.5674
10655TIP3   OH253455   5.235   3.653  13.614 -0.4041 -0.4265 -0.0588
10655TIP3    H153456   5.164   3.703  13.574  0.2607  0.2675 -0.3936
10655TIP3    H253457   5.205   3.562  13.611 -0.4485 -0.3810 -2.0102
10656TIP3   OH253458   0.020   5.585  12.858 -0.2699  0.5104 -0.2910
10656TIP3    H153459   0.098   5.541  12.826  2.1445  1.6099  3.4680
10656TIP3    H253460   0.027   5.675  12.824 -0.3422  0.4233 -0.5442
10657TIP3   OH253461   5.819   1.485  11.502 -0.5295  0.4097 -0.0055
10657TIP3    H153462   5.756   1.554  11.520 -0.6981 -0.0664  1.3350
10657TIP3    H253463   5.901   1.516  11.541 -0.9900 -0.8057  2.0570
10658TIP3   OH253464   0.484   0.944   0.702  0.7293  0.5004  0.0559
10658TIP3    H153465   0.495   0.933   0.607  1.6888  1.6308  0.0027
10658TIP3    H253466   0.453   0.859   0.733  2.0506 -0.4405 -1.0424
10659TIP3   OH253467   5.613   1.205  10.646 -0.1312 -0.2318  0.4474
10659TIP3    H153468   5.571   1.281  10.605  1.0345 -0.0068 -0.3767
10659TIP3    H253469   5.540   1.153  10.680 -0.9535  1.1937  0.9413
10660TIP3   OH253470   4.136   1.984  15.454  0.3557  0.3009 -1.0024
10660TIP3    H153471   4.050   2.016  15.425 -0.2231  1.4971  1.7209
10660TIP3    H253472   4.188   2.064  15.466  0.5594 -0.0958  1.0179
10661TIP3   OH253473   0.025   1.678  11.359  0.5646  0.1747  1.0527
10661TIP3    H153474   0.072   1.706  11.280  0.5219 -0.6256  0.7362
10661TIP3    H253475   0.093   1.676  11.427  0.6028  0.8591  1.0431
10662TIP3   OH253476   2.307   5.142  10.912  0.4911  0.8773  0.0640
10662TIP3    H153477   2.331   5.207  10.978 -1.1905  0.6685  0.9421
10662TIP3    H253478   2.366   5.068  10.930  0.1109  0.8519  1.3096
10663TIP3   OH253479   6.727   4.135   1.334  0.6704  0.1534  0.8899
10663TIP3    H153480   6.664   4.196   1.373  0.2748  0.9723 -0.9172
10663TIP3    H253481   6.812   4.164   1.369  0.4480  1.5138  0.3925
10664TIP3   OH253482   2.952   1.065  13.272  0.0981 -0.2952 -0.5213
10664TIP3    H153483   2.889   0.998  13.300  0.2628 -0.6293 -0.9355
10664TIP3    H253484   2.909   1.111  13.200 -0.6751  1.1359  0.7979
10665TIP3   OH253485   6.451   0.707  15.258 -0.1679  0.3637  0.3023
10665TIP3    H153486   6.538   0.668  15.261  0.1765  1.0083 -0.6294
10665TIP3    H253487   6.462   0.786  15.205 -1.5498 -0.1332 -0.7849
10666TIP3   OH253488   2.722   5.384  12.456 -0.2458 -0.2852 -0.2338
10666TIP3    H153489   2.708   5.307  12.402 -1.6166 -0.4763  0.3529
10666TIP3    H253490   2.680   5.455  12.407 -0.7805 -0.3076  0.1867
10667TIP3   OH253491   5.581   2.593  11.350  0.4578  0.3825 -0.7782
10667TIP3    H153492   5.490   2.607  11.373  0.6470  0.3514  0.0044
10667TIP3    H253493   5.630   2.652  11.407  0.9658 -0.0436 -0.7635
10668TIP3   OH253494   0.306   6.550   2.657  0.0339  0.0913 -0.3790
10668TIP3    H153495   0.337   6.469   2.696 -1.4218  0.1827  1.0860
10668TIP3    H253496   0.359   6.561   2.578 -0.2723 -2.6828 -1.0465
10669TIP3   OH253497   0.620   2.103  12.055  0.2290  0.5193  0.4453
10669TIP3    H153498   0.539   2.108  12.004  0.4457  0.3904  0.0847
10669TIP3    H253499   0.662   2.189  12.042 -0.5522  1.1452  1.8282
10670TIP3   OH253500   5.716   6.559   0.623 -0.3047 -0.2117  0.3094
10670TIP3    H153501   5.701   6.648   0.653  0.3351  0.0811 -0.2438
10670TIP3    H253502   5.652   6.507   0.673  0.3230  0.3365  1.7355
10671TIP3   OH253503   4.019   1.036  14.112  0.1011 -0.4332 -0.2286
10671TIP3    H153504   4.022   1.131  14.110  0.7268 -0.4589 -0.7526
10671TIP3    H253505   4.075   1.008  14.040  0.0545 -1.1985  0.0185
10672TIP3   OH253506   2.381   1.069   3.530  0.3416  0.8101 -0.1795
10672TIP3    H153507   2.415   0.980   3.538 -0.9447  0.4378  1.8742
10672TIP3    H253508   2.351   1.075   3.439  3.4435  0.3378 -1.3528
10673TIP3   OH253509   3.480   4.423   0.142 -0.3127  0.4248 -0.2215
10673TIP3    H153510   3.526   4.390   0.219  1.7788 -0.2123 -1.6742
10673TIP3    H253511   3.389   4.433   0.171  0.0876 -1.2897  1.8729
10674TIP3   OH253512   5.558   6.467  11.785 -0.8554 -0.1051  0.8873
10674TIP3    H153513   5.629   6.513  11.741  0.8092 -1.7761  1.7015
10674TIP3    H253514   5.482   6.524  11.773 -0.0646  0.4791 -2.3832
10675TIP3   OH253515   5.675   4.836  12.438  0.0550 -0.0219  0.3018
10675TIP3    H153516   5.764   4.824  12.405  1.2243  5.0836  0.7355
10675TIP3    H253517   5.620   4.843  12.359  0.5338 -0.3663 -0.0644
10676TIP3   OH253518   1.078   6.542  12.818 -0.4934  0.3023  0.0860
10676TIP3    H153519   1.112   6.581  12.899 -0.1484  0.6765 -0.2286
10676TIP3    H253520   1.136   6.468  12.800 -0.2984  0.4848 -0.0477
10677TIP3   OH253521   1.064   2.877   4.385  0.3061  0.0342 -0.1262
10677TIP3    H153522   1.118   2.956   4.383  2.8716 -1.5696 -2.3194
10677TIP3    H253523   1.006   2.885   4.309  0.0747  0.1207  0.0595
10678TIP3   OH253524   1.829   5.420  14.841 -0.4766  0.1057 -0.0913
10678TIP3    H153525   1.837   5.330  14.808  1.2268  0.3190 -0.3472
10678TIP3    H253526   1.889   5.422  14.916  0.6818  1.4345 -1.0172
10679TIP3   OH253527   3.870   2.609  15.331 -0.5581 -0.0340  0.0681
10679TIP3    H153528   3.881   2.697  15.366 -0.9442  0.1642 -0.2916
10679TIP3    H253529   3.816   2.622  15.252 -1.4557 -0.6999  0.5503
10680TIP3   OH253530   6.120   1.319  12.675 -0.0583  0.0659 -0.1845
10680TIP3    H153531   6.207   1.347  12.647  0.3713 -1.4983 -0.4859
10680TIP3    H253532   6.091   1.387  12.737  0.2465  1.9900 -2.0540
10681TIP3   OH253533   1.557   5.909   4.025  0.5189 -0.0199  0.4305
10681TIP3    H153534   1.555   5.939   4.115  2.0356  0.7927  0.2257
10681TIP3    H253535   1.590   5.819   4.030  0.7620  0.0828  0.6759
10682TIP3   OH253536   1.631   2.614   3.158  0.5914  0.1818  0.1317
10682TIP3    H153537   1.668   2.560   3.229 -0.8151  0.4327  1.0913
10682TIP3    H253538   1.610   2.552   3.089  2.8037  0.0284 -0.5065
10683TIP3   OH253539   5.415   4.126   0.111  0.3133  0.3230 -0.4795
10683TIP3    H153540   5.417   4.119   0.206  0.0496  0.1351 -0.4836
10683TIP3    H253541   5.468   4.203   0.090  1.5088 -0.4166 -0.2685
10684TIP3   OH253542   1.178   4.984  11.034 -0.0898  0.2224  0.0543
10684TIP3    H153543   1.259   5.029  11.012 -1.3652  1.5550 -2.3979
10684TIP3    H253544   1.195   4.892  11.016  1.2077  0.3257  0.7003
10685TIP3   OH253545   5.871   6.075  17.069 -0.0941 -0.6494 -0.1687
10685TIP3    H153546   5.926   6.065  17.147  0.8070 -0.1337 -0.7174
10685TIP3    H253547   5.931   6.107  17.002 -1.0678 -0.0913 -0.7946
10686TIP3   OH253548   1.699   0.737   2.957 -0.0963  0.2160 -0.0205
10686TIP3    H153549   1.662   0.710   3.041  0.6113  0.4348  0.3699
10686TIP3    H253550   1.749   0.661   2.928  0.9135  0.6467  0.5068
10687TIP3   OH253551   0.531   5.745  10.439  0.1978  0.6203  0.1719
10687TIP3    H153552   0.581   5.668  10.411  0.6424  1.4879 -1.5589
10687TIP3    H253553   0.443   5.729  10.404 -0.6001 -0.5143  2.5025
10688TIP3   OH253554   0.716   4.042  11.943  0.3446  0.4883  0.6615
10688TIP3    H153555   0.679   3.997  11.866  0.9669 -1.3016  1.3544
10688TIP3    H253556   0.647   4.037  12.009  0.3692  0.6493  0.6981
10689TIP3   OH253557   6.305   4.982  16.485 -0.3874 -0.0555 -0.0744
10689TIP3    H153558   6.389   4.941  16.508 -0.2561 -0.0989 -0.6305
10689TIP3    H253559   6.239   4.927  16.529 -0.1224  0.0640  0.4827
10690TIP3   OH253560   2.432   6.619  11.149 -0.5678  0.2439 -0.6757
10690TIP3    H153561   2.500   6.686  11.135  0.2037  0.1218  1.9737
10690TIP3    H253562   2.353   6.657  11.111  0.5753  1.1764 -2.2353
10691TIP3   OH253563   0.725   2.152  12.431 -0.1368  0.1318 -0.1738
10691TIP3    H153564   0.804   2.114  12.393 -0.4651  0.2482 -0.9929
10691TIP3    H253565   0.702   2.092  12.502  1.1268  0.5210  0.6080
10692TIP3   OH253566   1.121   1.097   4.415  0.1315 -0.5985  0.1590
10692TIP3    H153567   1.037   1.077   4.455  0.0267 -1.9612 -0.6802
10692TIP3    H253568   1.125   1.193   4.415 -1.4895 -0.5034  0.0681
10693TIP3   OH253569   2.592   0.548   2.031 -0.0902 -0.6677  0.3130
10693TIP3    H153570   2.577   0.596   2.113 -0.0764 -1.5508  0.8364
10693TIP3    H253571   2.645   0.473   2.055  0.6059 -0.5067 -0.6516
10694TIP3   OH253572   3.849   3.870   4.052 -0.4513 -0.3248 -0.9006
10694TIP3    H153573   3.930   3.837   4.089  0.4514  1.0593 -1.5471
10694TIP3    H253574   3.870   3.887   3.960 -0.9136  1.6792 -0.6964
10695TIP3   OH253575   1.822   6.042   1.360 -0.1541 -0.1163  0.5122
10695TIP3    H153576   1.823   5.969   1.422  0.5251  1.1346  2.0760
10695TIP3    H253577   1.761   6.106   1.398  0.0407  0.5587 -0.2647
10696TIP3   OH253578   2.889   3.715   2.133 -0.3872 -0.2714 -0.4382
10696TIP3    H153579   2.831   3.736   2.060 -0.2205  0.4786 -0.3686
10696TIP3    H253580   2.966   3.769   2.118 -0.6541  0.4552  0.6786
10697TIP3   OH253581   6.160   3.672  14.532  0.3794  0.0303 -0.5835
10697TIP3    H153582   6.105   3.628  14.597  1.9995 -1.7459 -0.3431
10697TIP3    H253583   6.120   3.650  14.448  1.2622 -2.1782 -0.4851
10698TIP3   OH253584   5.072   6.567  12.501  0.5540  0.2559  0.1834
10698TIP3    H153585   5.068   6.568  12.597  0.9415 -0.8206  0.2207
10698TIP3    H253586   5.034   6.483  12.476  0.3935  0.5582 -0.6152
10699TIP3   OH253587   6.286   5.352  15.181 -0.8442  0.4845 -0.9813
10699TIP3    H153588   6.274   5.429  15.125 -1.5313  0.5523 -0.7411
10699TIP3    H253589   6.381   5.339  15.183 -0.5262  2.6628  0.7842
10700TIP3   OH253590   1.829   2.709   4.749 -0.0506  0.1601  0.4292
10700TIP3    H153591   1.744   2.674   4.722  1.0410 -3.5461  1.1770
10700TIP3    H253592   1.834   2.691   4.842  2.2262 -1.4756  0.0681
10701TIP3   OH253593   3.141   3.317   3.633  0.6185 -0.2644 -0.2076
10701TIP3    H153594   3.194   3.238   3.632  0.3388 -0.4566 -1.5241
10701TIP3    H253595   3.052   3.286   3.649  0.4321 -0.2741 -1.2465
10702TIP3   OH253596   0.926   3.141   5.155 -0.9022 -0.0010 -0.1599
10702TIP3    H153597   0.861   3.193   5.202 -1.0597 -0.1807 -0.1825
10702TIP3    H253598   0.982   3.207   5.112  0.1950  0.2231  1.5188
10703TIP3   OH253599   0.507   6.555   3.110 -0.2480 -0.1334  0.1231
10703TIP3    H153600   0.566   6.486   3.080 -1.9676 -1.1206 -1.0745
10703TIP3    H253601   0.485   6.605   3.032 -0.1049  0.9651  0.7543
10704TIP3   OH253602   6.241   5.235  16.412 -0.1628  0.2764  0.2216
10704TIP3    H153603   6.252   5.143  16.435  5.5958  0.7105  0.5789
10704TIP3    H253604   6.249   5.282  16.496 -1.5942  1.2189 -0.1275
10705TIP3   OH253605   3.423   0.340   2.626 -0.0543 -0.2212 -0.8073
10705TIP3    H153606   3.451   0.426   2.659 -0.2135 -0.2725 -0.5333
10705TIP3    H253607   3.504   0.295   2.603  0.3459 -1.2602  2.1284
10706TIP3   OH253608   2.939   6.785   0.176 -0.0050  0.1545  0.4235
10706TIP3    H153609   2.873   6.853   0.163 -2.4082 -2.1283 -0.0966
10706TIP3    H253610   2.951   6.781   0.271 -0.8813  0.3501  0.5453
10707TIP3   OH253611   4.681   6.494   2.037  0.3341 -0.0312 -0.0376
10707TIP3    H153612   4.729   6.434   1.979 -2.2028 -1.2682 -1.0298
10707TIP3    H253613   4.701   6.581   2.002  2.4309 -0.4028  0.1100
10708TIP3   OH253614   5.094   5.473  15.977  0.2632 -0.2455 -0.5287
10708TIP3    H153615   5.067   5.551  16.025 -0.7834 -0.5626 -0.5624
10708TIP3    H253616   5.189   5.469  15.988  0.0518 -0.4836  1.7917
10709TIP3   OH253617   5.077   2.874  17.055  0.1379 -0.6663 -0.2627
10709TIP3    H153618   5.054   2.960  17.021  2.2347  0.2571  0.5614
10709TIP3    H253619   5.007   2.853  17.116 -0.9031 -0.0170 -1.1864
10710TIP3   OH253620   0.724   5.313  14.007 -0.2817 -0.3886  0.1775
10710TIP3    H153621   0.819   5.303  13.999 -0.4580 -1.2379 -1.0654
10710TIP3    H253622   0.693   5.330  13.918 -1.4346 -1.5251  0.3295
10711TIP3   OH253623   1.666   2.833  16.759  0.0436  0.0902  0.3091
10711TIP3    H153624   1.620   2.802  16.681  0.3273  0.1664  0.1094
10711TIP3    H253625   1.739   2.771  16.769  0.9025  0.9509 -0.3738
10712TIP3   OH253626   0.776   3.444   3.865 -0.2352  0.2398 -0.2868
10712TIP3    H153627   0.697   3.443   3.919 -0.8310 -0.3693 -1.1434
10712TIP3    H253628   0.796   3.351   3.850  1.2915  0.3373  0.8139
10713TIP3   OH253629   5.118   5.706   4.645  0.2851  0.0574 -0.6815
10713TIP3    H153630   5.042   5.649   4.630  0.3979  0.0094 -1.0669
10713TIP3    H253631   5.104   5.741   4.734  0.2604 -0.6309 -0.4068
10714TIP3   OH253632   0.628   6.291  13.746 -0.0303  0.1849  0.0111
10714TIP3    H153633   0.720   6.313  13.757 -0.1468  0.2721  0.8673
10714TIP3    H253634   0.619   6.271  13.653  1.3374 -2.0637  0.2746
10715TIP3   OH253635   3.934   6.158  14.313 -0.8953 -0.2414  0.1926
10715TIP3    H153636   3.898   6.209  14.240  2.2611  0.2395 -1.1862
10715TIP3    H253637   3.931   6.067  14.283  2.4139  0.1148 -1.7069
10716TIP3   OH253638   4.483   4.310   1.044 -0.2887 -0.1599  0.6172
10716TIP3    H153639   4.565   4.265   1.064 -0.2475 -0.1960  0.3760
10716TIP3    H253640   4.509   4.386   0.992 -0.4770 -0.6334 -0.1829
10717TIP3   OH253641   6.449   2.409   0.266 -0.0564  0.1178  0.5446
10717TIP3    H153642   6.396   2.394   0.344  0.9182 -1.3144  0.9752
10717TIP3    H253643   6.424   2.339   0.206  0.6765 -0.0262  0.3961
10718TIP3   OH253644   3.346   1.691   3.585  0.1249 -0.1769 -0.1812
10718TIP3    H153645   3.347   1.778   3.626  0.2603 -0.1623 -0.2154
10718TIP3    H253646   3.406   1.639   3.639  2.5148  0.5679 -1.9579
10719TIP3   OH253647   0.114   1.414  12.748  0.2216  0.3316  0.6965
10719TIP3    H153648   0.197   1.441  12.709 -0.1326 -1.0016 -1.1028
10719TIP3    H253649   0.113   1.319  12.740 -1.6829  0.3502  0.2134
10720TIP3   OH253650   3.944   1.538   2.844  0.7192 -0.1103 -0.1706
10720TIP3    H153651   3.920   1.594   2.917  0.9989  0.1111 -0.2449
10720TIP3    H253652   3.948   1.450   2.881  0.3955 -0.0656 -0.0281
10721TIP3   OH253653   1.945   4.597   2.721 -0.1553  0.0592  0.4791
10721TIP3    H153654   1.959   4.509   2.758  0.6216 -0.4765 -1.0202
10721TIP3    H253655   1.925   4.651   2.797  0.2195 -1.2349  1.5467
10722TIP3   OH253656   4.223   3.321  16.510  0.1774 -0.3522  0.5649
10722TIP3    H153657   4.293   3.295  16.570  0.6766 -1.7828 -0.5702
10722TIP3    H253658   4.187   3.401  16.548  2.6846  0.6769  0.9694
10723TIP3   OH253659   0.259   3.374   5.589 -0.4471 -0.1853  0.0903
10723TIP3    H153660   0.337   3.428   5.576 -1.2216  0.6517 -1.3468
10723TIP3    H253661   0.286   3.308   5.652  1.0902  0.7585  0.4787
10724TIP3   OH253662   0.984   4.118  16.982 -0.2055  0.0980 -0.1521
10724TIP3    H153663   0.962   4.192  16.925  0.4086 -0.2784 -0.8994
10724TIP3    H253664   0.901   4.074  16.999 -0.6319  1.1390  0.5727
10725TIP3   OH253665   2.528   4.682   1.777  0.0937 -0.5245 -0.5659
10725TIP3    H153666   2.577   4.680   1.695  0.6744  1.4785 -0.3218
10725TIP3    H253667   2.586   4.727   1.838 -0.5172 -1.5697  0.8379
10726TIP3   OH253668   1.586   6.010  13.719  0.1821 -0.3877  0.1807
10726TIP3    H153669   1.578   5.982  13.628  1.0528  0.0304 -0.0363
10726TIP3    H253670   1.531   5.949  13.768 -0.5007 -0.4609 -0.6510
10727TIP3   OH253671   2.049   2.451  12.784  0.3230 -0.3136 -0.6942
10727TIP3    H153672   2.048   2.512  12.710  1.6835 -1.3943 -1.6289
10727TIP3    H253673   1.961   2.460  12.822  0.2657  1.7683 -1.1536
10728TIP3   OH253674   6.192   4.672  16.507 -0.4317  0.4696  0.4559
10728TIP3    H153675   6.145   4.592  16.528  0.6166  0.2838  2.3467
10728TIP3    H253676   6.146   4.740  16.557 -1.5947  1.1791 -1.4898
10729TIP3   OH253677   2.793   6.767   2.478  0.0666  0.1996 -0.2099
10729TIP3    H153678   2.808   6.859   2.455 -0.2083  0.3021  0.0117
10729TIP3    H253679   2.755   6.770   2.565  0.5216 -0.1540  0.0077
10730TIP3   OH253680   6.283   5.505  15.404 -0.3441 -0.6994 -0.4930
10730TIP3    H153681   6.237   5.465  15.477 -0.1084  0.5772  0.3847
10730TIP3    H253682   6.259   5.452  15.328 -2.8499 -0.3864  0.0027
10731TIP3   OH253683   4.526   4.727  16.216  0.3157  0.4673  0.3498
10731TIP3    H153684   4.563   4.654  16.165  0.2529  0.7714 -0.1349
10731TIP3    H253685   4.437   4.699  16.236  1.1451 -0.8158  2.5802
10732TIP3   OH253686   2.277   2.418  12.940  0.1475 -0.3713 -0.6177
10732TIP3    H153687   2.334   2.494  12.927 -0.0693  0.3948  2.2974
10732TIP3    H253688   2.192   2.445  12.905  0.1028  0.7285  0.2754
10733TIP3   OH253689   0.620   4.386   6.712  0.2190  0.2869 -0.3438
10733TIP3    H153690   0.689   4.378   6.646  2.0339  0.1172  1.5063
10733TIP3    H253691   0.588   4.476   6.701  1.1292  0.5640 -0.8285
10734TIP3   OH253692   0.203   4.867  15.782 -0.5233 -0.1796  0.1913
10734TIP3    H153693   0.171   4.783  15.748 -1.9900 -0.1897  1.4690
10734TIP3    H253694   0.209   4.923  15.704  0.1189 -1.3312 -0.6271
10735TIP3   OH253695   6.342   6.122  15.042  0.1802  0.3812  0.1171
10735TIP3    H153696   6.312   6.052  15.100  0.4005  0.0986 -0.1088
10735TIP3    H253697   6.278   6.192  15.055 -0.6038 -0.2205 -0.3750
10736TIP3   OH253698   1.042   1.008  15.996 -0.2574 -0.2710  0.0692
10736TIP3    H153699   0.965   1.024  15.940 -0.1523 -1.7146 -0.5118
10736TIP3    H253700   1.113   1.057  15.954 -0.6047  0.2101  0.0277
10737TIP3   OH253701   0.441   5.324   5.295  0.1036 -0.3508  0.1522
10737TIP3    H153702   0.523   5.278   5.277 -0.1291 -0.3439 -1.0188
10737TIP3    H253703   0.385   5.303   5.220 -0.6550  0.3517  0.5094
10738TIP3   OH253704   0.316   1.741  11.830  0.0445 -0.3849  0.6403
10738TIP3    H153705   0.378   1.812  11.819 -0.6731  0.3169  0.9954
10738TIP3    H253706   0.294   1.742  11.923 -0.3502 -0.7388  0.5563
10739TIP3   OH253707   3.084   5.795   6.668  0.0176  0.7376  0.1011
10739TIP3    H153708   3.047   5.767   6.752  1.6045 -1.2323  0.2092
10739TIP3    H253709   3.128   5.878   6.687 -1.0876  1.1936  0.7903
10740TIP3   OH253710   0.959   4.832   1.784 -0.3750  0.4316  0.3341
10740TIP3    H153711   0.896   4.904   1.782 -0.4103  0.3845 -1.3496
10740TIP3    H253712   1.043   4.875   1.804 -0.5406  0.8103  0.2294
10741TIP3   OH253713   3.485   1.584  16.819  0.0638  0.0250 -0.5873
10741TIP3    H153714   3.474   1.678  16.806  1.3538  0.2501 -0.1673
10741TIP3    H253715   3.396   1.550  16.828 -0.3648  1.5091  1.3301
10742TIP3   OH253716   5.007   6.338  12.228  0.8183 -0.0882  0.0339
10742TIP3    H153717   4.923   6.322  12.185  0.5472  2.2489 -0.4675
10742TIP3    H253718   5.072   6.317  12.161  0.6349 -1.3534  0.2309
10743TIP3   OH253719   3.918   2.963   4.294  0.1184 -0.3019  0.1564
10743TIP3    H153720   3.987   3.026   4.274  0.0708 -0.7617 -1.5901
10743TIP3    H253721   3.943   2.883   4.248 -0.8881 -0.9009  0.6054
10744TIP3   OH253722   1.238   5.812  16.269  0.3138  0.5645 -0.5210
10744TIP3    H153723   1.177   5.755  16.315  0.6350  0.1774 -0.5645
10744TIP3    H253724   1.325   5.778  16.294  0.4916  0.3116 -1.4490
10745TIP3   OH253725   0.289   5.942   2.376 -0.0715  0.0484 -0.0053
10745TIP3    H153726   0.324   6.020   2.332 -0.3283  0.0843 -0.1489
10745TIP3    H253727   0.259   5.886   2.304 -1.5372  0.5972  0.1499
10746TIP3   OH253728   2.020   3.384  12.297  0.1814  0.1380 -0.2848
10746TIP3    H153729   2.012   3.413  12.206  1.3242  1.1903 -0.0861
10746TIP3    H253730   2.114   3.387  12.314  0.0255 -0.5810  0.7698
10747TIP3   OH253731   6.685   0.796  13.913  0.0686  0.5149  0.0862
10747TIP3    H153732   6.597   0.816  13.881  0.3799 -1.4796 -2.3728
10747TIP3    H253733   6.671   0.755  13.998 -1.5455 -1.0760 -0.8810
10748TIP3   OH253734   2.097   5.499  14.909  0.3065  0.0905 -0.3342
10748TIP3    H153735   2.167   5.486  14.845 -0.7185 -1.2144 -1.2241
10748TIP3    H253736   2.102   5.423  14.966 -1.1217 -0.6215 -1.1293
10749TIP3   OH253737   3.376   2.079  15.247  0.2001 -0.1339 -0.8091
10749TIP3    H153738   3.399   2.050  15.159 -1.4879  0.2568 -1.4295
10749TIP3    H253739   3.458   2.112  15.284  0.8153  0.3818 -2.5112
10750TIP3   OH253740   2.841   1.520   2.578 -0.0481 -0.0285 -0.3571
10750TIP3    H153741   2.914   1.557   2.529 -0.8041  1.6239 -0.3347
10750TIP3    H253742   2.763   1.553   2.533 -0.7595  1.0190  1.5248
10751TIP3   OH253743   0.639   5.587  13.192 -0.4635  0.1480  0.0607
10751TIP3    H153744   0.615   5.615  13.281 -1.1704  1.4688 -0.5098
10751TIP3    H253745   0.638   5.668  13.141 -0.2319 -0.6180 -1.1946
10752TIP3   OH253746   6.206   1.324   1.026  0.3784  0.2765  0.2317
10752TIP3    H153747   6.267   1.287   1.091 -0.6147 -0.3860  0.8172
10752TIP3    H253748   6.250   1.403   0.994 -0.1272  2.1059  3.5575
10753TIP3   OH253749   3.911   3.362   0.082  0.2606  0.1861  0.2300
10753TIP3    H153750   3.906   3.452   0.114 -0.7531  0.3290 -0.2852
10753TIP3    H253751   4.004   3.347   0.065  0.3607  1.4053 -0.3887
10754TIP3   OH253752   3.679   6.471   0.254 -0.1223 -0.3531  0.2975
10754TIP3    H153753   3.771   6.496   0.255  0.2777 -1.7341  1.7523
10754TIP3    H253754   3.639   6.521   0.326 -0.2441 -0.6271  0.4242
10755TIP3   OH253755   5.266   6.034   3.670 -0.2590  0.8739  0.0796
10755TIP3    H153756   5.275   5.945   3.637 -0.6953  0.5793  0.7315
10755TIP3    H253757   5.229   6.083   3.597 -0.6819  0.3615 -0.0536
10756TIP3   OH253758   2.154   2.157  14.450  0.2598  0.0258  0.5462
10756TIP3    H153759   2.143   2.205  14.368 -1.4413 -0.6061  0.3669
10756TIP3    H253760   2.248   2.141  14.456  0.5663  1.2414 -0.6086
10757TIP3   OH253761   0.866   2.833  17.159  0.7498 -0.2706  0.3157
10757TIP3    H153762   0.883   2.809  17.067 -1.4566 -1.0775  0.0441
10757TIP3    H253763   0.832   2.753  17.198  0.6172  0.3750  1.5641
10758TIP3   OH253764   6.684   1.188  13.326  0.2186 -0.1748  0.3079
10758TIP3    H153765   6.733   1.107  13.314 -0.6287 -1.2476  3.3862
10758TIP3    H253766   6.751   1.257  13.324  0.9605 -0.8585 -2.1804
10759TIP3   OH253767   3.351   0.105  12.808  0.0106  0.2351 -0.1785
10759TIP3    H153768   3.314   0.151  12.733 -1.0563 -0.8816 -0.3756
10759TIP3    H253769   3.445   0.101  12.791 -0.2434 -0.2299 -1.5980
10760TIP3   OH253770   3.778   5.142   4.532 -0.4381  0.5854 -0.1742
10760TIP3    H153771   3.711   5.076   4.549  1.0562 -1.1964 -0.8548
10760TIP3    H253772   3.790   5.140   4.437  0.8529  0.5805 -0.0235
10761TIP3   OH253773   0.118   6.674   4.202  0.1904 -0.2847 -0.5225
10761TIP3    H153774   0.032   6.644   4.232  0.4800 -0.4506  0.1717
10761TIP3    H253775   0.148   6.606   4.143 -1.0252  0.7345 -2.4414
10762TIP3   OH253776   1.817   1.000   4.426 -0.3428  0.1314 -0.1821
10762TIP3    H153777   1.774   0.915   4.437 -1.2288  0.6275  0.2772
10762TIP3    H253778   1.747   1.064   4.437  0.6210  0.9923  1.3005
10763TIP3   OH253779   3.367   0.364   2.189 -0.1447 -0.1834  0.1633
10763TIP3    H153780   3.273   0.371   2.207 -0.6217 -2.4327 -0.9377
10763TIP3    H253781   3.385   0.270   2.196  2.2195  0.2888  1.1123
10764TIP3   OH253782   3.345   3.867   2.671 -0.0658 -0.3355  0.1885
10764TIP3    H153783   3.337   3.806   2.745 -0.7279 -1.6424 -0.9099
10764TIP3    H253784   3.278   3.933   2.689 -0.0302 -0.4747  0.8974
10765TIP3   OH253785   0.935   2.008   3.340 -0.1106  0.4588 -0.8887
10765TIP3    H153786   1.007   1.972   3.391  0.2995  1.6242 -0.6128
10765TIP3    H253787   0.970   2.087   3.300 -0.8094  0.2523 -1.9547
10766TIP3   OH253788   2.989   0.705   4.598 -1.2865  0.4159 -0.6488
10766TIP3    H153789   2.937   0.719   4.677 -1.2564 -1.6839 -0.2087
10766TIP3    H253790   2.929   0.660   4.538 -0.7758  0.4322 -1.1734
10767TIP3   OH253791   2.003   6.504  11.995  0.8084  0.1354  0.1625
10767TIP3    H153792   1.941   6.561  12.040 -0.9844 -1.1615 -0.5336
10767TIP3    H253793   1.948   6.438  11.952  2.6120 -0.3768 -1.5014
10768TIP3   OH253794   2.000   3.458   1.638 -0.3121  0.1592 -0.5132
10768TIP3    H153795   2.094   3.441   1.627 -0.1283  1.1634 -0.5725
10768TIP3    H253796   1.972   3.394   1.703  0.5199  0.1613 -0.1379
10769TIP3   OH253797   1.965   1.869  16.999 -0.7416 -0.7737  0.0151
10769TIP3    H153798   2.006   1.782  16.990 -1.9574 -1.2727 -1.0664
10769TIP3    H253799   1.962   1.902  16.909 -0.6907  0.2175  0.3746
10770TIP3   OH253800   3.091   6.217   6.091  0.3891  0.2937  0.4215
10770TIP3    H153801   3.032   6.193   6.163 -0.6224 -0.0940 -0.5140
10770TIP3    H253802   3.158   6.271   6.132 -0.5392  0.6332  1.5425
10771TIP3   OH253803   5.071   4.223   6.286 -0.3448  0.2865 -0.0976
10771TIP3    H153804   5.104   4.248   6.372  0.7043 -1.4498  0.0465
10771TIP3    H253805   4.995   4.168   6.305  0.0802 -0.3626 -0.2606
10772TIP3   OH253806   0.008   2.808  17.165  0.0573  0.0073 -0.2959
10772TIP3    H153807   0.067   2.842  17.232 -0.8488  0.3839  0.3304
10772TIP3    H253808  -0.079   2.810  17.206 -0.3450 -0.8952 -1.0617
10773TIP3   OH253809   4.973   4.898   2.325  0.1824  0.8744 -0.3922
10773TIP3    H153810   5.001   4.913   2.416  1.9879 -1.2166 -0.5136
10773TIP3    H253811   4.878   4.901   2.328  0.1967  0.5864  1.6419
10774TIP3   OH253812   2.974   6.807  15.872  0.1819  0.3017 -0.4195
10774TIP3    H153813   2.972   6.777  15.781 -0.8944  1.1053 -0.6775
10774TIP3    H253814   2.961   6.727  15.923 -0.8519  0.0437 -1.0450
10775TIP3   OH253815   3.720   6.806  12.328  0.4904 -0.1373 -0.0857
10775TIP3    H153816   3.679   6.877  12.378 -0.2240  0.2624 -1.2259
10775TIP3    H253817   3.788   6.849  12.276  0.0799 -0.2859 -0.7554
10776TIP3   OH253818   4.719   5.196  13.958  0.2604 -1.0752  0.1374
10776TIP3    H153819   4.755   5.149  14.033 -0.8306 -0.2782  1.2182
10776TIP3    H253820   4.761   5.157  13.882  2.7140 -0.7484  1.2532
10777TIP3   OH253821   0.601   6.397  11.434  0.0264 -0.6244 -0.6242
10777TIP3    H153822   0.591   6.378  11.341  0.0368  0.8374 -0.9590
10777TIP3    H253823   0.667   6.466  11.437  0.0949 -0.7201  0.4786
10778TIP3   OH253824   2.803   0.522  15.707  0.0080 -0.2295  0.1231
10778TIP3    H153825   2.845   0.502  15.624 -1.0144 -0.2549 -0.4110
10778TIP3    H253826   2.709   0.524  15.686 -0.3666 -1.4365  1.5076
10779TIP3   OH253827   4.438   6.697  16.126 -0.5814 -0.0008 -0.1926
10779TIP3    H153828   4.483   6.687  16.210 -0.1547  0.6301 -0.3364
10779TIP3    H253829   4.393   6.614  16.112 -0.7749 -0.0620  0.7295
10780TIP3   OH253830   1.489   5.202  13.886 -0.6264 -0.1664  0.3406
10780TIP3    H153831   1.558   5.188  13.952  0.4167 -1.6732 -0.9838
10780TIP3    H253832   1.532   5.252  13.817 -1.1238 -0.3572 -0.1093
10781TIP3   OH253833   1.776   5.698  11.600 -0.1525  0.3658 -0.4892
10781TIP3    H153834   1.815   5.701  11.688 -2.1421 -2.0220  0.5949
10781TIP3    H253835   1.756   5.790  11.580  2.4238  1.2402  0.4772
10782TIP3   OH253836   2.815   0.018   1.932  0.1756 -0.5458 -0.2100
10782TIP3    H153837   2.906   0.020   1.962  0.3851 -0.8397 -0.8176
10782TIP3    H253838   2.817   0.065   1.849 -0.1187 -1.1176 -0.5361
10783TIP3   OH253839   4.898   2.824   4.814 -0.8376  0.3355  0.4115
10783TIP3    H153840   4.939   2.907   4.838  0.1690  0.4524 -1.4928
10783TIP3    H253841   4.822   2.849   4.761 -0.8651  0.0652  0.3207
10784TIP3   OH253842   4.474   1.872  15.961 -0.4959  0.1789  0.2480
10784TIP3    H153843   4.522   1.865  16.043 -0.3323 -0.8013  0.0898
10784TIP3    H253844   4.382   1.866  15.986 -0.6851  3.3093  0.6841
10785TIP3   OH253845   5.230   4.398   5.780 -0.4666  0.3170 -0.5715
10785TIP3    H153846   5.306   4.441   5.741 -0.7887  0.9037 -0.5584
10785TIP3    H253847   5.261   4.367   5.865  0.4447 -1.6039 -1.5444
10786TIP3   OH253848   2.168   5.019  15.280 -0.2853 -0.3350 -0.3037
10786TIP3    H153849   2.139   4.991  15.367 -1.8468 -2.2194 -1.3528
10786TIP3    H253850   2.197   4.939  15.237 -0.1635  0.4481 -1.7523
10787TIP3   OH253851   4.079   4.049   0.283  0.0455  0.4700 -0.4963
10787TIP3    H153852   4.127   4.105   0.344  0.2144 -0.1612 -0.0402
10787TIP3    H253853   4.045   4.109   0.217  2.1214  0.8490 -1.2715
10788TIP3   OH253854   1.206   2.243  16.566 -0.0818 -0.4122  0.5641
10788TIP3    H153855   1.267   2.186  16.518  1.9215  0.4302  1.9628
10788TIP3    H253856   1.230   2.332  16.538 -0.0103 -0.0140  1.8516
10789TIP3   OH253857   2.253   0.361  15.618 -0.1263 -0.2163  0.2095
10789TIP3    H153858   2.240   0.304  15.694 -0.4070 -0.6411 -0.1485
10789TIP3    H253859   2.165   0.392  15.596 -0.1112 -0.4482 -0.2039
10790TIP3   OH253860   6.493   1.280  12.203 -0.3296  0.0894  0.8751
10790TIP3    H153861   6.466   1.219  12.272  1.2583 -0.8026  0.7656
10790TIP3    H253862   6.581   1.308  12.229 -0.6288  1.5513  0.3821
10791TIP3   OH253863   2.108   5.096  11.679 -0.0322 -0.7341  0.0193
10791TIP3    H153864   2.052   5.094  11.756  0.7854 -2.6564  0.6165
10791TIP3    H253865   2.051   5.130  11.609 -0.7519  1.1111  1.4390
10792TIP3   OH253866   4.731   1.068   3.857  0.7629 -0.2844  0.0516
10792TIP3    H153867   4.785   0.992   3.834 -1.6461 -3.4429  3.5963
10792TIP3    H253868   4.678   1.085   3.780  2.1387 -1.4270 -1.2070
10793TIP3   OH253869   5.227   2.661   5.576 -0.1527 -0.6553  0.3380
10793TIP3    H153870   5.200   2.603   5.505 -1.9987 -2.2823  2.2306
10793TIP3    H253871   5.312   2.694   5.548  0.1029 -2.7594 -1.7244
10794TIP3   OH253872   6.549   5.595  15.474 -0.6429 -0.8540 -0.4311
10794TIP3    H153873   6.519   5.640  15.553  1.5414 -0.2769  0.1445
10794TIP3    H253874   6.483   5.616  15.408 -0.7635  1.5755  0.3469
10795TIP3   OH253875   4.523   0.613   4.483  0.2059 -0.4420 -0.2678
10795TIP3    H153876   4.596   0.671   4.462  0.3178 -0.3787  0.2884
10795TIP3    H253877   4.539   0.535   4.430 -0.7892  0.6246 -2.2340
10796TIP3   OH253878   4.091   1.268  13.883  0.5224 -0.4783  0.1252
10796TIP3    H153879   4.004   1.240  13.854 -0.5046 -1.1006  3.4639
10796TIP3    H253880   4.074   1.325  13.957  2.9403  2.0503 -1.0990
10797TIP3   OH253881   5.258   4.160   5.456  0.3945 -0.1837 -0.0859
10797TIP3    H153882   5.323   4.175   5.524 -0.1394  2.2050 -0.0190
10797TIP3    H253883   5.278   4.225   5.389 -1.3531  0.0229 -0.4587
10798TIP3   OH253884   5.179   3.409   5.462 -0.3060  0.8983 -0.0218
10798TIP3    H153885   5.248   3.473   5.478  2.1381 -1.1081 -1.7866
10798TIP3    H253886   5.170   3.362   5.545  0.7182  0.9798  0.1525
10799TIP3   OH253887   0.239   6.130  11.606 -0.1921  0.1074  0.3345
10799TIP3    H153888   0.298   6.169  11.541 -1.0170  1.2851  0.2549
10799TIP3    H253889   0.158   6.181  11.598 -0.6620 -0.4079  1.5784
10800TIP3   OH253890   4.633   5.515   2.084  0.4254  0.1558  0.2597
10800TIP3    H153891   4.595   5.603   2.083 -0.3141 -0.1034  2.2956
10800TIP3    H253892   4.575   5.463   2.027  1.1429  1.0319 -1.3527
10801TIP3   OH253893   0.030   3.553   3.184  0.4596  0.4398 -0.2659
10801TIP3    H153894   0.115   3.572   3.145 -0.3389  1.1079 -1.8048
10801TIP3    H253895   0.014   3.460   3.164  0.8158  0.3147  0.0240
10802TIP3   OH253896   5.938   1.983  12.111 -0.1997 -0.3797 -0.8941
10802TIP3    H153897   5.998   1.976  12.036  0.9810 -0.8448  0.0509
10802TIP3    H253898   5.959   1.906  12.165 -3.2184 -1.8579 -1.5889
10803TIP3   OH253899   5.696   5.633   3.791 -0.4524  0.2942 -0.0363
10803TIP3    H153900   5.649   5.591   3.719  0.1318 -0.1657 -0.1650
10803TIP3    H253901   5.777   5.665   3.751  0.7420 -1.5580  0.7208
10804TIP3   OH253902   1.765   3.419  13.363  0.2595 -0.0411  0.3935
10804TIP3    H153903   1.842   3.362  13.353  1.2743  0.4939  3.7033
10804TIP3    H253904   1.693   3.370  13.324  2.1700 -0.5383 -2.9550
10805TIP3   OH253905   3.008   4.450   3.905 -0.2677  0.0702 -0.9051
10805TIP3    H153906   3.029   4.421   3.817  0.6386  0.8254 -0.9623
10805TIP3    H253907   3.084   4.423   3.958 -0.4517  0.3020 -0.5172
10806TIP3   OH253908   6.532   4.700  10.554 -0.1305 -0.3073 -0.2091
10806TIP3    H153909   6.622   4.677  10.575  0.2724  0.3473 -1.1626
10806TIP3    H253910   6.537   4.788  10.517 -0.7070 -1.3971 -3.2120
10807TIP3   OH253911   4.987   5.815  11.050  0.6136  0.1093 -0.4377
10807TIP3    H153912   4.907   5.824  11.103 -0.4333 -1.4900 -1.6610
10807TIP3    H253913   5.047   5.767  11.106 -0.4654 -1.5285 -0.6115
10808TIP3   OH253914   4.312   1.331   1.900 -0.0900  0.1197  0.3124
10808TIP3    H153915   4.347   1.345   1.988  1.1467 -0.4579 -0.0658
10808TIP3    H253916   4.386   1.345   1.842 -0.7686 -0.0158 -0.6051
10809TIP3   OH253917   0.190   3.415  11.239 -0.1380 -0.1031 -0.1735
10809TIP3    H153918   0.128   3.488  11.242  0.2615  0.4666 -3.0535
10809TIP3    H253919   0.242   3.425  11.319 -1.6494  1.3009  0.7062
10810TIP3   OH253920   3.679   0.798   5.454 -0.3342 -0.6605  0.1344
10810TIP3    H153921   3.691   0.892   5.466  1.8101 -0.9686  0.7513
10810TIP3    H253922   3.647   0.789   5.364 -1.2760  0.6808  0.3117
10811TIP3   OH253923   2.593   4.945  11.163 -0.0709  0.4021 -0.0525
10811TIP3    H153924   2.534   5.000  11.214 -1.3036  1.3682 -2.3478
10811TIP3    H253925   2.584   4.858  11.202 -1.5141  0.9328  0.8945
10812TIP3   OH253926   4.352   3.627   0.626  0.2189  0.1614 -0.5502
10812TIP3    H153927   4.345   3.669   0.540 -1.4103  0.3908 -0.3384
10812TIP3    H253928   4.445   3.607   0.635  0.4272  0.1145 -2.3745
10813TIP3   OH253929   1.403   2.686   3.327  0.1037  0.0584 -0.4121
10813TIP3    H153930   1.431   2.775   3.304  0.9996 -0.2828 -0.7085
10813TIP3    H253931   1.485   2.636   3.331 -0.4441 -0.9275 -1.0470
10814TIP3   OH253932   6.732   6.206   5.626  0.2692 -0.2967 -0.6050
10814TIP3    H153933   6.771   6.252   5.700  0.0624 -1.0952  0.0163
10814TIP3    H253934   6.655   6.162   5.663  0.0484 -0.5462 -1.3352
10815TIP3   OH253935   2.506   5.065   1.862 -0.1352  1.3088  0.2891
10815TIP3    H153936   2.436   5.041   1.923 -1.5840  1.5192 -1.2049
10815TIP3    H253937   2.460   5.103   1.787  1.5540  0.8158 -1.0542
10816TIP3   OH253938   0.169   3.001  15.281 -0.0426  0.5649 -0.0498
10816TIP3    H153939   0.107   2.940  15.320 -1.3769  2.0785  0.3068
10816TIP3    H253940   0.119   3.083  15.271  2.4559  2.5914  2.3280
10817TIP3   OH253941   3.493   0.597   3.901  0.4704  0.0385 -0.5489
10817TIP3    H153942   3.427   0.607   3.971  1.1206  1.0486 -0.0624
10817TIP3    H253943   3.559   0.664   3.920  1.2476 -0.4378 -1.4843
10818TIP3   OH253944   0.806   0.576  10.654  0.6525 -0.1639  0.0521
10818TIP3    H153945   0.777   0.660  10.621  0.2834 -0.6344 -0.8528
10818TIP3    H253946   0.902   0.581  10.652  0.6359  0.3679  0.3897
10819TIP3   OH253947   6.627   0.719   6.097  0.1540  0.5117 -0.0874
10819TIP3    H153948   6.712   0.722   6.054 -0.0048 -0.7000 -0.5331
10819TIP3    H253949   6.635   0.778   6.172  1.0289  1.2373 -0.7325
10820TIP3   OH253950   2.771   1.612  14.170 -0.3279 -0.1346  0.1263
10820TIP3    H153951   2.749   1.584  14.259  0.1407 -0.6860  0.0774
10820TIP3    H253952   2.738   1.541  14.114 -0.4576  0.1230 -0.1273
10821TIP3   OH253953   5.279   0.016  15.739  0.3877 -0.4104 -0.1707
10821TIP3    H153954   5.315   0.068  15.811 -1.9600 -0.6343  1.2536
10821TIP3    H253955   5.290  -0.075  15.768 -0.5425 -0.5031 -0.0966
10822TIP3   OH253956   1.180   2.680  12.210  0.4918 -0.0649 -0.1274
10822TIP3    H153957   1.128   2.649  12.135  0.4368  0.4139 -0.2860
10822TIP3    H253958   1.251   2.615  12.217 -0.9647 -1.6035  1.0648
10823TIP3   OH253959   3.899   0.962  13.350 -0.0090  0.6744 -0.5582
10823TIP3    H153960   3.924   1.010  13.272 -0.0638 -2.6509 -2.7983
10823TIP3    H253961   3.980   0.925  13.384 -0.3024 -0.0205 -0.5897
10824TIP3   OH253962   4.374   0.256   3.011  0.2237  0.5659  0.0095
10824TIP3    H153963   4.412   0.200   3.078 -0.7723  1.6650  1.5676
10824TIP3    H253964   4.369   0.343   3.052  1.1883  1.7041 -2.1127
10825TIP3   OH253965   0.261   4.338   0.280 -0.3051 -0.0682 -0.4994
10825TIP3    H153966   0.320   4.333   0.355  0.0828 -1.4996 -0.8815
10825TIP3    H253967   0.174   4.353   0.318 -0.2596 -1.7379  0.3192
10826TIP3   OH253968   2.048   5.649   3.434 -0.5784  0.6350  0.0990
10826TIP3    H153969   2.141   5.660   3.455 -0.7352 -0.0499  1.2424
10826TIP3    H253970   2.030   5.557   3.454 -1.6185  0.8808  0.3294
10827TIP3   OH253971   0.155   0.407  16.484 -0.3690 -0.3251  0.6064
10827TIP3    H153972   0.063   0.431  16.488 -0.7964 -1.8580  0.5782
10827TIP3    H253973   0.196   0.452  16.558 -0.5874  2.4150 -0.7986
10828TIP3   OH253974   6.736   5.449   3.957 -0.5838  0.2797 -0.5743
10828TIP3    H153975   6.772   5.535   3.976 -0.8432  0.5321 -1.2019
10828TIP3    H253976   6.676   5.431   4.029  0.2591  0.1500  0.1228
10829TIP3   OH253977   6.266   6.139   5.764 -0.4068 -0.0285  0.1463
10829TIP3    H153978   6.225   6.066   5.717 -1.7146  0.4676  0.4848
10829TIP3    H253979   6.199   6.208   5.764  1.2494  1.6887 -1.3407
10830TIP3   OH253980   0.667   0.521   4.294 -0.2791 -0.1065  0.2375
10830TIP3    H153981   0.752   0.512   4.338 -0.9810  1.9380  2.1902
10830TIP3    H253982   0.681   0.483   4.207  2.6979  0.3504  0.4157
10831TIP3   OH253983   2.743   4.738  15.918  0.0349 -0.2454  0.1357
10831TIP3    H153984   2.694   4.662  15.885  0.5777 -0.6914  0.3451
10831TIP3    H253985   2.719   4.810  15.859 -0.7146 -0.5077  0.1176
10832TIP3   OH253986   0.503   2.832  15.982  0.4664 -0.3355 -0.3701
10832TIP3    H153987   0.424   2.786  15.953  0.0613 -1.4692  2.3029
10832TIP3    H253988   0.509   2.814  16.075  2.2034  2.3296  0.1363
10833TIP3   OH253989   2.710   5.824   0.018  0.4723 -0.5046 -0.6272
10833TIP3    H153990   2.717   5.765  -0.057  0.6857 -2.0686  0.5968
10833TIP3    H253991   2.616   5.835   0.032  0.4301 -1.1462 -0.4073
10834TIP3   OH253992   6.772   6.185  11.268  0.2115 -0.2112  0.0133
10834TIP3    H153993   6.716   6.112  11.241 -0.3327 -1.0128  2.8941
10834TIP3    H253994   6.720   6.263  11.248  1.0196 -0.4137 -3.6070
10835TIP3   OH253995   6.078   0.438  16.945  0.5772  0.6999  0.3992
10835TIP3    H153996   6.058   0.345  16.933 -1.5800  1.3183 -1.5302
10835TIP3    H253997   5.998   0.475  16.982 -0.4085  2.5020 -3.1414
10836TIP3   OH253998   6.586   3.516  16.914 -0.2843  0.1678  0.5191
10836TIP3    H153999   6.677   3.535  16.890 -0.2656 -0.3824  0.1204
10836TIP3    H254000   6.553   3.463  16.842 -1.2440  1.2021  0.1775
10837TIP3   OH254001   6.784   1.912   4.291 -0.2954 -0.4049 -0.0672
10837TIP3    H154002   6.870   1.913   4.250  1.3351 -0.3139  3.0969
10837TIP3    H254003   6.772   1.822   4.321 -0.7852 -0.1348  0.5710
10838TIP3   OH254004   1.591   4.156  15.332 -0.1979 -0.2264  0.3446
10838TIP3    H154005   1.587   4.144  15.427  0.1923 -0.1850  0.3667
10838TIP3    H254006   1.500   4.173  15.306  0.0669  2.9077  1.1215
10839TIP3   OH254007   4.015   4.430  13.325 -0.0248 -0.3934 -0.1230
10839TIP3    H154008   3.965   4.366  13.275 -0.0406 -1.0443  0.7034
10839TIP3    H254009   3.975   4.431  13.412  0.3670  0.2827  0.0655
10840TIP3   OH254010   5.153   3.569  14.367 -0.1722 -0.0665 -0.1320
10840TIP3    H154011   5.210   3.556  14.443 -0.9950 -2.1819  0.2129
10840TIP3    H254012   5.065   3.577  14.404 -0.4681 -0.1021 -0.8100
10841TIP3   OH254013   3.028   6.290  16.093 -1.5319  0.2796  0.0324
10841TIP3    H154014   2.975   6.253  16.163 -1.1473 -0.6677 -0.1662
10841TIP3    H254015   3.003   6.242  16.014 -2.1058  1.4738 -0.5332
10842TIP3   OH254016   5.191   0.613  11.349 -0.6195 -0.0320 -0.6575
10842TIP3    H154017   5.131   0.550  11.310 -0.3924  0.0438 -1.1457
10842TIP3    H254018   5.275   0.567  11.354 -0.0589  0.7082 -2.4686
10843TIP3   OH254019   1.075   6.606   5.933  0.1234 -0.5280  0.0112
10843TIP3    H154020   1.027   6.607   6.016 -0.4861 -2.9617 -0.2152
10843TIP3    H254021   1.007   6.607   5.866  0.2273 -3.7809 -0.3178
10844TIP3   OH254022   3.051   3.720   0.765  0.2803 -0.1973  0.3906
10844TIP3    H154023   3.022   3.632   0.787  1.5990 -0.5310  0.8857
10844TIP3    H254024   3.100   3.749   0.842 -0.4181  1.1228  0.3813
10845TIP3   OH254025   1.231   1.257   1.523  0.2784  0.7226 -0.0033
10845TIP3    H154026   1.285   1.191   1.480  0.9677  1.3427 -0.1173
10845TIP3    H254027   1.286   1.290   1.594 -0.7268 -0.0635  1.1705
10846TIP3   OH254028   3.509   3.555  11.764 -0.1212  0.5046 -0.2541
10846TIP3    H154029   3.494   3.593  11.851 -0.7706 -1.5847  0.6057
10846TIP3    H254030   3.488   3.626  11.704  0.3877  2.0284  1.2781
10847TIP3   OH254031   3.826   0.980  16.436  0.1947 -0.1966  0.1834
10847TIP3    H154032   3.740   0.968  16.477  1.1057 -1.6221  1.8274
10847TIP3    H254033   3.853   1.068  16.462 -0.8534  0.3656 -0.5724
10848TIP3   OH254034   3.201   0.687   1.629 -0.5029  0.3681 -0.4620
10848TIP3    H154035   3.167   0.742   1.559  0.6067 -1.7511 -2.7901
10848TIP3    H254036   3.294   0.677   1.608 -0.0952 -0.2058  1.4443
10849TIP3   OH254037   0.220   3.490  14.265 -0.2877 -0.1417  0.3122
10849TIP3    H154038   0.164   3.512  14.339  0.0962 -1.0406  0.8845
10849TIP3    H254039   0.200   3.399  14.245 -0.2219  0.0226 -0.5501
10850TIP3   OH254040   0.621   1.214   6.606  0.0571  0.1825  0.2928
10850TIP3    H154041   0.602   1.151   6.536 -1.2516  0.9406 -0.0834
10850TIP3    H254042   0.588   1.171   6.686 -0.9127  0.4074  0.0268
10851TIP3   OH254043   6.698   3.747   0.981 -0.1531  0.6797 -0.1602
10851TIP3    H154044   6.771   3.693   1.012  0.3974  0.5880 -1.5634
10851TIP3    H254045   6.713   3.832   1.023  0.9366  0.7495 -0.6453
10852TIP3   OH254046   3.946   1.925  12.132  0.3074 -0.3072 -0.1091
10852TIP3    H154047   3.886   1.864  12.087  0.1713  0.7113 -1.3448
10852TIP3    H254048   3.888   1.991  12.170  0.3590 -1.4982  2.2166
10853TIP3   OH254049   3.876   1.232  16.480 -0.0313  0.4516  0.1104
10853TIP3    H154050   3.912   1.301  16.536  0.8552  0.9105 -0.9967
10853TIP3    H254051   3.818   1.277  16.420  0.0768  0.1475 -0.2251
10854TIP3   OH254052   3.040   4.872   1.736  0.2455 -0.0203 -0.2303
10854TIP3    H154053   2.988   4.932   1.683 -0.1034  0.6880  0.8752
10854TIP3    H254054   3.122   4.860   1.688 -0.0815  0.5658 -0.9341
10855TIP3   OH254055   2.061   4.816  11.755  0.0678 -0.0980  0.0325
10855TIP3    H154056   1.966   4.823  11.744  0.2443  0.9419 -1.0460
10855TIP3    H254057   2.095   4.899  11.723  1.3789 -0.5852  0.0986
10856TIP3   OH254058   6.367   2.716  15.362 -0.3009  0.3322 -0.5655
10856TIP3    H154059   6.431   2.768  15.314  0.8841 -0.1816  0.4058
10856TIP3    H254060   6.305   2.781  15.398  1.1977  1.1325  0.6968
10857TIP3   OH254061   5.707   5.311   1.603 -0.2541  0.0793  0.0171
10857TIP3    H154062   5.674   5.226   1.573 -1.7612  1.3478 -2.1913
10857TIP3    H254063   5.782   5.330   1.547  1.2924 -0.5722  1.7666
10858TIP3   OH254064   3.153   4.926  11.146  0.2154 -0.1427 -0.6711
10858TIP3    H154065   3.216   4.877  11.199 -0.1417  0.7727  0.6586
10858TIP3    H254066   3.106   4.860  11.096  1.1432 -0.9643 -0.4733
10859TIP3   OH254067   0.241   5.453   4.570  0.2053  0.3022  0.6870
10859TIP3    H154068   0.271   5.425   4.656 -1.2402 -2.9556  0.3157
10859TIP3    H254069   0.199   5.537   4.585  0.1233 -0.0954  3.1580
10860TIP3   OH254070   4.127   2.767  11.981  0.4871  0.4072 -0.1995
10860TIP3    H154071   4.061   2.826  12.016  0.4549  0.4669 -0.3597
10860TIP3    H254072   4.209   2.797  12.020  0.3373 -0.0446  0.4687
10861TIP3   OH254073   5.481   0.320  13.579 -0.5200  0.0308 -0.3262
10861TIP3    H154074   5.520   0.335  13.493  0.3540  2.3148  0.3924
10861TIP3    H254075   5.390   0.295  13.560 -0.3865  0.6162 -1.9072
10862TIP3   OH254076   2.008   5.888  16.989 -0.3917  0.2028 -0.2476
10862TIP3    H154077   2.017   5.979  17.015  2.8381  0.0810 -0.5546
10862TIP3    H254078   2.050   5.839  17.060 -0.0528 -0.8479 -1.1435
10863TIP3   OH254079   1.990   5.989  13.102 -0.3906  0.3796  0.2994
10863TIP3    H154080   1.933   6.060  13.130  0.0979 -0.0314  2.5904
10863TIP3    H254081   1.949   5.910  13.137  0.1759 -0.2309 -0.3812
10864TIP3   OH254082   2.878   0.656   4.049  0.2681 -0.5058 -0.7252
10864TIP3    H154083   2.868   0.751   4.048 -1.0027 -0.6317 -1.2162
10864TIP3    H254084   2.947   0.638   3.985  0.1337  0.0394 -1.0256
10865TIP3   OH254085   1.757   5.066  12.449 -0.6230  0.4464 -0.1146
10865TIP3    H154086   1.846   5.037  12.429  0.1733  1.8260  1.2019
10865TIP3    H254087   1.741   5.036  12.539 -0.3742  2.5494  0.6926
10866TIP3   OH254088   2.733   0.380   1.404  0.4432 -0.4656 -0.0485
10866TIP3    H154089   2.714   0.472   1.422  2.1890 -0.1255  0.2855
10866TIP3    H254090   2.700   0.333   1.481  0.4455  0.0149  0.2497
10867TIP3   OH254091   0.137   3.553   1.313  0.4065  0.6262  0.1212
10867TIP3    H154092   0.148   3.638   1.356  1.6589  1.3454 -1.4810
10867TIP3    H254093   0.144   3.573   1.220 -0.4383 -1.1016 -0.3496
10868TIP3   OH254094   1.738   0.245   1.545  0.0936  0.0028  0.3470
10868TIP3    H154095   1.798   0.248   1.619  2.2778  2.0882 -1.3318
10868TIP3    H254096   1.743   0.332   1.506 -1.8816 -0.6371 -1.5512
10869TIP3   OH254097   5.179   3.167   2.752  0.1331  0.2415  0.0665
10869TIP3    H154098   5.168   3.257   2.722  1.0893  0.3626  0.0510
10869TIP3    H254099   5.108   3.154   2.815  0.1855  1.1148  0.3190
10870TIP3   OH254100   6.685   5.026  12.930  0.2943 -0.2879  0.2510
10870TIP3    H154101   6.675   4.946  12.982 -0.5335  0.5872  1.5059
10870TIP3    H254102   6.734   5.085  12.987 -2.7240  1.5553  1.1057
10871TIP3   OH254103   0.891   0.868   6.436  0.2304 -0.1009 -0.0758
10871TIP3    H154104   0.837   0.830   6.367 -1.8486  1.5120  0.5478
10871TIP3    H254105   0.835   0.934   6.476  1.7496 -0.2167  2.4449
10872TIP3   OH254106   4.375   0.734   2.341  0.5871 -0.2614 -0.1385
10872TIP3    H154107   4.327   0.658   2.375  1.8927 -1.0202  0.0840
10872TIP3    H254108   4.358   0.734   2.247 -0.8932  0.2720  0.1030
10873TIP3   OH254109   3.617   1.903   5.842  0.2589 -0.0782 -0.5386
10873TIP3    H154110   3.565   1.853   5.906  0.6846 -0.6209 -0.6076
10873TIP3    H254111   3.635   1.841   5.772  1.6940 -0.1499 -0.1316
10874TIP3   OH254112   5.161   3.349   1.144  0.3170 -0.2134 -0.0599
10874TIP3    H154113   5.208   3.426   1.178  1.2842 -0.5401 -0.6065
10874TIP3    H254114   5.183   3.279   1.206  0.0705 -0.2315  0.0067
10875TIP3   OH254115   4.616   1.681  16.803 -0.5690  0.2506  0.0907
10875TIP3    H154116   4.643   1.591  16.786 -0.1841  0.2108  0.8676
10875TIP3    H254117   4.522   1.675  16.821 -0.4105 -0.1055  0.8547
10876TIP3   OH254118   2.829   2.384  12.833  0.2506 -0.3959 -0.2542
10876TIP3    H154119   2.784   2.301  12.818 -1.3772  0.4784 -0.4403
10876TIP3    H254120   2.920   2.368  12.806 -0.3193 -1.7554 -1.4803
10877TIP3   OH254121   2.833   1.693   4.780  0.1106  0.0458 -0.0964
10877TIP3    H154122   2.863   1.632   4.847  0.4215 -0.3266 -0.5713
10877TIP3    H254123   2.740   1.706   4.800  0.4244  0.7679  1.0420
10878TIP3   OH254124   5.969   4.480  13.312  0.4615  0.5214  0.2680
10878TIP3    H154125   6.057   4.505  13.339  1.1409  0.5361 -1.7450
10878TIP3    H254126   5.945   4.409  13.371  1.9276  0.3550  0.7077
10879TIP3   OH254127   3.586   3.139   2.285 -0.2105 -0.2105  0.7099
10879TIP3    H154128   3.629   3.055   2.273  0.5944  0.2057  0.6281
10879TIP3    H254129   3.645   3.189   2.342  0.0348  0.8123 -0.4003
10880TIP3   OH254130   6.434   4.354  10.797 -0.8783 -0.8926 -0.2496
10880TIP3    H154131   6.493   4.287  10.763  1.7133  1.2019 -0.1964
10880TIP3    H254132   6.417   4.411  10.722 -0.2675  0.2335  0.4375
10881TIP3   OH254133   4.239   1.267   4.653  0.0652  0.3629 -0.2556
10881TIP3    H154134   4.261   1.234   4.566 -1.8797  0.2787 -0.7689
10881TIP3    H254135   4.179   1.340   4.636  0.0977  0.6929  1.0003
10882TIP3   OH254136   4.752   6.630  13.230  0.2115 -0.2538 -0.2243
10882TIP3    H154137   4.811   6.592  13.295 -0.4892  0.3504  0.7958
10882TIP3    H254138   4.671   6.579  13.238 -0.4533  0.8916  0.5826
10883TIP3   OH254139   1.441   0.932   3.654 -0.1224 -0.3658 -0.4313
10883TIP3    H154140   1.378   1.002   3.672  1.4906  0.8057  0.9665
10883TIP3    H254141   1.400   0.853   3.690 -0.9134  0.3138  0.1948
10884TIP3   OH254142   5.345   0.207   1.922  0.3936  0.3093  0.0262
10884TIP3    H154143   5.254   0.188   1.902  0.3259  0.3103  0.3393
10884TIP3    H254144   5.349   0.303   1.925  0.2049  0.2915  0.9509
10885TIP3   OH254145   4.880   5.074  16.743 -0.8432 -0.1082  0.1346
10885TIP3    H154146   4.971   5.055  16.720 -0.8824 -0.8195  0.5382
10885TIP3    H254147   4.841   5.107  16.662 -0.3650 -0.2977 -0.1757
10886TIP3   OH254148   6.553   1.184   1.458 -0.5019 -0.0398 -0.2594
10886TIP3    H154149   6.571   1.091   1.470 -2.3690 -0.3747  0.2646
10886TIP3    H254150   6.579   1.224   1.541  1.3846  0.1283 -0.8868
10887TIP3   OH254151   1.085   2.670  14.732  0.1664 -0.0561 -0.3915
10887TIP3    H154152   1.078   2.702  14.643 -1.1923 -0.0968 -0.3219
10887TIP3    H254153   1.169   2.704  14.764 -0.2448  1.6450 -1.0178
10888TIP3   OH254154   0.041   0.057   6.641  0.0911  0.3565 -0.2029
10888TIP3    H154155  -0.054   0.043   6.642  0.1017  0.2953  0.6056
10888TIP3    H254156   0.076  -0.016   6.590  0.0227 -1.9419  2.7021
10889TIP3   OH254157   1.861   0.364  14.923 -0.0682  0.3101  0.8243
10889TIP3    H154158   1.912   0.437  14.890  0.2908 -0.0350  0.6090
10889TIP3    H254159   1.921   0.289  14.920 -0.8689 -0.3134 -0.3714
10890TIP3   OH254160   6.553   3.418   3.835  0.2229  0.4488  0.3019
10890TIP3    H154161   6.521   3.330   3.856  2.0430 -0.2363  0.3412
10890TIP3    H254162   6.640   3.404   3.800  0.9723  2.3218  1.2822
10891TIP3   OH254163   6.565   0.655  14.695 -0.3171  0.0065 -0.5164
10891TIP3    H154164   6.612   0.644  14.613  0.7203  1.5646 -0.1634
10891TIP3    H254165   6.517   0.737  14.685 -2.0531 -0.9266 -0.3946
10892TIP3   OH254166   4.665   3.870   5.214  0.6726 -0.0483  0.6285
10892TIP3    H154167   4.711   3.947   5.247  0.6328 -0.6072  2.0627
10892TIP3    H254168   4.725   3.832   5.151  1.1817  0.5195  0.7595
10893TIP3   OH254169   2.871   5.867   3.982  0.6317  0.0906  0.0798
10893TIP3    H154170   2.916   5.796   4.027  0.7230 -0.4539 -0.8334
10893TIP3    H254171   2.847   5.929   4.051  1.1498 -0.5005  0.8026
10894TIP3   OH254172   5.737   2.018  11.048 -0.5136  0.6241 -0.1397
10894TIP3    H154173   5.707   1.961  10.977 -0.7523  1.5320 -0.7973
10894TIP3    H254174   5.777   2.093  11.003  1.4077  0.1720  0.7035
10895TIP3   OH254175   3.953   2.631   5.903  0.1476  0.2741 -0.0412
10895TIP3    H154176   4.035   2.592   5.873 -0.4835 -0.1510 -1.2494
10895TIP3    H254177   3.885   2.569   5.877 -0.6001  0.7409  0.7180
10896TIP3   OH254178   3.086   2.528  12.368  0.1996 -0.2152 -0.3392
10896TIP3    H154179   3.119   2.471  12.300  0.8829 -0.0641 -0.1399
10896TIP3    H254180   3.112   2.616  12.341  0.0253 -0.1021 -0.1457
10897TIP3   OH254181   2.048   4.682   1.010 -0.2037 -0.4175 -0.5013
10897TIP3    H154182   1.955   4.677   1.032 -0.3773  1.1030 -0.8057
10897TIP3    H254183   2.052   4.662   0.916 -0.3064  0.1195 -0.6238
10898TIP3   OH254184   4.546   6.752   6.025 -0.1527  0.0973  0.1147
10898TIP3    H154185   4.574   6.685   5.962 -0.4684  0.5515 -0.5114
10898TIP3    H254186   4.536   6.704   6.108 -2.1283 -1.0319 -0.7093
10899TIP3   OH254187   5.564   1.573   4.314  0.2087  0.1026 -0.2631
10899TIP3    H154188   5.533   1.654   4.274  0.7783  0.3968 -0.1210
10899TIP3    H254189   5.638   1.600   4.369  0.9374 -0.6228 -0.8664
10900TIP3   OH254190   3.933   5.347   3.120  0.3936  0.3668 -0.0523
10900TIP3    H154191   3.948   5.441   3.110  0.3646  0.4006  0.2282
10900TIP3    H254192   3.954   5.311   3.033  1.9630  0.4282  0.2660
10901TIP3   OH254193   1.770   3.673  15.788 -0.4510 -0.0625 -0.1551
10901TIP3    H154194   1.779   3.680  15.693 -2.4493  0.8888 -0.3410
10901TIP3    H254195   1.771   3.579  15.806 -0.8759 -0.2908 -1.2461
10902TIP3   OH254196   1.828   4.459  13.284 -0.0381  0.1198 -0.2914
10902TIP3    H154197   1.796   4.428  13.200 -1.9429  1.4265 -0.1035
10902TIP3    H254198   1.914   4.497  13.264 -0.3388  0.1695 -1.5802
10903TIP3   OH254199   5.908   2.918  11.628  0.2116  0.3906  0.2777
10903TIP3    H154200   5.976   2.855  11.606  0.6463  0.6016  0.9887
10903TIP3    H254201   5.948   2.975  11.694 -1.0822 -0.3624  1.7872
10904TIP3   OH254202   3.455   0.796  11.791  0.0854  0.3665 -0.1537
10904TIP3    H154203   3.526   0.843  11.835  0.6193 -0.8246  0.3267
10904TIP3    H254204   3.415   0.860  11.733  1.1756  1.2240  0.0143
10905TIP3   OH254205   1.263   2.616   2.701  0.3377  0.4528  0.2586
10905TIP3    H154206   1.180   2.626   2.747 -0.6428 -1.3716 -0.9798
10905TIP3    H254207   1.253   2.535   2.650  1.9796  1.4434 -1.8111
10906TIP3   OH254208   1.909   0.387   4.243 -0.2017  0.2665  0.5137
10906TIP3    H154209   1.851   0.436   4.186  1.2800  0.0895 -1.2252
10906TIP3    H254210   1.948   0.320   4.187 -0.1975 -1.2298  2.2135
10907TIP3   OH254211   4.756   0.742  16.452 -0.3976  0.6769  0.0042
10907TIP3    H154212   4.759   0.647  16.461  1.4709  0.7966  1.1904
10907TIP3    H254213   4.742   0.757  16.359 -1.1163 -0.7486 -0.1477
10908TIP3   OH254214   5.177   5.718   6.182  0.3729  0.1375 -0.5875
10908TIP3    H154215   5.254   5.694   6.234  0.6386  0.4778 -0.8141
10908TIP3    H254216   5.191   5.811   6.161 -1.2234  0.8781  1.3328
10909TIP3   OH254217   2.397   3.243   3.024 -0.2025 -0.1115  0.5494
10909TIP3    H154218   2.332   3.201   3.079 -0.6848  0.0807  0.1301
10909TIP3    H254219   2.347   3.304   2.970  0.2496 -0.3745 -0.1738
10910TIP3   OH254220   0.805   4.593   0.069 -0.8076  0.3769  0.3904
10910TIP3    H154221   0.714   4.579   0.044 -1.2892  1.3560  1.4818
10910TIP3    H254222   0.830   4.514   0.116 -1.0529  0.0519 -0.0238
10911TIP3   OH254223   3.942   1.491  15.072 -0.0683  0.1007 -0.3527
10911TIP3    H154224   3.999   1.482  14.995  0.0751 -0.4089 -0.1868
10911TIP3    H254225   3.996   1.537  15.136  0.7481 -1.8267  0.3996
10912TIP3   OH254226   4.447   2.557   6.096 -0.0449 -0.5812 -0.5762
10912TIP3    H154227   4.426   2.640   6.052 -1.7189 -0.9961 -0.6367
10912TIP3    H254228   4.542   2.547   6.085 -0.0411  0.5723 -1.8862
10913TIP3   OH254229   0.330   6.789  16.060  0.3716  0.1186  1.0080
10913TIP3    H154230   0.239   6.759  16.063 -0.1071  1.3716 -0.1107
10913TIP3    H254231   0.360   6.785  16.151 -0.7248 -0.5393  1.3510
10914TIP3   OH254232   3.912   1.115  10.230  0.2725 -0.7212 -0.5141
10914TIP3    H154233   3.996   1.111  10.184  1.0468  0.1415  0.7475
10914TIP3    H254234   3.898   1.026  10.263  0.6312 -0.8998 -0.8495
10915TIP3   OH254235   6.029   1.482   3.587  0.4749 -0.2582 -0.0268
10915TIP3    H154236   6.000   1.566   3.621  1.0095  0.2872 -0.9010
10915TIP3    H254237   5.966   1.419   3.622  0.7394  0.3315  1.6055
10916TIP3   OH254238   1.511   1.446   1.148 -0.4721 -0.3650  0.0306
10916TIP3    H154239   1.530   1.518   1.208  1.1826 -2.2673  1.9546
10916TIP3    H254240   1.583   1.448   1.084 -0.2949 -0.4102  0.2253
10917TIP3   OH254241   0.507   0.210  16.031 -0.1735  0.5391  0.0255
10917TIP3    H154242   0.580   0.188  15.973  0.7957 -1.4397  1.8606
10917TIP3    H254243   0.440   0.144  16.011 -0.4616  0.8103  0.0859
10918TIP3   OH254244   4.571   3.070  11.595  0.0442 -0.3068  0.6934
10918TIP3    H154245   4.603   3.154  11.628  0.4209 -0.2666  0.2374
10918TIP3    H254246   4.484   3.089  11.561 -1.5137 -0.8506  3.9728
10919TIP3   OH254247   2.781   4.912   2.854  0.4987 -0.4233 -0.0614
10919TIP3    H154248   2.854   4.970   2.877  1.9446 -2.8958  2.1602
10919TIP3    H254249   2.805   4.875   2.770  2.0410 -1.4158  0.7648
10920TIP3   OH254250   2.151   6.456   2.846 -0.0719  0.3992 -0.1910
10920TIP3    H154251   2.150   6.406   2.765 -3.8491  1.6006 -1.1026
10920TIP3    H254252   2.159   6.547   2.818 -1.0276  0.8129  0.8023
10921TIP3   OH254253   6.334   2.781  12.559 -0.3293  0.0613 -0.2565
10921TIP3    H154254   6.324   2.686  12.572 -1.2680  0.1951  0.0221
10921TIP3    H254255   6.329   2.792  12.464  0.4010 -0.2324 -0.3362
10922TIP3   OH254256   4.559   2.233  14.105 -0.1131  0.5601  0.2241
10922TIP3    H154257   4.494   2.243  14.174  0.1738  0.6302  0.4819
10922TIP3    H254258   4.643   2.248  14.148  0.0969  0.1642 -0.0454
10923TIP3   OH254259   6.456   0.553   1.119  0.5916  0.1029 -0.3464
10923TIP3    H154260   6.525   0.560   1.053 -0.1213 -1.4892 -1.3266
10923TIP3    H254261   6.491   0.493   1.185 -0.5210 -2.4488 -1.9043
10924TIP3   OH254262   1.331   1.191  13.416  0.3668  0.2723  0.1735
10924TIP3    H154263   1.281   1.123  13.462 -0.7773  1.8100  1.3011
10924TIP3    H254264   1.423   1.167  13.429  0.0552  0.1616  2.5216
10925TIP3   OH254265   3.351   1.959   5.103 -0.0334  0.2832  0.0404
10925TIP3    H154266   3.276   1.903   5.086  0.3049 -0.5718  1.2033
10925TIP3    H254267   3.360   1.958   5.198  1.9845 -0.3985 -0.1067
10926TIP3   OH254268   2.961   4.673  16.582  0.2868 -0.4735 -0.0030
10926TIP3    H154269   3.005   4.751  16.550  3.3225 -1.9200  0.2769
10926TIP3    H254270   3.001   4.656  16.667  0.1271 -2.6321 -0.2927
10927TIP3   OH254271   0.828   1.443  13.141 -0.0658  0.1787 -0.2552
10927TIP3    H154272   0.789   1.388  13.072  2.0798 -2.2946  0.3145
10927TIP3    H254273   0.804   1.399  13.223 -0.9041  1.9342  0.4796
10928TIP3   OH254274   5.315   1.397  15.641  0.4743 -0.4444  0.0330
10928TIP3    H154275   5.359   1.477  15.670 -0.1672 -0.0453 -0.0869
10928TIP3    H254276   5.284   1.356  15.721  0.4352 -0.3542  0.0646
10929TIP3   OH254277   0.092   2.152  13.981 -0.0906 -0.1527 -0.8085
10929TIP3    H154278   0.134   2.199  14.053  0.6620 -3.1209  0.8280
10929TIP3    H254279   0.165   2.126  13.924 -0.2771 -0.8995 -0.7136
10930TIP3   OH254280   0.719   1.014  14.355  0.0840 -0.6196  0.3973
10930TIP3    H154281   0.744   1.079  14.290 -1.1254 -0.8187 -0.2943
10930TIP3    H254282   0.752   0.931  14.321 -1.2608 -0.8469 -0.3954
10931TIP3   OH254283   2.978   1.031   0.551  0.2197 -0.3277 -0.0596
10931TIP3    H154284   2.935   1.103   0.505  0.6703 -0.0362 -0.0404
10931TIP3    H254285   3.044   1.074   0.606 -0.3758 -0.6570  0.9484
10932TIP3   OH254286   3.275   2.809  16.752 -0.2680  0.4935 -0.3339
10932TIP3    H154287   3.257   2.825  16.659  0.6037 -1.1535 -0.8329
10932TIP3    H254288   3.222   2.733  16.774  0.3014  0.2518  0.2381
10933TIP3   OH254289   2.474   6.223  12.472 -0.2644 -0.2084 -0.1721
10933TIP3    H154290   2.400   6.193  12.525  1.0293  0.1616  1.9621
10933TIP3    H254291   2.538   6.152  12.479 -0.1967 -0.3050 -1.5874
10934TIP3   OH254292   4.575   0.236   1.271 -0.3215  0.1023 -0.2810
10934TIP3    H154293   4.609   0.311   1.320  1.1624  0.1415 -1.3131
10934TIP3    H254294   4.634   0.164   1.293  0.0531 -0.0106 -1.5801
10935TIP3   OH254295   2.722   2.202  12.474 -0.5945 -0.4832 -0.1898
10935TIP3    H154296   2.754   2.286  12.507  0.6229 -1.1851  0.4883
10935TIP3    H254297   2.691   2.156  12.552 -0.7868 -0.8502 -0.4817
10936TIP3   OH254298   4.492   6.777  12.423 -0.3350 -0.2563 -0.2238
10936TIP3    H154299   4.443   6.858  12.441 -2.1809 -1.0835 -1.2324
10936TIP3    H254300   4.425   6.708  12.422  1.2342 -1.8902  0.9330
10937TIP3   OH254301   1.051   1.373  12.836 -0.0580  0.3887 -0.3109
10937TIP3    H154302   1.047   1.280  12.858 -2.0843  1.0618  2.7372
10937TIP3    H254303   0.981   1.386  12.772 -0.7994  0.0671  0.4250
10938TIP3   OH254304   1.154   1.180   1.173 -0.8360  0.1319  0.0626
10938TIP3    H154305   1.152   1.232   1.253  0.8402 -0.0247  0.2456
10938TIP3    H254306   1.062   1.166   1.151 -1.3493 -0.0534  2.1148
10939TIP3   OH254307   2.307   2.775   4.360  0.4394 -0.1028 -1.0308
10939TIP3    H154308   2.336   2.706   4.301  2.6407  0.8721 -1.1679
10939TIP3    H254309   2.334   2.856   4.318 -0.0371  0.7314  0.2111
10940TIP3   OH254310   4.725   5.474  15.350  0.4724  0.1119 -0.3133
10940TIP3    H154311   4.733   5.435  15.263 -1.9975 -2.0104  0.2741
10940TIP3    H254312   4.792   5.430  15.402  1.1960  0.5550 -0.8537
10941TIP3   OH254313   4.666   2.192   3.840  0.0222  0.3080 -0.0635
10941TIP3    H154314   4.696   2.107   3.808 -0.4045  0.9595 -2.3259
10941TIP3    H254315   4.572   2.181   3.852 -0.0030  0.4165 -0.1677
10942TIP3   OH254316   3.188   3.377  15.705 -0.2564  0.4164  0.2203
10942TIP3    H154317   3.221   3.313  15.768  0.1231 -0.5879 -0.9566
10942TIP3    H254318   3.105   3.406  15.741 -0.6768 -1.1198  0.5666
10943TIP3   OH254319   2.025   2.521  12.191 -0.4212  0.1156 -0.2904
10943TIP3    H154320   1.971   2.587  12.148 -1.5220  0.1021  1.0191
10943TIP3    H254321   2.018   2.541  12.284  0.8343 -0.6607 -0.0100
10944TIP3   OH254322   1.315   6.644   0.298 -0.5181 -0.0365  0.3321
10944TIP3    H154323   1.291   6.733   0.274  0.8372  0.3718  0.4239
10944TIP3    H254324   1.231   6.599   0.310 -1.2702  1.6552  1.9610
10945TIP3   OH254325   4.042   6.296  11.344  0.4642  0.0025 -0.0051
10945TIP3    H154326   4.019   6.247  11.265 -1.0412 -0.8834  0.9293
10945TIP3    H254327   3.992   6.378  11.337 -0.4413 -0.4905  0.4472
10946TIP3   OH254328   2.985   0.521  16.845  0.5771 -0.0548 -0.6738
10946TIP3    H154329   3.021   0.550  16.929 -1.1134  0.5448 -0.1010
10946TIP3    H254330   3.031   0.440  16.826 -0.0450 -1.0643  1.6465
10947TIP3   OH254331   6.087   5.818   0.255  0.6497  0.3068  0.5329
10947TIP3    H154332   6.055   5.769   0.331 -0.7829  1.3198  0.6153
10947TIP3    H254333   6.046   5.904   0.263  2.2734  1.1916 -0.1870
10948TIP3   OH254334   1.955   0.088   5.537  0.1641 -0.8925  0.2728
10948TIP3    H154335   1.991  -0.000   5.533  1.4542 -0.4288  1.1719
10948TIP3    H254336   2.007   0.138   5.474 -0.0656 -0.5944  0.3157
10949TIP3   OH254337   2.856   3.653   5.723 -0.6040 -0.0143 -0.1375
10949TIP3    H154338   2.833   3.566   5.754  0.9881 -0.6589 -0.6445
10949TIP3    H254339   2.948   3.664   5.747 -0.4908  1.1182 -0.9558
10950TIP3   OH254340   1.194   1.859   1.032  0.7389  0.2720  0.4325
10950TIP3    H154341   1.110   1.878   1.072  1.0008 -0.2333  1.2418
10950TIP3    H254342   1.187   1.895   0.943 -0.4509 -0.0870  0.3632
10951TIP3   OH254343   6.249   1.399   3.443 -0.0126 -0.0699  0.2623
10951TIP3    H154344   6.174   1.429   3.494  0.3695  1.0091  0.2128
10951TIP3    H254345   6.262   1.467   3.377  0.2072 -0.8892 -0.5549
10952TIP3   OH254346   5.614   5.322   0.310  0.3363  0.6474 -0.4925
10952TIP3    H154347   5.643   5.279   0.229  1.2445 -3.6820  1.8244
10952TIP3    H254348   5.522   5.298   0.319  0.5832 -0.0117  0.3657
10953TIP3   OH254349   6.566   3.049  13.133  0.5792 -0.5937  0.5427
10953TIP3    H154350   6.471   3.058  13.136  0.6190 -0.3191  2.2500
10953TIP3    H254351   6.581   2.960  13.104 -0.1409 -0.1074 -1.4687
10954TIP3   OH254352   3.841   2.251   2.352  0.2570  0.2557  1.0697
10954TIP3    H154353   3.880   2.250   2.439  0.6330 -0.9125  0.9005
10954TIP3    H254354   3.751   2.281   2.366  0.8479  1.9203  1.6018
10955TIP3   OH254355   5.991   3.374  11.987 -0.3275  0.2244 -0.1713
10955TIP3    H154356   5.919   3.423  12.028  0.1278 -0.6624  1.8516
10955TIP3    H254357   6.062   3.437  11.979 -0.4206  0.4232  0.4809
10956TIP3   OH254358   1.657   3.099  13.535 -0.0933 -0.2103  0.4396
10956TIP3    H154359   1.618   3.134  13.616 -1.5491 -0.7166 -0.0084
10956TIP3    H254360   1.594   3.123  13.467  1.3260  0.5955 -0.6361
10957TIP3   OH254361   4.567   2.204  12.274  0.0513 -0.1186  0.0502
10957TIP3    H154362   4.662   2.211  12.276  0.1086 -0.1167 -1.6365
10957TIP3    H254363   4.541   2.211  12.366  1.7132 -0.8222  0.6107
10958TIP3   OH254364   3.095   3.933   4.456 -0.2076  0.5586  0.1208
10958TIP3    H154365   3.090   4.010   4.399 -1.0056  0.5028  0.0911
10958TIP3    H254366   3.003   3.914   4.476  0.0305  0.0836  0.7598
10959TIP3   OH254367   4.377   2.745  16.970 -0.1136  0.3517  0.7612
10959TIP3    H154368   4.462   2.702  16.980 -0.7084 -1.0216  0.1431
10959TIP3    H254369   4.397   2.828  16.927  1.0416  0.6494  1.8106
10960TIP3   OH254370   1.442   1.347  15.036  0.1950 -0.2336  0.0597
10960TIP3    H154371   1.430   1.282  15.106 -0.6349  0.1645  0.3053
10960TIP3    H254372   1.467   1.427  15.082 -0.9000  0.1775 -0.0311
10961TIP3   OH254373   0.062   3.801   4.437  0.4356 -0.5642 -0.3847
10961TIP3    H154374   0.087   3.732   4.500 -0.1150  2.7789  3.9881
10961TIP3    H254375   0.004   3.757   4.375  1.6325 -4.3788  0.9035
10962TIP3   OH254376   0.386   5.897   1.246 -0.3383 -0.0040  0.1800
10962TIP3    H154377   0.448   5.941   1.188 -0.8303 -0.3909 -0.6687
10962TIP3    H254378   0.363   5.963   1.312 -1.6428  1.3151 -1.4998
10963TIP3   OH254379   4.039   3.289   1.602 -0.3433 -0.0279  0.1686
10963TIP3    H154380   4.016   3.277   1.694  0.4094  0.6064  0.4531
10963TIP3    H254381   4.069   3.380   1.596 -1.9394  0.4699 -1.0453
10964TIP3   OH254382   0.804   5.420   5.385 -0.3089  0.3477  0.8885
10964TIP3    H154383   0.734   5.455   5.440  0.3638  0.0518  1.9464
10964TIP3    H254384   0.825   5.335   5.423  0.9793  0.6510  0.9064
10965TIP3   OH254385   0.545   0.206   6.495  0.3269 -0.4021 -0.8207
10965TIP3    H154386   0.574   0.114   6.489  2.3219  0.2035 -1.4288
10965TIP3    H254387   0.588   0.239   6.573  1.4830  0.5801 -1.8297
10966TIP3   OH254388   4.573   6.817  15.893  0.3723  0.6981 -0.6505
10966TIP3    H154389   4.530   6.775  15.968  1.0416  0.8395 -0.1749
10966TIP3    H254390   4.584   6.748  15.829  1.6691  0.0615  0.2100
10967TIP3   OH254391   6.730   0.890  12.577  0.2775  0.0156 -0.3139
10967TIP3    H154392   6.754   0.819  12.636 -0.1923  1.5703  1.9125
10967TIP3    H254393   6.652   0.929  12.618  0.3357  1.6014 -1.6160
10968TIP3   OH254394   3.752   4.456  13.154 -0.5934  0.0935  0.1687
10968TIP3    H154395   3.763   4.404  13.234  0.3970  1.1124  0.7362
10968TIP3    H254396   3.661   4.485  13.157 -0.1038  1.7082  2.0044
10969TIP3   OH254397   6.124   4.477   5.227  0.0610  0.2090 -0.2212
10969TIP3    H154398   6.214   4.501   5.249  0.1127 -1.4595  1.6831
10969TIP3    H254399   6.132   4.394   5.182 -0.5286 -0.0654  0.1686
10970TIP3   OH254400   4.907   6.304  12.515 -0.1308 -0.1970  0.3385
10970TIP3    H154401   4.828   6.352  12.538 -0.0008 -0.4033  1.2918
10970TIP3    H254402   4.908   6.302  12.420 -1.9938 -1.4042  0.3011
10971TIP3   OH254403   6.560   5.899  15.859 -0.0862 -0.1263 -0.1495
10971TIP3    H154404   6.655   5.902  15.869 -0.0916  0.6662 -0.2965
10971TIP3    H254405   6.535   5.987  15.831 -0.9770  0.0037  0.9633
10972TIP3   OH254406   2.057   2.971   4.377 -0.0314  0.1812  0.1028
10972TIP3    H154407   2.124   2.903   4.376  1.8772  1.9499 -0.3952
10972TIP3    H254408   2.006   2.954   4.456  0.4780 -1.7076  0.0691
10973TIP3   OH254409   3.100   5.746   2.992 -0.1220  0.0591  0.1997
10973TIP3    H154410   3.191   5.726   3.014  0.4176  0.0127 -1.8629
10973TIP3    H254411   3.100   5.840   2.974 -1.4337  1.0342  4.1425
10974TIP3   OH254412   1.771   6.541   2.852 -0.1679  0.7314 -0.0240
10974TIP3    H154413   1.690   6.579   2.886 -1.2952 -1.2079 -0.3540
10974TIP3    H254414   1.769   6.450   2.882  1.6658  0.5010 -0.4614
10975TIP3   OH254415   6.702   2.473   5.775  0.1019  0.2407  0.3996
10975TIP3    H154416   6.790   2.437   5.771 -0.7938 -1.9919 -1.2805
10975TIP3    H254417   6.677   2.467   5.867  1.3799  0.1917  0.7655
10976TIP3   OH254418   1.436   2.610   1.695  0.0100 -0.2234 -0.2941
10976TIP3    H154419   1.421   2.548   1.624 -0.4271 -0.0257 -0.3826
10976TIP3    H254420   1.473   2.557   1.766 -0.4358 -0.6054 -0.3405
10977TIP3   OH254421   4.472   3.150   3.840  0.0167 -0.0492 -0.0666
10977TIP3    H154422   4.488   3.067   3.884 -1.9603 -0.4537 -0.0208
10977TIP3    H254423   4.492   3.217   3.906  0.9168 -0.4892  0.1263
10978TIP3   OH254424   3.992   2.055  13.998  0.0677  0.5165  0.7425
10978TIP3    H154425   4.073   2.040  14.048 -0.7084 -0.5168  1.7650
10978TIP3    H254426   4.000   1.999  13.921  0.7205  1.1445  0.3393
10979TIP3   OH254427   0.448   1.420  13.281 -0.2133  0.0586  0.5430
10979TIP3    H154428   0.395   1.342  13.266 -0.7026  0.3068  0.9311
10979TIP3    H254429   0.457   1.425  13.376 -1.7868  1.4850  0.6718
10980TIP3   OH254430   1.564   6.654  10.913 -0.1153  0.3786 -0.0319
10980TIP3    H154431   1.526   6.577  10.955  0.8571 -0.5397 -0.7745
10980TIP3    H254432   1.488   6.708  10.888 -0.8480 -0.6727 -0.1363
10981TIP3   OH254433   4.920   4.868  15.329 -0.5359 -0.3955 -0.4029
10981TIP3    H154434   4.837   4.890  15.288 -0.4525 -0.6187 -0.6982
10981TIP3    H254435   4.987   4.898  15.267 -0.3906  0.1000 -0.0057
10982TIP3   OH254436   0.019   3.587   0.400 -0.5144  0.4843 -0.2068
10982TIP3    H154437   0.098   3.629   0.366  0.0950 -0.7674 -0.4092
10982TIP3    H254438  -0.036   3.574   0.323  1.2531 -3.1978 -1.1052
10983TIP3   OH254439   6.580   6.704   3.605  0.3286  0.0060 -0.3695
10983TIP3    H154440   6.573   6.760   3.527  1.9255 -1.1187 -1.3878
10983TIP3    H254441   6.616   6.621   3.572  0.5268 -0.6972  1.4853
10984TIP3   OH254442   1.625   6.001   0.986 -0.0011 -0.0049 -0.3040
10984TIP3    H154443   1.548   5.963   1.029  0.2163  2.1442  2.2938
10984TIP3    H254444   1.595   6.087   0.955  1.4357  1.2485  1.5269
10985TIP3   OH254445   2.798   0.823   5.785 -0.1514  0.0685  0.0608
10985TIP3    H154446   2.877   0.878   5.791 -0.2426  0.3210 -0.8762
10985TIP3    H254447   2.787   0.787   5.873 -0.1046  1.5787  0.7071
10986TIP3   OH254448   3.437   1.433   1.127  0.2303  0.6002  0.9363
10986TIP3    H154449   3.391   1.385   1.196  0.5614  1.1945  1.5777
10986TIP3    H254450   3.383   1.420   1.049  0.5340 -1.1914  0.9779
10987TIP3   OH254451   3.891   5.929   5.159  0.3087  0.2651  0.0158
10987TIP3    H154452   3.894   5.989   5.085 -0.3179 -0.0041 -0.2329
10987TIP3    H254453   3.945   5.971   5.226 -1.6573  2.1156  0.5795
10988TIP3   OH254454   1.749   5.555   5.936  0.2945 -0.0361  0.9341
10988TIP3    H154455   1.674   5.496   5.939  0.6911 -0.5875  0.3152
10988TIP3    H254456   1.749   5.599   6.021 -2.2898  1.9775  0.0468
10989TIP3   OH254457   2.142   1.466   3.051  0.0575 -0.5532  0.3316
10989TIP3    H154458   2.131   1.536   3.115  0.4442 -0.2284  0.0538
10989TIP3    H254459   2.107   1.503   2.969  1.7455 -0.0482 -0.2094
10990TIP3   OH254460   2.300   6.264   4.834 -0.3437  0.3772  0.6046
10990TIP3    H154461   2.302   6.179   4.790  1.2919  0.0340  1.2768
10990TIP3    H254462   2.226   6.310   4.794 -0.2482 -0.7321 -0.9317
10991TIP3   OH254463   6.294   5.734  12.532 -0.1710  0.2245 -0.1462
10991TIP3    H154464   6.300   5.641  12.510 -0.1631 -0.1125  1.1806
10991TIP3    H254465   6.342   5.779  12.462  3.2157 -1.0685  1.1483
10992TIP3   OH254466   4.954   0.890   4.164  0.0847  0.2500 -0.2938
10992TIP3    H154467   4.962   0.902   4.259  2.9747  0.9319 -0.5540
10992TIP3    H254468   5.015   0.953   4.126  0.0650 -0.9905 -2.5607
10993TIP3   OH254469   3.431   5.527   2.644 -0.4766  0.1090 -0.0085
10993TIP3    H154470   3.441   5.469   2.719  1.1778  0.3260 -0.0157
10993TIP3    H254471   3.392   5.473   2.576 -0.9678 -0.3877  0.6576
10994TIP3   OH254472   2.459   1.874  16.134  0.0207 -0.1675  0.2607
10994TIP3    H154473   2.465   1.969  16.143 -0.1898 -0.2056  0.7934
10994TIP3    H254474   2.535   1.851  16.081  0.5493  0.2068  0.8368
10995TIP3   OH254475   3.951   2.743  11.261  0.0450 -0.4705  0.2734
10995TIP3    H154476   3.936   2.669  11.320 -2.0005  1.1883  1.9824
10995TIP3    H254477   3.992   2.810  11.316 -0.3588  0.5264 -0.6056
10996TIP3   OH254478   4.770   2.467  11.281  0.0861  0.0373  0.8221
10996TIP3    H154479   4.720   2.463  11.363  1.7320  1.4896  1.9726
10996TIP3    H254480   4.797   2.558  11.273  0.3592 -0.1601 -1.1277
10997TIP3   OH254481   3.210   2.456   1.670 -0.0818 -0.3355 -0.2277
10997TIP3    H154482   3.251   2.420   1.749 -1.1747 -1.5776 -0.2063
10997TIP3    H254483   3.263   2.533   1.649  1.7651 -1.4124  0.2619
10998TIP3   OH254484   5.961   0.569  10.783 -0.3230 -0.0157  0.5721
10998TIP3    H154485   5.924   0.570  10.871 -0.5111  0.1363  0.4921
10998TIP3    H254486   5.934   0.485  10.747 -0.9038  0.2463  0.3838
10999TIP3   OH254487   0.220   2.431  11.893  1.0334 -0.0399  0.0304
10999TIP3    H154488   0.195   2.340  11.907 -0.5605  0.5312  1.2511
10999TIP3    H254489   0.223   2.440  11.797  1.3308 -1.3864 -0.1070
11000TIP3   OH254490   2.120   2.162  12.338  0.4100  0.2774  0.0921
11000TIP3    H154491   2.029   2.183  12.358  0.3225 -1.3273  1.5653
11000TIP3    H254492   2.171   2.210  12.403  0.7695  2.2765 -1.5671
11001TIP3   OH254493   0.544   5.661   1.432  0.4700 -0.2943 -0.5142
11001TIP3    H154494   0.524   5.753   1.452 -0.6564 -0.9784  2.0180
11001TIP3    H254495   0.631   5.663   1.393  1.0445  1.7498  0.7137
11002TIP3   OH254496   4.545   0.578  10.890  0.2290  0.0926 -0.4176
11002TIP3    H154497   4.508   0.508  10.837  0.0420  0.9934 -1.5202
11002TIP3    H254498   4.625   0.604  10.844  0.4530  0.3987  0.1317
11003TIP3   OH254499   5.225   4.500   1.677 -0.0258 -0.7345 -0.1379
11003TIP3    H154500   5.185   4.573   1.631 -1.6668 -0.7021  1.2169
11003TIP3    H254501   5.319   4.510   1.663 -0.2862  1.0415 -0.7996
11004TIP3   OH254502   0.899   3.488  11.619 -0.2343  0.1148 -0.1818
11004TIP3    H154503   0.818   3.454  11.581  0.8540  0.4135 -3.0437
11004TIP3    H254504   0.900   3.580  11.595  1.3956 -0.1088 -1.1524
11005TIP3   OH254505   4.471   6.440  10.873  0.2874  0.3606  0.2891
11005TIP3    H154506   4.448   6.510  10.812  1.2320 -0.2356 -0.8010
11005TIP3    H254507   4.389   6.394  10.891 -0.0550  0.7475 -0.2761
11006TIP3   OH254508   0.572   0.723  12.630  0.9673 -0.3719 -0.5912
11006TIP3    H154509   0.488   0.731  12.584  0.1428  0.5368  0.9802
11006TIP3    H254510   0.613   0.646  12.592 -0.9952 -1.3827 -0.7752
11007TIP3   OH254511   0.662   6.483  16.372  0.3499  0.0183 -0.1964
11007TIP3    H154512   0.621   6.451  16.291 -1.3592  1.8136 -0.1410
11007TIP3    H254513   0.746   6.519  16.344 -0.0283  0.2083 -1.1301
11008TIP3   OH254514   1.472   5.637  16.025  0.2380 -0.1369  0.0656
11008TIP3    H154515   1.493   5.720  15.983 -0.5342 -0.2298 -0.5507
11008TIP3    H254516   1.527   5.634  16.103  0.2040  0.9950  0.1489
11009TIP3   OH254517   0.962   6.113   2.119  0.3355  0.1042  0.9882
11009TIP3    H154518   0.901   6.176   2.079 -0.0558 -0.1098  1.2329
11009TIP3    H254519   0.955   6.035   2.064  1.6130  0.6133  0.0620
11010TIP3   OH254520   3.280   4.698  14.533  0.1391  0.2210  0.0105
11010TIP3    H154521   3.226   4.657  14.600 -0.0376 -0.2807 -0.4252
11010TIP3    H254522   3.245   4.663  14.450  0.7143  0.3867 -0.3086
11011TIP3   OH254523   0.974   6.705  16.228 -0.4050 -0.5631 -0.4869
11011TIP3    H154524   0.948   6.614  16.217 -0.9863 -0.2698 -1.7658
11011TIP3    H254525   0.897   6.747  16.268 -0.6158 -0.3881 -1.0684
11012TIP3   OH254526   6.813   0.339   1.809  0.1049 -0.1822  0.6890
11012TIP3    H154527   6.892   0.290   1.787  0.1033  0.0857  0.0592
11012TIP3    H254528   6.813   0.343   1.904  0.7222 -0.3976  0.7046
11013TIP3   OH254529   4.662   5.064  12.957  0.2783  0.7585 -0.3299
11013TIP3    H154530   4.669   4.968  12.962  1.4379  0.8566  0.2261
11013TIP3    H254531   4.608   5.088  13.032  1.1380  0.6420  0.3346
11014TIP3   OH254532   4.653   2.178   1.050  0.1241  0.3603  0.3528
11014TIP3    H154533   4.565   2.167   1.086  0.6713  0.4298  1.7952
11014TIP3    H254534   4.688   2.089   1.044 -0.4059  0.2328 -1.2546
11015TIP3   OH254535   6.350   5.780   2.888  0.3238 -0.3978 -0.3866
11015TIP3    H154536   6.395   5.815   2.964 -2.0305  1.5438  0.2207
11015TIP3    H254537   6.361   5.685   2.895  1.2481 -0.1836  1.6350
11016TIP3   OH254538   5.047   3.183  17.141 -0.0397 -0.0526 -0.7557
11016TIP3    H154539   5.020   3.248  17.206  0.2920 -0.7605  0.1108
11016TIP3    H254540   4.977   3.185  17.075  0.0399  1.2744 -0.8192
11017TIP3   OH254541   5.897   6.811  16.545 -0.7202  0.2680  0.3730
11017TIP3    H154542   5.833   6.742  16.529 -0.7015  0.5177 -0.9409
11017TIP3    H254543   5.955   6.808  16.469  0.2820  0.6508  1.0962
11018TIP3   OH254544   2.645   4.162  11.932  0.4090 -0.9224  0.7357
11018TIP3    H154545   2.551   4.178  11.919  0.3334 -0.3282  1.9053
11018TIP3    H254546   2.660   4.076  11.891 -0.2818 -0.3022 -0.9059
11019TIP3   OH254547   6.173   4.826   5.297  0.1088  0.0120  0.2035
11019TIP3    H154548   6.149   4.750   5.349  0.5792 -0.6542 -0.5236
11019TIP3    H254549   6.204   4.790   5.214 -0.3864  1.0369 -0.4483
11020TIP3   OH254550   4.528   4.531   0.853 -0.2624  0.1365 -0.5777
11020TIP3    H154551   4.445   4.578   0.844 -0.1338  0.5809  0.3558
11020TIP3    H254552   4.594   4.600   0.862  0.3226 -0.2047 -2.0549
11021TIP3   OH254553   3.401   1.309   0.237  0.4540  0.4898 -0.1377
11021TIP3    H154554   3.363   1.273   0.157 -1.3831  0.2197  0.7966
11021TIP3    H254555   3.403   1.403   0.222  0.4549  0.4165 -0.6294
11022TIP3   OH254556   3.625   3.901   3.711 -0.3877 -0.1734  0.4907
11022TIP3    H154557   3.627   3.994   3.686 -1.1189 -0.1744  0.4285
11022TIP3    H254558   3.716   3.882   3.737 -0.6112  1.0832  2.4260
11023TIP3   OH254559   3.392   4.502   5.058 -0.4446  0.6180 -0.2725
11023TIP3    H154560   3.424   4.424   5.103 -1.3511  0.4390  0.0843
11023TIP3    H254561   3.377   4.474   4.968  1.0356  0.8859 -0.6342
11024TIP3   OH254562   3.141   4.517   4.675 -0.2873  0.5667  0.2649
11024TIP3    H154563   3.161   4.578   4.747  0.8797  0.3028  0.1769
11024TIP3    H254564   3.103   4.572   4.607 -0.6805  0.9437  0.7748
11025TIP3   OH254565   0.028   4.048   1.068 -0.2893 -0.8987  1.1245
11025TIP3    H154566   0.093   4.023   1.133  0.1685  2.3013  2.0674
11025TIP3    H254567  -0.000   4.136   1.094 -2.5957 -0.8399 -1.1165
11026TIP3   OH254568   4.941   1.328  12.042 -0.3381 -0.7317  0.4145
11026TIP3    H154569   4.950   1.257  12.106  0.7948  0.2235  1.3531
11026TIP3    H254570   5.023   1.327  11.993 -1.2694 -1.5795 -1.2115
11027TIP3   OH254571   6.005   4.621   4.367 -0.1074  0.2000 -0.2117
11027TIP3    H154572   6.056   4.571   4.431 -1.5761  0.8913  1.6146
11027TIP3    H254573   6.066   4.687   4.333  0.9650 -0.7874 -0.2423
11028TIP3   OH254574   0.522   2.114   4.153  0.3338 -0.1274 -0.1105
11028TIP3    H154575   0.453   2.114   4.220 -1.1096  3.6731 -1.3565
11028TIP3    H254576   0.587   2.176   4.186  1.0106 -0.3341 -1.0140
11029TIP3   OH254577   2.449   3.248   0.102  0.1424 -0.0579 -0.3276
11029TIP3    H154578   2.379   3.314   0.100  1.6678  1.7437  1.0837
11029TIP3    H254579   2.465   3.227   0.010 -1.2992  0.5124 -0.7395
11030TIP3   OH254580   6.132   0.980  16.081  0.5519 -0.0154  0.1580
11030TIP3    H154581   6.088   0.895  16.087  1.0935 -0.4699 -1.5884
11030TIP3    H254582   6.225   0.959  16.090  0.8480  0.0943 -2.0783
11031TIP3   OH254583   6.374   1.802  11.755 -0.4018  0.2928  0.1891
11031TIP3    H154584   6.366   1.723  11.808 -1.9009  0.6065  0.4572
11031TIP3    H254585   6.371   1.770  11.665  1.8800 -0.2123  0.2112
11032TIP3   OH254586   1.983   3.829  14.058 -0.2011 -0.5379 -0.3846
11032TIP3    H154587   1.928   3.876  13.995 -0.2070 -0.9953 -0.7256
11032TIP3    H254588   1.939   3.840  14.142 -1.1017 -1.3273 -0.7357
11033TIP3   OH254589   0.837   3.651  13.421  0.2773 -0.2009 -0.0347
11033TIP3    H154590   0.743   3.667  13.425  0.3422  0.0332  0.8258
11033TIP3    H254591   0.847   3.575  13.364 -0.5240 -0.9243  0.7618
11034TIP3   OH254592   0.884   1.962  16.121 -0.2655  0.2256 -0.3635
11034TIP3    H154593   0.859   1.870  16.120 -2.4837  0.7333 -3.0951
11034TIP3    H254594   0.812   2.006  16.166  0.1847  0.7806 -0.1649
11035TIP3   OH254595   4.255   4.430   2.116  0.0989  0.3148  0.2030
11035TIP3    H154596   4.194   4.460   2.048 -0.6131  0.2204  0.7822
11035TIP3    H254597   4.255   4.500   2.181  1.5136  0.8431 -0.3231
11036TIP3   OH254598   3.742   1.266   4.706  0.1189  0.2055 -0.2249
11036TIP3    H154599   3.691   1.294   4.782  1.2858  1.4342  0.1531
11036TIP3    H254600   3.686   1.203   4.660 -0.1814 -1.5040  2.2735
11037TIP3   OH254601   3.610   1.986   1.741 -0.1262 -0.2694  0.0764
11037TIP3    H154602   3.684   1.969   1.799 -0.3973 -2.1108 -0.0393
11037TIP3    H254603   3.605   2.081   1.734  0.8367 -0.0601  1.8653
11038TIP3   OH254604   0.430   4.162   4.608  0.5004 -0.3917  0.5197
11038TIP3    H154605   0.392   4.228   4.550  0.1902  0.5537  1.7506
11038TIP3    H254606   0.371   4.087   4.600  0.9075 -0.5858 -0.9629
11039TIP3   OH254607   6.602   0.135  12.360  0.1243  0.4043 -0.0310
11039TIP3    H154608   6.603   0.214  12.306  0.8719  0.7282  0.4403
11039TIP3    H254609   6.519   0.138  12.407 -0.6168  0.0261 -1.2878
11040TIP3   OH254610   5.328   6.008  13.655 -0.1180  0.2916 -0.1231
11040TIP3    H154611   5.420   6.004  13.681  0.0303  1.9883 -0.2497
11040TIP3    H254612   5.327   5.972  13.567  0.2836 -0.5007  0.1872
11041TIP3   OH254613   3.300   2.993   5.826  0.1062 -0.0959  0.2476
11041TIP3    H154614   3.332   2.960   5.742 -0.0440 -1.0193  0.5505
11041TIP3    H254615   3.209   2.965   5.830 -0.0707  0.4943  0.4420
11042TIP3   OH254616   2.393   4.840  14.317  0.3882  0.2091 -0.3299
11042TIP3    H154617   2.329   4.770  14.328 -0.4990  1.0607  0.1753
11042TIP3    H254618   2.478   4.797  14.326 -0.1565 -0.6068  1.3011
11043TIP3   OH254619   3.368   0.624  13.933  0.0120  0.0479  0.0956
11043TIP3    H154620   3.324   0.598  14.014 -1.2028 -1.9021 -1.1041
11043TIP3    H254621   3.313   0.693  13.896  0.4968  0.8450  0.8310
11044TIP3   OH254622   1.630   0.811   4.276 -0.6175 -0.5432 -0.4384
11044TIP3    H154623   1.618   0.802   4.371 -0.3497 -1.8583 -0.5077
11044TIP3    H254624   1.694   0.743   4.254 -0.8365 -0.3871 -1.6038
11045TIP3   OH254625   6.528   1.965  13.491 -0.4574  0.3393 -0.2303
11045TIP3    H154626   6.446   1.955  13.540  0.5070  1.6658  1.7566
11045TIP3    H254627   6.539   2.059  13.481  0.0204  0.1280 -1.9644
11046TIP3   OH254628   2.900   1.966   0.294  0.9762  0.0045  0.5432
11046TIP3    H154629   2.848   1.896   0.332 -0.7740  1.9606  1.9617
11046TIP3    H254630   2.971   1.981   0.357  0.5205  0.4406  0.9582
11047TIP3   OH254631   4.341   4.646   4.560 -0.4295 -0.0428  0.3243
11047TIP3    H154632   4.424   4.631   4.606 -0.6614  0.7874  1.0336
11047TIP3    H254633   4.365   4.701   4.485 -0.2377 -0.3839  0.1319
11048TIP3   OH254634   5.097   1.360   1.965 -0.0091  0.4351  0.3540
11048TIP3    H154635   5.123   1.433   1.908 -0.5446  0.4323  0.1026
11048TIP3    H254636   5.166   1.357   2.032  0.8186  0.2170 -0.4809
11049TIP3   OH254637   4.285   3.883  10.487  0.1437  0.1029 -0.5483
11049TIP3    H154638   4.193   3.862  10.505  0.2952 -0.5417 -0.4764
11049TIP3    H254639   4.335   3.820  10.540  0.6381  0.8763 -0.0691
11050TIP3   OH254640   5.385   3.083   3.149  0.2932 -0.1003  0.1888
11050TIP3    H154641   5.370   3.037   3.066  0.8613  2.1345 -1.2763
11050TIP3    H254642   5.306   3.136   3.161 -0.2299 -1.1786  1.6735
11051TIP3   OH254643   0.704   3.736  12.953 -0.0052  0.6748 -0.6826
11051TIP3    H154644   0.734   3.743  12.863  2.0193 -0.5905 -0.1610
11051TIP3    H254645   0.689   3.642  12.966 -2.2643  1.0267 -0.2578
11052TIP3   OH254646   6.325   6.350  12.746 -0.2856  0.1148 -0.0952
11052TIP3    H154647   6.298   6.278  12.803 -1.3615 -0.7266 -1.6037
11052TIP3    H254648   6.358   6.307  12.667 -0.1950  1.2730 -0.7041
11053TIP3   OH254649   0.420   3.667   0.551  0.7718 -0.6497  0.1641
11053TIP3    H154650   0.352   3.617   0.596  1.4747 -2.1265 -0.3602
11053TIP3    H254651   0.421   3.632   0.462 -0.6024  2.2053 -1.1248
11054TIP3   OH254652   6.477   6.112   0.355 -0.1447  0.2670  0.1024
11054TIP3    H154653   6.384   6.130   0.341  0.1497  0.6162 -1.6048
11054TIP3    H254654   6.502   6.170   0.428 -0.5483  2.6305 -1.5246
11055TIP3   OH254655   3.810   1.493  17.093 -0.3825  0.3841 -0.6917
11055TIP3    H154656   3.888   1.492  17.038 -0.9695  2.7311 -1.6914
11055TIP3    H254657   3.801   1.403  17.123  1.9284 -0.2427 -1.6264
11056TIP3   OH254658   4.955   0.196   0.638  0.1756 -0.5772  0.4323
11056TIP3    H154659   4.889   0.149   0.587 -0.4733 -0.1126  0.8241
11056TIP3    H254660   4.972   0.139   0.713  1.7601 -1.6624 -0.6938
11057TIP3   OH254661   1.351   1.767  12.990 -0.4523  0.6348  0.1074
11057TIP3    H154662   1.299   1.689  13.010 -0.4291  0.8883  1.2543
11057TIP3    H254663   1.441   1.739  13.004 -0.4225  0.7628  0.1714
11058TIP3   OH254664   2.173   4.228   5.688  1.0383  0.2716  0.0574
11058TIP3    H154665   2.242   4.289   5.660 -0.8721  1.8661 -1.4442
11058TIP3    H254666   2.102   4.285   5.718 -0.9511 -1.1557 -1.6934
11059TIP3   OH254667   1.200   2.830   1.610 -0.3654  0.3601  0.1650
11059TIP3    H154668   1.278   2.797   1.653 -0.0013  3.0844  1.8521
11059TIP3    H254669   1.138   2.757   1.612  1.0799 -0.8823  1.6313
11060TIP3   OH254670   5.389   6.333  11.129 -0.0604 -0.7791  0.2240
11060TIP3    H154671   5.458   6.385  11.169 -0.5489 -0.8121  1.1433
11060TIP3    H254672   5.433   6.282  11.061  0.5042  0.4951 -0.4129
11061TIP3   OH254673   2.834   3.298  13.585 -0.1815  0.9868  0.3419
11061TIP3    H154674   2.929   3.307  13.594 -0.2177  0.0604  2.0194
11061TIP3    H254675   2.812   3.352  13.509  1.8211  0.3169 -0.7893
11062TIP3   OH254676   0.589   4.381  11.130 -0.5918  0.8603 -0.0357
11062TIP3    H154677   0.621   4.319  11.196 -0.4884  0.8268 -0.1176
11062TIP3    H254678   0.574   4.327  11.053 -1.5496  0.7410  0.2218
11063TIP3   OH254679   0.723   1.863  15.559  0.0504 -0.5554  0.3098
11063TIP3    H154680   0.680   1.820  15.633  0.1004 -0.2813  0.4972
11063TIP3    H254681   0.777   1.795  15.520  1.6378 -0.1820  1.7494
11064TIP3   OH254682   4.534   0.761   5.614 -0.3883  0.3051 -0.1508
11064TIP3    H154683   4.537   0.853   5.641  0.0685 -0.1646  1.5098
11064TIP3    H254684   4.444   0.748   5.584 -0.1365  1.5761 -1.5722
11065TIP3   OH254685   4.216   1.443   0.276 -0.0862  0.0747 -0.3530
11065TIP3    H154686   4.218   1.411   0.366  0.7619 -0.7039 -0.6362
11065TIP3    H254687   4.128   1.478   0.264  0.9057  4.0812  2.1047
11066TIP3   OH254688   3.068   3.165  15.169  0.8448  0.3147 -0.8747
11066TIP3    H154689   2.982   3.135  15.199  0.0192  1.2064 -2.2518
11066TIP3    H254690   3.127   3.093  15.190  0.4136  0.8604  2.9105
11067TIP3   OH254691   1.508   6.562  16.991 -0.0920 -0.2298 -0.5676
11067TIP3    H154692   1.489   6.478  16.948  2.0765 -0.3578 -1.4162
11067TIP3    H254693   1.601   6.556  17.015 -0.1041  1.6168  0.0944
11068TIP3   OH254694   1.625   0.423   0.083  0.1868  0.1205 -0.0620
11068TIP3    H154695   1.583   0.497   0.126  0.3901 -0.6748  1.5850
11068TIP3    H254696   1.580   0.346   0.118 -0.1074 -0.5699 -1.8269
11069TIP3   OH254697   1.343   3.179   3.458  0.0301  0.7133 -0.3655
11069TIP3    H154698   1.300   3.202   3.540  1.0290 -1.9374  1.0162
11069TIP3    H254699   1.410   3.246   3.447  0.2031  0.8578  1.2832
11070TIP3   OH254700   4.085   0.876  16.406 -0.2589  0.1631 -0.4148
11070TIP3    H154701   3.990   0.873  16.419 -0.0092 -0.1046  1.6366
11070TIP3    H254702   4.113   0.952  16.456  0.5445  0.7269 -1.6828
11071TIP3   OH254703   0.428   3.993  16.719 -0.0680 -0.2304 -0.0482
11071TIP3    H154704   0.413   4.063  16.783 -1.1128 -0.0063 -0.5215
11071TIP3    H254705   0.471   4.038  16.646 -0.2739 -0.1783 -0.1396
11072TIP3   OH254706   2.967   6.248  14.437  0.0461 -0.0069 -0.4047
11072TIP3    H154707   3.002   6.259  14.525  1.2262  0.2432 -0.8816
11072TIP3    H254708   2.918   6.328  14.420 -1.1619 -0.5501  0.4390
11073TIP3   OH254709   4.524   6.111   6.067  0.2425 -0.4550  0.4961
11073TIP3    H154710   4.467   6.063   6.127  0.9408 -1.5500  0.3026
11073TIP3    H254711   4.551   6.188   6.117 -1.2762  0.0215  0.6385
11074TIP3   OH254712   3.585   0.975  12.185  0.1434 -0.6057  0.1664
11074TIP3    H154713   3.646   0.909  12.152 -0.0702 -0.6551 -0.1345
11074TIP3    H254714   3.614   0.991  12.275  0.1661 -1.1484  0.2634
11075TIP3   OH254715   3.478   3.028   3.361 -0.2819 -0.1613 -0.2526
11075TIP3    H154716   3.452   2.939   3.340 -1.5303  0.2675 -0.6261
11075TIP3    H254717   3.559   3.042   3.311 -1.6437 -0.1346 -2.5929
11076TIP3   OH254718   3.382   4.843  12.274  0.3770  0.3225  0.2063
11076TIP3    H154719   3.408   4.873  12.361  2.1660 -0.4980 -0.0034
11076TIP3    H254720   3.318   4.774  12.290  0.2807  0.5548  0.8466
11077TIP3   OH254721   2.373   3.825  12.568 -0.7082  0.3932 -0.3306
11077TIP3    H154722   2.282   3.841  12.591 -0.2549  2.6238  0.1064
11077TIP3    H254723   2.400   3.901  12.517  0.9081 -0.2542 -0.5360
11078TIP3   OH254724   4.708   6.487  17.103  0.2989  0.4692 -0.5497
11078TIP3    H154725   4.799   6.518  17.099  0.0616  1.2195 -0.3755
11078TIP3    H254726   4.658   6.559  17.063 -0.4926  1.2396  1.7015
11079TIP3   OH254727   4.950   1.802   5.706  0.3200 -0.2811  0.3609
11079TIP3    H154728   5.031   1.751   5.709  1.0800  0.5066 -2.8129
11079TIP3    H254729   4.941   1.840   5.793  2.8057 -1.2401  1.0917
11080TIP3   OH254730   0.597   6.024   2.892 -0.1001  0.0302  0.3217
11080TIP3    H154731   0.575   6.053   2.980 -0.4869  0.0534  0.2183
11080TIP3    H254732   0.512   6.010   2.849  0.0868  0.2260 -0.1155
11081TIP3   OH254733   1.966   1.124   3.957  0.6464  0.4366  0.0855
11081TIP3    H154734   1.953   1.139   4.050  0.3587 -0.2149  0.1599
11081TIP3    H254735   2.040   1.179   3.933  1.7300 -0.5397  1.0376
11082TIP3   OH254736   0.769   3.520  15.751 -0.1849 -0.8604 -0.6383
11082TIP3    H154737   0.820   3.474  15.684  0.6480  1.0606 -1.3679
11082TIP3    H254738   0.812   3.604  15.763 -1.6365 -0.2302  0.6978
11083TIP3   OH254739   3.035   6.524   4.033  0.4128 -0.3510 -0.3527
11083TIP3    H154740   2.989   6.447   4.066  1.3709 -0.0114  1.9748
11083TIP3    H254741   3.127   6.507   4.054  0.4868  2.0509  1.6504
11084TIP3   OH254742   1.287   5.570   5.787  0.1084 -0.4261 -0.2397
11084TIP3    H154743   1.250   5.643   5.737 -1.6599 -0.5241  0.8309
11084TIP3    H254744   1.294   5.499   5.724 -1.2843 -0.2971 -0.5767
11085TIP3   OH254745   3.241   3.351   5.963 -0.7454  0.5165  0.3174
11085TIP3    H154746   3.250   3.366   6.057  2.7448 -1.3984  0.4775
11085TIP3    H254747   3.331   3.357   5.930 -1.6032 -0.8758 -2.5350
11086TIP3   OH254748   1.708   3.374  15.103 -0.0225 -0.1275  0.2784
11086TIP3    H154749   1.646   3.313  15.143 -1.0341 -0.1196 -1.2126
11086TIP3    H254750   1.742   3.327  15.027  1.0571  0.2614  0.5068
11087TIP3   OH254751   2.831   0.014  15.357 -0.2490 -0.3006  0.0685
11087TIP3    H154752   2.769   0.079  15.391 -0.3836 -0.8281  0.8436
11087TIP3    H254753   2.907   0.065  15.330 -1.2790  0.4642 -1.6074
11088TIP3   OH254754   5.579   6.432   5.064 -0.2411  0.4434  0.1078
11088TIP3    H154755   5.527   6.453   4.987 -0.1215 -0.3034 -0.1930
11088TIP3    H254756   5.648   6.497   5.065  0.1012  0.1112 -0.7650
11089TIP3   OH254757   2.766   5.739  13.170 -0.4778 -0.0845  0.6071
11089TIP3    H154758   2.808   5.686  13.237 -1.0538 -2.8772 -1.0644
11089TIP3    H254759   2.797   5.702  13.087 -3.0785  0.3331 -0.6680
11090TIP3   OH254760   1.846   5.646   5.257  0.3935 -0.2295 -0.4085
11090TIP3    H154761   1.912   5.644   5.327 -2.0216  1.5265  2.1479
11090TIP3    H254762   1.772   5.693   5.296 -1.8673 -0.8916 -3.5652
11091TIP3   OH254763   0.425   2.880   0.327  0.7965  0.2579 -0.8068
11091TIP3    H154764   0.359   2.819   0.361 -0.3306  1.4594 -0.7794
11091TIP3    H254765   0.398   2.966   0.360  2.0799  0.8579 -1.2484
11092TIP3   OH254766   0.544   6.442   6.421  0.4879 -0.3643 -0.0901
11092TIP3    H154767   0.623   6.458   6.371 -0.4718  2.0001 -0.9638
11092TIP3    H254768   0.551   6.499   6.498 -0.3461 -0.1188 -0.1803
11093TIP3   OH254769   6.020   3.187  15.252  0.1067 -0.3940 -0.1974
11093TIP3    H154770   6.010   3.194  15.347  1.3793  1.7854 -0.1500
11093TIP3    H254771   5.959   3.252  15.217 -0.5920 -1.4077 -0.9288
11094TIP3   OH254772   4.537   3.447   1.341 -0.5143  0.6332 -0.1347
11094TIP3    H154773   4.545   3.454   1.436  0.9917  1.0648 -0.2704
11094TIP3    H254774   4.488   3.525   1.315 -0.1504  0.9850  0.2112
11095TIP3   OH254775   4.648   6.726   3.357  0.6235 -0.6034  0.1884
11095TIP3    H154776   4.564   6.763   3.331  0.7261  0.1524  0.8918
11095TIP3    H254777   4.627   6.673   3.434  0.8047 -0.3055  0.4462
11096TIP3   OH254778   5.687   3.093   2.633 -0.3581  0.3217  0.3903
11096TIP3    H154779   5.673   3.073   2.726  1.7312 -1.7150  0.3571
11096TIP3    H254780   5.725   3.013   2.597 -0.7220  1.2080 -2.1690
11097TIP3   OH254781   3.921   0.905  13.920 -0.2615 -0.3350  0.1744
11097TIP3    H154782   3.932   0.920  14.014  1.9632 -1.0443  0.0692
11097TIP3    H254783   3.893   0.991  13.886 -1.1413 -0.0821  1.4566
11098TIP3   OH254784   6.428   3.746  16.320  0.1688  0.1692 -0.8551
11098TIP3    H154785   6.479   3.826  16.308  1.7327 -0.8680 -1.5305
11098TIP3    H254786   6.429   3.703  16.235  1.9988 -2.0147  0.1424
11099TIP3   OH254787   0.998   4.950  15.507 -0.5319  0.5712 -0.0991
11099TIP3    H154788   0.917   4.952  15.456 -0.8198 -2.3520  0.0692
11099TIP3    H254789   1.064   4.917  15.446 -0.8897 -3.0201  1.1884
11100TIP3   OH254790   5.875   6.811   2.953  0.0121 -0.0623  0.0329
11100TIP3    H154791   5.961   6.772   2.966 -0.0330  0.2337  1.4165
11100TIP3    H254792   5.882   6.860   2.872  1.1574 -0.0261  0.1430
11101TIP3   OH254793   5.230   1.409   3.209 -0.4943 -0.3003  0.1925
11101TIP3    H154794   5.235   1.404   3.304  1.4992  1.4358  0.2536
11101TIP3    H254795   5.320   1.397   3.180 -1.0135 -0.4290 -1.4613
11102TIP3   OH254796   3.519   3.318   5.878 -0.8450  0.3722  0.1044
11102TIP3    H154797   3.487   3.321   5.788  1.4196 -2.3805 -0.9456
11102TIP3    H254798   3.602   3.366   5.876 -1.8356  2.2445  1.3417
11103TIP3   OH254799   4.675   4.037  16.787 -0.5066  0.5193  0.6008
11103TIP3    H154800   4.645   4.124  16.761  0.2306 -0.6309 -5.4501
11103TIP3    H254801   4.615   3.977  16.744  1.6344 -1.9128  0.7886
11104TIP3   OH254802   3.324   5.104   0.845 -0.1308  0.4639  0.5665
11104TIP3    H154803   3.340   5.150   0.763 -0.2391  1.9632  1.3480
11104TIP3    H254804   3.409   5.102   0.889 -0.3086  0.7408  0.9336
11105TIP3   OH254805   0.683   5.494   4.840  0.0027 -0.7042 -0.0420
11105TIP3    H154806   0.709   5.425   4.902 -0.7109 -0.9035  0.0513
11105TIP3    H254807   0.635   5.447   4.772  0.8540 -0.4964 -0.8034
11106TIP3   OH254808   2.161   3.281  15.411  0.1083  0.1146  0.6812
11106TIP3    H154809   2.066   3.284  15.421  0.1600  0.3742  1.0871
11106TIP3    H254810   2.182   3.187  15.409 -0.4014 -0.0023 -1.8437
11107TIP3   OH254811   2.935   2.640  13.988 -0.3653  0.4497  0.1127
11107TIP3    H154812   2.875   2.637  14.062 -0.1483 -0.8624  0.2699
11107TIP3    H254813   2.878   2.640  13.911 -0.5831  1.4926  0.2578
11108TIP3   OH254814   2.613   5.453   4.250  0.2605 -0.1733  0.0586
11108TIP3    H154815   2.694   5.468   4.299 -0.3590 -1.0027  1.4100
11108TIP3    H254816   2.641   5.404   4.173  0.9168 -1.8546  1.2856
11109TIP3   OH254817   5.030   5.573   0.242 -0.2419 -0.3088  0.6478
11109TIP3    H154818   4.955   5.555   0.185 -1.0866  0.4918  1.4628
11109TIP3    H254819   5.053   5.665   0.224  0.5985 -0.5637  0.3587
11110TIP3   OH254820   2.313   1.640   3.284 -0.0042 -0.0606 -0.0966
11110TIP3    H154821   2.310   1.726   3.327  1.0977  0.7860 -1.5959
11110TIP3    H254822   2.406   1.618   3.282 -0.3771 -2.0217  1.5578
11111TIP3   OH254823   2.737   0.337  14.303 -0.1496 -0.1463 -0.1050
11111TIP3    H154824   2.798   0.377  14.365  0.2544 -1.3530  0.3140
11111TIP3    H254825   2.667   0.300  14.358  0.4593 -1.6482 -0.2765
11112TIP3   OH254826   3.804   4.735   4.673  0.1261  0.5016  0.2473
11112TIP3    H154827   3.896   4.742   4.647  0.0870  0.0423 -0.0159
11112TIP3    H254828   3.784   4.642   4.666 -0.9680  0.8460 -1.7422
11113TIP3   OH254829   4.327   6.257  16.599  0.0725 -0.4355 -0.0848
11113TIP3    H154830   4.291   6.272  16.686 -2.8002  0.9050 -1.3694
11113TIP3    H254831   4.365   6.342  16.574  0.8933 -0.8172 -0.1732
11114TIP3   OH254832   6.610   6.083  16.612  0.0611 -0.4389  0.1348
11114TIP3    H154833   6.644   6.030  16.684 -1.4708  1.6423  2.5555
11114TIP3    H254834   6.517   6.062  16.607  0.0292 -0.1499 -0.9029
11115TIP3   OH254835   5.490   1.667  16.850 -0.2969 -0.0713  0.3254
11115TIP3    H154836   5.524   1.706  16.769  2.6643  1.8832  2.3024
11115TIP3    H254837   5.426   1.730  16.882  1.1607  1.0202  1.2199
11116TIP3   OH254838   2.345   1.109   3.795  0.2494 -0.1004  0.0463
11116TIP3    H154839   2.312   1.033   3.843  1.3061 -0.4462  0.2528
11116TIP3    H254840   2.342   1.082   3.703 -1.7803  0.5638 -0.1249
11117TIP3   OH254841   6.294   2.632   0.479 -0.5192 -0.0480 -0.0159
11117TIP3    H154842   6.234   2.599   0.413  1.7688  1.6220 -3.1927
11117TIP3    H254843   6.342   2.555   0.509 -0.1330 -0.5949 -1.9461
11118TIP3   OH254844   6.421   1.189  14.593  0.1890 -0.1753 -0.2305
11118TIP3    H154845   6.516   1.203  14.600  0.4334 -2.2243  2.2738
11118TIP3    H254846   6.412   1.123  14.524  0.8333 -1.3926  0.8050
11119TIP3   OH254847   3.836   4.935   1.074  0.0790  0.0216  0.0593
11119TIP3    H154848   3.861   4.883   1.151  0.3923 -1.1192 -0.7783
11119TIP3    H254849   3.867   4.883   0.999  1.5689  2.0349 -0.8017
11120TIP3   OH254850   1.689   6.088   3.856  0.0191  0.3817 -0.1214
11120TIP3    H154851   1.644   6.056   3.935  1.5923 -1.5450  0.0614
11120TIP3    H254852   1.782   6.082   3.877  0.4991 -0.7789 -2.3161
11121TIP3   OH254853   2.012   5.540  12.756  0.1548  0.2998  0.0939
11121TIP3    H154854   2.038   5.628  12.728  0.1506  0.2718  0.0023
11121TIP3    H254855   2.061   5.525  12.837  1.8049 -0.4368 -0.9623
11122TIP3   OH254856   5.444   5.953  16.480 -0.1998  0.9437  0.3448
11122TIP3    H154857   5.438   6.043  16.450 -1.4014  1.1414  1.0982
11122TIP3    H254858   5.538   5.934  16.482  0.0061  1.6804 -1.1965
11123TIP3   OH254859   0.173   6.438  17.094 -0.5554 -0.3329 -0.5461
11123TIP3    H154860   0.176   6.367  17.029 -0.1657  0.7411 -1.7480
11123TIP3    H254861   0.208   6.514  17.048 -1.1632  0.7059  0.6418
11124TIP3   OH254862   0.533   1.995  16.164 -0.5860 -0.7368 -0.1555
11124TIP3    H154863   0.505   2.081  16.133 -2.1073 -0.9269  0.6182
11124TIP3    H254864   0.452   1.952  16.192  0.4132 -1.5846  1.5381
11125TIP3   OH254865   1.501   3.207  11.274 -0.4410  0.7424  0.5129
11125TIP3    H154866   1.544   3.260  11.207 -0.5239 -2.5763 -2.4493
11125TIP3    H254867   1.409   3.206  11.248 -0.3648 -1.1163  0.2451
11126TIP3   OH254868   4.158   5.320   5.973  0.3426  0.4263 -0.0029
11126TIP3    H154869   4.244   5.278   5.979 -0.0441 -0.2379  1.3543
11126TIP3    H254870   4.177   5.410   5.946  1.2246 -0.4445 -2.4739
11127TIP3   OH254871   1.586   4.367   0.497 -0.1311 -0.0764 -0.2370
11127TIP3    H154872   1.552   4.414   0.422  1.4490  0.2291 -0.8010
11127TIP3    H254873   1.538   4.284   0.498  0.1601 -0.2825 -1.8715
11128TIP3   OH254874   3.605   2.677  15.235 -0.4281  0.0942  0.0363
11128TIP3    H154875   3.551   2.607  15.272  0.5678 -0.2987  0.8072
11128TIP3    H254876   3.607   2.659  15.141 -2.1046  0.4709 -0.0965
11129TIP3   OH254877   0.218   0.505   4.748 -0.1567 -0.1972  0.3853
11129TIP3    H154878   0.274   0.430   4.770 -0.3518 -0.2536  0.6827
11129TIP3    H254879   0.149   0.504   4.814  0.3870  0.8400  0.9886
11130TIP3   OH254880   6.716   3.675  16.629  0.0927  0.6345 -0.1886
11130TIP3    H154881   6.672   3.757  16.653  0.4348  0.3551  1.5093
11130TIP3    H254882   6.798   3.677  16.677  0.1350 -0.6824 -0.1725
11131TIP3   OH254883   6.530   3.067   1.194 -0.2233  0.6856  0.8304
11131TIP3    H154884   6.514   3.069   1.100 -1.9742  0.3835  1.0940
11131TIP3    H254885   6.515   3.157   1.223  2.2160  1.2321  0.5760
11132TIP3   OH254886   4.465   6.627  16.393  0.1415  0.0950  0.5561
11132TIP3    H154887   4.370   6.624  16.404  0.1802 -0.3604  0.8226
11132TIP3    H254888   4.499   6.582  16.470  0.4797 -1.9651 -0.7196
11133TIP3   OH254889   5.673   1.761   1.033  0.2274  1.3226  0.1545
11133TIP3    H154890   5.704   1.675   1.005 -0.6864  0.9865  0.1284
11133TIP3    H254891   5.655   1.751   1.126  0.8077  1.7019  0.3130
11134TIP3   OH254892   0.547   0.894  13.571 -0.1219  0.1402  0.2191
11134TIP3    H154893   0.608   0.961  13.538 -0.8396  0.0400 -1.4412
11134TIP3    H254894   0.498   0.939  13.640  1.5022  0.3494  1.2886
11135TIP3   OH254895   3.800   2.423   5.826 -0.0713 -0.8006 -0.5868
11135TIP3    H154896   3.731   2.435   5.761 -0.8599 -0.2896  0.3172
11135TIP3    H254897   3.823   2.330   5.820  0.7451 -0.5182 -2.4193
11136TIP3   OH254898   4.459   4.714  13.177 -0.3195 -0.5142 -0.1629
11136TIP3    H154899   4.493   4.778  13.114  0.7140 -0.4530  0.4411
11136TIP3    H254900   4.462   4.631  13.130  0.9269 -0.5547 -0.0535
11137TIP3   OH254901   2.368   0.127   4.815 -0.2037 -0.4930 -0.2281
11137TIP3    H154902   2.393   0.209   4.856  0.6826  0.0600 -1.8011
11137TIP3    H254903   2.353   0.067   4.888  0.2716  0.7300  0.9085
11138TIP3   OH254904   1.489   4.541   2.933  0.0311 -0.2404  0.1810
11138TIP3    H154905   1.395   4.557   2.935  0.2066  0.7450  1.4209
11138TIP3    H254906   1.527   4.627   2.918  0.8042 -0.3196  1.5781
11139TIP3   OH254907   5.976   2.747  14.531  0.2389  0.2039  0.2166
11139TIP3    H154908   6.020   2.680  14.478  0.4386  1.4030 -1.2191
11139TIP3    H254909   5.918   2.698  14.589  2.5032 -1.3586  1.2748
11140TIP3   OH254910   3.739   4.684  14.809 -0.2486 -0.1809  0.5585
11140TIP3    H154911   3.756   4.765  14.762 -0.5296  1.0062  2.3791
11140TIP3    H254912   3.790   4.693  14.890 -0.1859 -1.8978  0.7443
11141TIP3   OH254913   2.325   5.087   6.085  0.4456  0.0833 -0.3443
11141TIP3    H154914   2.362   5.034   6.155  1.1165  0.2254 -0.5843
11141TIP3    H254915   2.251   5.133   6.126 -0.1092 -0.9744 -0.1231
11142TIP3   OH254916   2.849   2.997  16.835  0.0264 -0.1164 -0.6137
11142TIP3    H154917   2.766   2.956  16.813 -0.6466  1.2370 -0.6626
11142TIP3    H254918   2.826   3.073  16.888  1.1133  1.1312 -1.8600
11143TIP3   OH254919   3.647   4.631   2.692  0.0961  0.4783  0.6109
11143TIP3    H154920   3.572   4.650   2.635  1.0626  0.0499 -0.8557
11143TIP3    H254921   3.669   4.716   2.731 -1.3749  0.5418  1.4051
11144TIP3   OH254922   3.465   0.651  16.815  0.1714 -0.1316  0.1299
11144TIP3    H154923   3.530   0.640  16.746 -0.7615 -2.9776 -0.4502
11144TIP3    H254924   3.381   0.646  16.769 -0.4582  0.0665  1.2305
11145TIP3   OH254925   1.694   0.163  15.233  0.1508  0.7176 -0.5577
11145TIP3    H154926   1.706   0.086  15.289 -0.2279  0.8179 -0.3306
11145TIP3    H254927   1.687   0.128  15.144 -1.0347  0.3882 -0.3580
11146TIP3   OH254928   2.904   6.575  17.019  0.5883 -0.1946 -0.0509
11146TIP3    H154929   2.960   6.553  17.093  1.4591  0.6736 -0.4191
11146TIP3    H254930   2.925   6.667  17.000 -1.6501  0.4742  0.3804
11147TIP3   OH254931   5.713   3.524   0.692 -0.0970  0.3221  0.6046
11147TIP3    H154932   5.760   3.605   0.712 -1.0019  0.9860  0.1085
11147TIP3    H254933   5.632   3.531   0.742 -0.1755 -0.2837  0.5628
11148TIP3   OH254934   0.494   2.905   5.544 -0.2690  0.3469 -0.5025
11148TIP3    H154935   0.536   2.918   5.630 -0.9078 -0.5338 -0.0409
11148TIP3    H254936   0.542   2.832   5.505 -1.0526 -0.3680 -0.1635
11149TIP3   OH254937   3.766   3.381   0.597  0.3749 -0.0095 -0.4021
11149TIP3    H154938   3.786   3.390   0.504 -0.3868 -0.7938 -0.6588
11149TIP3    H254939   3.846   3.345   0.635  0.4897 -0.2518 -0.8667
11150TIP3   OH254940   2.018   6.259   6.882  0.2782  0.3267  0.7470
11150TIP3    H154941   1.986   6.174   6.914  0.8615 -0.2263 -0.0697
11150TIP3    H254942   2.114   6.250   6.883  0.3484 -0.1122 -1.9850
11151TIP3   OH254943   3.464   3.167   6.124  0.0344  0.5908 -0.1371
11151TIP3    H154944   3.383   3.151   6.171 -0.6010  2.1245 -0.6519
11151TIP3    H254945   3.532   3.165   6.192 -0.6842  1.3381  0.6268
11152TIP3   OH254946   5.672   5.796   4.443  0.1178  0.7233  0.3001
11152TIP3    H154947   5.584   5.801   4.406  0.6701 -1.7613 -1.5608
11152TIP3    H254948   5.728   5.842   4.380  0.3838  0.8919  0.6544
11153TIP3   OH254949   4.195   6.336  10.937  0.1391 -0.2799  0.4229
11153TIP3    H154950   4.176   6.299  10.851 -0.8031  0.3453  0.3477
11153TIP3    H254951   4.128   6.300  10.995  2.4406 -3.0351  1.6171
11154TIP3   OH254952   4.866   4.383   3.609 -0.0339 -0.2596  0.6103
11154TIP3    H154953   4.881   4.293   3.638 -0.1371  0.2608  2.3463
11154TIP3    H254954   4.952   4.412   3.577  0.0188 -0.9293  0.1162
11155TIP3   OH254955   2.641   2.394  15.276  0.4191 -0.1971 -0.6348
11155TIP3    H154956   2.711   2.412  15.338 -0.1057  1.1994 -0.4011
11155TIP3    H254957   2.570   2.357  15.330 -0.4946  2.1491 -0.1228
11156TIP3   OH254958   3.546   1.618  17.114  0.5703  0.2558  0.0565
11156TIP3    H154959   3.513   1.584  17.031 -1.2271 -0.8506  1.1492
11156TIP3    H254960   3.641   1.604  17.110  0.5590  0.5697 -1.9292
11157TIP3   OH254961   1.646   0.098  16.490 -0.4328 -0.7187 -0.3355
11157TIP3    H154962   1.563   0.135  16.460 -0.2408 -0.4260 -0.5175
11157TIP3    H254963   1.631   0.074  16.581 -0.2273  0.9256  0.1727
11158TIP3   OH254964   0.304   1.380   4.696 -0.1905 -0.7607 -0.3171
11158TIP3    H154965   0.264   1.299   4.665  0.2669 -1.0084 -0.2618
11158TIP3    H254966   0.273   1.390   4.786  1.3034 -1.9227  0.3795
11159TIP3   OH254967   2.759   1.263  11.146 -0.0675 -0.3478 -0.2095
11159TIP3    H154968   2.812   1.307  11.079  2.2155 -2.1284  0.3142
11159TIP3    H254969   2.777   1.311  11.227 -0.6804  0.1279 -0.3472
11160TIP3   OH254970   0.071   3.725  15.854  0.4529  0.3981  0.1953
11160TIP3    H154971   0.043   3.781  15.927 -1.9473  0.3267 -0.5848
11160TIP3    H254972  -0.009   3.685  15.822  1.3803  0.5398 -2.5977
11161TIP3   OH254973   1.699   4.866   2.580 -0.3390 -0.5911 -0.0552
11161TIP3    H154974   1.776   4.842   2.527  0.4960 -0.8904  1.2634
11161TIP3    H254975   1.650   4.926   2.524  1.7454  1.0029 -0.3010
11162TIP3   OH254976   1.775   3.807   5.538  0.0280 -0.3278 -0.5177
11162TIP3    H154977   1.717   3.874   5.503  0.6313 -0.3940 -1.6546
11162TIP3    H254978   1.855   3.854   5.563 -0.8702 -0.0341  2.1416
11163TIP3   OH254979   4.205   2.130   1.728 -0.1140 -0.5609  0.0114
11163TIP3    H154980   4.164   2.202   1.776 -0.2042 -0.7086  0.1600
11163TIP3    H254981   4.199   2.056   1.788 -1.4293 -1.0873 -0.7562
11164TIP3   OH254982   4.799   2.805   3.380  0.5377 -0.1198 -0.0653
11164TIP3    H154983   4.846   2.788   3.299  0.4820 -3.0749  0.4120
11164TIP3    H254984   4.735   2.734   3.386 -0.9819  1.2690  1.5083
11165TIP3   OH254985   4.791   3.294  16.661 -0.1144  0.5016 -0.7726
11165TIP3    H154986   4.829   3.206  16.654  1.8968  1.0481  1.8718
11165TIP3    H254987   4.837   3.345  16.594 -0.0078 -0.0257 -1.1103
11166TIP3   OH254988   2.130   4.895  16.968 -0.2432 -0.3284 -0.1734
11166TIP3    H154989   2.149   4.844  16.888  0.7664 -0.9518  0.4452
11166TIP3    H254990   2.152   4.985  16.945 -1.9621 -0.1398 -1.2547
11167TIP3   OH254991   0.104   3.805  11.350 -0.3303  0.1581  0.1223
11167TIP3    H154992   0.198   3.817  11.334 -0.3845  2.9331  1.3211
11167TIP3    H254993   0.072   3.759  11.273  2.1038 -1.6136  0.0257
11168TIP3   OH254994   5.334   5.629  13.951  0.4438  0.5079  0.4687
11168TIP3    H154995   5.293   5.625  13.865 -0.9498  1.5055  1.0513
11168TIP3    H254996   5.311   5.716  13.985  1.3311  0.3028  1.6609
11169TIP3   OH254997   1.670   3.578   4.517  0.1028 -0.0055  0.3299
11169TIP3    H154998   1.672   3.561   4.422  2.2713 -0.7105  0.4336
11169TIP3    H254999   1.612   3.653   4.527 -0.0390  0.1892 -1.5848
11170TIP3   OH255000   3.382   6.568  15.298 -0.3737  0.4378 -0.3582
11170TIP3    H155001   3.405   6.613  15.216  0.3482  0.6439 -0.0456
11170TIP3    H255002   3.286   6.570  15.300 -0.5749 -1.7694 -2.4350
11171TIP3   OH255003   4.623   5.782   0.605 -0.0379 -0.3146 -0.3484
11171TIP3    H155004   4.671   5.824   0.533  0.1872 -0.3836 -0.2388
11171TIP3    H255005   4.568   5.716   0.562  0.1750 -0.4286 -0.4489
11172TIP3   OH255006   5.235   3.257   0.278  0.0204 -0.3514 -0.1892
11172TIP3    H155007   5.159   3.292   0.231  1.4945 -0.8550 -3.1838
11172TIP3    H255008   5.309   3.275   0.221  1.7914 -2.3495  1.3088
11173TIP3   OH255009   2.487   4.154  13.681 -0.8135  0.0646  0.2505
11173TIP3    H155010   2.478   4.244  13.711  1.3713 -0.0184  1.3572
11173TIP3    H255011   2.563   4.120  13.729 -0.8039 -1.9756 -1.0771
11174TIP3   OH255012   6.260   0.194  11.593  0.4933  0.1781  0.4416
11174TIP3    H155013   6.291   0.140  11.520  0.6164  0.1870  0.4862
11174TIP3    H255014   6.296   0.281  11.574 -2.1104  1.0135 -1.2162
11175TIP3   OH255015   5.522   4.234   1.788 -0.4152 -0.1311 -0.4383
11175TIP3    H155016   5.556   4.193   1.709  0.6485 -1.2222  0.5465
11175TIP3    H255017   5.599   4.248   1.843 -0.8494  2.4385 -0.3576
11176TIP3   OH255018   3.578   5.759  10.582 -0.5077 -0.6187  0.0953
11176TIP3    H155019   3.485   5.766  10.601 -1.1741 -1.7499 -2.2969
11176TIP3    H255020   3.592   5.665  10.566  0.6650 -0.2772 -1.0906
11177TIP3   OH255021   1.358   2.042  12.860 -0.7343  0.4027  0.4446
11177TIP3    H155022   1.374   1.955  12.898 -0.7192  1.1424  2.2637
11177TIP3    H255023   1.416   2.047  12.785 -1.2989 -1.4446 -0.1565
11178TIP3   OH255024   0.013   6.623   3.170  0.3050  0.4634  0.4665
11178TIP3    H155025   0.028   6.533   3.139 -0.9504 -0.1619  1.5526
11178TIP3    H255026   0.095   6.668   3.154  1.4295 -1.2523  1.0801
11179TIP3   OH255027   2.505   3.092  12.305 -0.2116 -0.4825  0.1819
11179TIP3    H155028   2.414   3.116  12.287 -0.1864 -0.3269  0.2532
11179TIP3    H255029   2.552   3.115  12.225 -0.3097 -0.9893 -0.0215
11180TIP3   OH255030   4.072   6.059  10.704 -0.4312  0.0287 -0.1186
11180TIP3    H155031   4.016   6.136  10.721  0.3322  0.9656 -1.6171
11180TIP3    H255032   4.011   5.993  10.671 -1.1359 -0.1330  1.3938
11181TIP3   OH255033   1.230   5.240  10.586 -0.2214 -0.5487 -0.0777
11181TIP3    H155034   1.286   5.250  10.509  0.0885 -0.2900  0.1757
11181TIP3    H255035   1.205   5.148  10.587  0.1743 -0.6570 -0.2107
11182TIP3   OH255036   6.441   4.072  11.778 -0.6551 -0.5803  0.3251
11182TIP3    H155037   6.505   4.070  11.849  1.7214 -0.1103 -1.6501
11182TIP3    H255038   6.440   4.164  11.751 -2.0514 -0.6271  0.1753
11183TIP3   OH255039   3.244   3.797  12.219  0.0704 -0.3570  0.0715
11183TIP3    H155040   3.194   3.756  12.148  0.4361 -0.9629  0.1548
11183TIP3    H255041   3.227   3.741  12.295  0.3809 -0.2124  0.2485
11184TIP3   OH255042   3.187   2.520   0.293 -0.6223  0.1120 -0.4978
11184TIP3    H155043   3.122   2.564   0.347 -0.5403 -0.3927  0.0183
11184TIP3    H255044   3.205   2.582   0.222 -0.6780  0.8066  0.0878
11185TIP3   OH255045   6.059   3.769  16.927 -0.1688 -0.2410  0.0579
11185TIP3    H155046   6.094   3.745  17.012 -1.2982  0.4047  0.7207
11185TIP3    H255047   6.053   3.864  16.928 -1.1899 -0.2814 -0.3101
11186TIP3   OH255048   2.565   4.931  12.185  0.0504  0.1900 -0.2444
11186TIP3    H155049   2.640   4.874  12.167 -0.1434  0.5717 -2.4982
11186TIP3    H255050   2.604   5.015  12.206  0.3332 -0.6103  2.9327
11187TIP3   OH255051   1.600   1.717  12.705  0.9465  0.2780 -0.1881
11187TIP3    H155052   1.555   1.644  12.747  0.0509  0.6859 -0.4101
11187TIP3    H255053   1.632   1.770  12.778 -0.0995  0.6771  0.0033
11188TIP3   OH255054   5.371   1.922   1.534  0.1553  0.1210 -0.1842
11188TIP3    H155055   5.312   1.948   1.604 -0.9527  0.3011 -1.1633
11188TIP3    H255056   5.316   1.876   1.470  1.4056 -1.4626 -0.2182
11189TIP3   OH255057   2.590   5.560   4.899 -0.4071  0.0789  0.4457
11189TIP3    H155058   2.624   5.479   4.937 -0.5742  0.5554  1.6678
11189TIP3    H255059   2.497   5.559   4.922 -0.5724  0.2539 -0.2036
11190TIP3   OH255060   2.328   1.256   3.064 -0.0590 -0.4828 -0.2528
11190TIP3    H155061   2.291   1.281   3.148  0.1291 -3.5465  0.8543
11190TIP3    H255062   2.269   1.296   2.999  0.2094  2.5663  1.1892
11191TIP3   OH255063   5.342   6.668  12.753  0.4305  0.3573 -0.1244
11191TIP3    H155064   5.354   6.584  12.708  1.8726  0.9765 -0.9505
11191TIP3    H255065   5.337   6.645  12.846  0.1630 -0.6983 -0.3865
11192TIP3   OH255066   4.639   6.487   0.953 -0.1947 -0.6301  0.3200
11192TIP3    H155067   4.710   6.542   0.987 -0.9381  1.2830 -1.0354
11192TIP3    H255068   4.683   6.421   0.900  0.6219  1.6504 -2.0641
11193TIP3   OH255069   1.807   0.895  12.965 -0.1596 -0.2111 -0.9669
11193TIP3    H155070   1.895   0.929  12.944 -0.6670  2.4586  0.7649
11193TIP3    H255071   1.762   0.893  12.881  0.9594  0.2701 -1.6052
11194TIP3   OH255072   5.518   2.972   2.189 -0.0847  0.1915  0.7243
11194TIP3    H155073   5.444   2.972   2.250  0.6926 -2.6421  1.8524
11194TIP3    H255074   5.595   2.970   2.246  0.6830 -1.7476 -0.2735
11195TIP3   OH255075   0.461   5.094   3.437  0.1087  0.2498 -0.5651
11195TIP3    H155076   0.546   5.135   3.421  1.5328 -1.8814  0.9590
11195TIP3    H255077   0.433   5.128   3.522  0.1299 -0.1009 -0.4165
11196TIP3   OH255078   5.459   6.426  12.650 -0.3153 -0.2524  0.2027
11196TIP3    H155079   5.475   6.461  12.563 -0.1022 -0.0125  0.3357
11196TIP3    H255080   5.498   6.339  12.648  2.8365  0.9871  1.0846
11197TIP3   OH255081   5.258   2.542   6.190 -0.0358 -0.5178 -0.4136
11197TIP3    H155082   5.301   2.477   6.246 -1.8227 -1.0329  0.4506
11197TIP3    H255083   5.165   2.521   6.197 -0.8491  2.8649  0.9020
11198TIP3   OH255084   6.237   6.768   1.429  0.0749 -0.1215  0.2362
11198TIP3    H155085   6.199   6.723   1.353  0.5336 -1.6542  0.8803
11198TIP3    H255086   6.167   6.765   1.495 -0.5793  1.8212 -0.2986
11199TIP3   OH255087   1.153   4.908  15.275  0.3697  0.2700  0.1795
11199TIP3    H155088   1.223   4.941  15.332 -0.5318  0.1574  1.4068
11199TIP3    H255089   1.143   4.975  15.208  2.0806 -0.0163 -0.4200
11200TIP3   OH255090   5.166   6.633  13.470  0.1595 -0.0093 -0.1089
11200TIP3    H155091   5.187   6.637  13.563  0.8201 -1.0039 -0.1944
11200TIP3    H255092   5.107   6.707  13.455  0.3133  0.3600  1.0229
11201TIP3   OH255093   2.790   5.261   0.787  0.3959  0.4009 -0.1415
11201TIP3    H155094   2.861   5.306   0.832  0.0593  0.6986  0.0947
11201TIP3    H255095   2.798   5.170   0.813  0.8780  0.3793 -0.3589
11202TIP3   OH255096   3.600   2.836   3.071 -0.2601  0.2076 -0.0738
11202TIP3    H155097   3.604   2.924   3.034 -0.4543  0.1661 -0.1922
11202TIP3    H255098   3.683   2.796   3.047 -0.3897  0.1772 -0.4738
11203TIP3   OH255099   3.067   5.132  12.714  0.0158 -0.1939  0.1247
11203TIP3    H155100   3.001   5.202  12.705  0.2207  0.4455  2.6210
11203TIP3    H255101   3.134   5.170  12.770  2.1466 -1.1390 -1.6483
11204TIP3   OH255102   6.179   0.747  15.377  0.0045 -0.0041  0.2190
11204TIP3    H155103   6.251   0.738  15.315 -0.3471 -0.8620 -0.0767
11204TIP3    H255104   6.127   0.668  15.365 -0.2247 -0.0509  1.4150
11205TIP3   OH255105   1.586   5.212  12.991 -0.3699 -0.6377  0.1426
11205TIP3    H155106   1.495   5.229  13.015 -1.1839  1.1378 -3.4844
11205TIP3    H255107   1.623   5.299  12.972  2.0945 -1.3233  1.3797
11206TIP3   OH255108   0.736   3.900  13.767 -0.3419  0.3180 -0.1749
11206TIP3    H155109   0.792   3.973  13.795  1.9681 -1.3318 -0.1917
11206TIP3    H255110   0.762   3.827  13.823 -0.5694 -1.2212 -1.9745
11207TIP3   OH255111   3.448   1.246  17.124  0.2580 -0.0867 -0.0793
11207TIP3    H155112   3.426   1.264  17.033  0.6623  0.0287 -0.1586
11207TIP3    H255113   3.539   1.276  17.133  1.0340 -2.1922 -0.2500
11208TIP3   OH255114   6.145   2.496  17.226 -0.4277 -0.8770 -0.3260
11208TIP3    H155115   6.233   2.465  17.206 -0.8813 -0.7390 -3.0397
11208TIP3    H255116   6.089   2.419  17.211 -0.9209 -0.4984 -0.4413
11209TIP3   OH255117   4.562   3.323   4.024  0.8621  0.6428  0.2761
11209TIP3    H155118   4.652   3.300   3.999  0.5427  0.0747 -0.4120
11209TIP3    H255119   4.552   3.414   3.996  0.6579  0.1596 -1.3426
11210TIP3   OH255120   5.975   1.280  15.071 -0.0884  0.3153  0.7214
11210TIP3    H155121   6.046   1.238  15.023  0.3403  1.2436  0.5222
11210TIP3    H255122   5.898   1.225  15.055  0.7418 -1.1210  1.5522
11211TIP3   OH255123   4.173   5.284  16.835 -0.2655  0.6667  0.4176
11211TIP3    H155124   4.267   5.300  16.823  0.0380 -1.0458  0.2803
11211TIP3    H255125   4.137   5.287  16.746 -0.4235  1.6488  0.4976
11212TIP3   OH255126   5.763   5.577  13.569 -0.1841  0.1197  0.0119
11212TIP3    H155127   5.792   5.519  13.639  0.4003 -0.6001 -0.8144
11212TIP3    H255128   5.831   5.571  13.502 -1.6904 -0.8194 -1.5215
11213TIP3   OH255129   3.209   4.432   1.422  0.0999  0.2024 -0.5398
11213TIP3    H155130   3.291   4.401   1.383 -0.3200  0.3418 -1.5573
11213TIP3    H255131   3.147   4.433   1.350 -1.0672 -0.8076  0.4189
11214TIP3   OH255132   4.988   0.865  10.788 -0.2066 -0.2082 -0.3624
11214TIP3    H155133   5.038   0.942  10.761 -0.4788  0.5528  1.1837
11214TIP3    H255134   4.904   0.875  10.744  0.4655 -0.7713 -1.8636
11215TIP3   OH255135   4.507   5.304  12.810 -0.4005  0.5346 -0.1696
11215TIP3    H155136   4.518   5.211  12.833  0.5309  0.5014 -0.7038
11215TIP3    H255137   4.583   5.324  12.755 -0.0567  1.8704  0.7381
11216TIP3   OH255138   3.695   1.673  13.668 -0.0307  0.5681 -0.4232
11216TIP3    H155139   3.772   1.713  13.629 -0.2679  1.5679  0.1166
11216TIP3    H255140   3.620   1.717  13.627 -0.3699 -1.0418 -1.6441
11217TIP3   OH255141   4.279   1.852  12.951  0.4742  0.5113 -0.9043
11217TIP3    H155142   4.374   1.854  12.948  0.9120  2.2554  4.1329
11217TIP3    H255143   4.251   1.930  12.903  1.9999  2.1141  0.6436
11218TIP3   OH255144   2.492   2.309  11.769  0.1548  0.0150  0.0044
11218TIP3    H155145   2.572   2.285  11.722  0.4146  0.0122  0.4460
11218TIP3    H255146   2.422   2.272  11.716  0.4263  0.3241 -0.5734
11219TIP3   OH255147   2.217   0.132  12.203 -0.1044 -0.5766 -0.9583
11219TIP3    H155148   2.221   0.077  12.281 -1.2536  0.6346 -0.0068
11219TIP3    H255149   2.196   0.071  12.132  0.1316 -1.5712 -0.1951
11220TIP3   OH255150   6.694   5.712   2.818  0.6280  0.3548  0.9268
11220TIP3    H155151   6.600   5.720   2.837  0.9282  1.8370  1.9114
11220TIP3    H255152   6.737   5.732   2.901  1.8536  0.3438  0.3176
11221TIP3   OH255153   3.487   4.571   3.008 -0.5897 -0.1126 -0.5870
11221TIP3    H155154   3.425   4.500   2.990 -2.2196  1.0158  0.3520
11221TIP3    H255155   3.467   4.637   2.942 -1.2298  0.7523  0.4475
11222TIP3   OH255156   1.579   3.770  13.644 -0.3035  0.7890  0.2188
11222TIP3    H155157   1.597   3.726  13.561 -1.6394 -0.5393  0.5999
11222TIP3    H255158   1.660   3.817  13.664  0.6677 -0.3142 -0.9398
11223TIP3   OH255159   0.750   3.330  12.363  0.0158  0.3637  0.2457
11223TIP3    H155160   0.838   3.310  12.394  0.0363 -0.0189 -0.0557
11223TIP3    H255161   0.742   3.284  12.280 -0.7928 -0.3824  0.7098
11224TIP3   OH255162   4.936   4.869   0.788  0.2619 -0.1809 -0.1710
11224TIP3    H155163   4.911   4.944   0.841  0.0821 -0.6412  0.4165
11224TIP3    H255164   4.964   4.906   0.705 -0.1864  0.5018 -0.0239
11225TIP3   OH255165   0.221   4.977   4.061  0.3849 -0.3089 -0.2492
11225TIP3    H155166   0.276   4.961   4.138  0.4698  0.4945 -0.1326
11225TIP3    H255167   0.133   4.954   4.089  0.3584  0.3319  0.2157
11226TIP3   OH255168   2.326   2.964   6.055  0.2697 -0.2397 -0.3167
11226TIP3    H155169   2.287   2.908   5.987 -0.3862 -0.6246  0.3591
11226TIP3    H255170   2.355   2.902   6.122 -0.5161  0.2360  0.4660
11227TIP3   OH255171   2.839   1.573   4.100  0.7256 -0.1808 -0.2863
11227TIP3    H155172   2.798   1.488   4.088  0.7024  0.0181 -1.7794
11227TIP3    H255173   2.812   1.624   4.024 -0.5784  1.7267  1.3613
11228TIP3   OH255174   1.534   2.783   2.032 -0.3403 -0.2322  0.5882
11228TIP3    H155175   1.540   2.777   1.936  0.7658 -2.3585  0.7222
11228TIP3    H255176   1.611   2.834   2.057  1.4292 -2.6767  0.4849
11229TIP3   OH255177   2.564   0.251  16.956  0.3720  0.1393 -0.2961
11229TIP3    H155178   2.583   0.184  17.022  0.2820 -0.6449 -1.0412
11229TIP3    H255179   2.650   0.288  16.935  0.6612 -0.8729 -1.0227
11230TIP3   OH255180   3.486   0.208   1.520  0.2807 -0.0154  0.4278
11230TIP3    H155181   3.531   0.266   1.582  4.6359 -0.8869 -1.5357
11230TIP3    H255182   3.492   0.121   1.559  0.2187 -0.1334  0.1792
11231TIP3   OH255183   1.766   3.392   5.522  0.1363  0.1076 -0.2491
11231TIP3    H155184   1.685   3.425   5.483 -0.1334  0.0055  0.2222
11231TIP3    H255185   1.796   3.324   5.461 -2.0579 -2.4709  1.3397
11232TIP3   OH255186   5.793   6.661   5.073  0.0593  0.4809  0.0880
11232TIP3    H155187   5.847   6.655   4.994 -2.0855 -0.6990 -1.4101
11232TIP3    H255188   5.747   6.744   5.065  0.4643  0.7530  0.5461
11233TIP3   OH255189   5.026   1.849   5.415  0.1296  0.0224  0.4864
11233TIP3    H155190   5.091   1.798   5.367  0.8141 -0.7050  2.1137
11233TIP3    H255191   5.014   1.803   5.498 -0.3300  1.6959  1.4155
11234TIP3   OH255192   3.261   0.403  13.702 -0.5466 -0.1027  0.5855
11234TIP3    H155193   3.341   0.419  13.752  0.8460  1.2294 -1.8522
11234TIP3    H255194   3.212   0.340  13.754  1.8135 -0.5288  2.4667
11235TIP3   OH255195   2.522   5.720   5.977  0.3563 -0.1007  0.3822
11235TIP3    H155196   2.580   5.652   5.942 -0.2649  0.8118 -2.6651
11235TIP3    H255197   2.580   5.777   6.027  1.6027 -0.7457 -0.2754
11236TIP3   OH255198   2.054   3.191  13.757  0.0189 -0.3766 -0.3621
11236TIP3    H155199   2.014   3.249  13.822  1.4548  0.4738 -0.1920
11236TIP3    H255200   2.023   3.224  13.673 -1.3460 -1.0923 -0.1720
11237TIP3   OH255201   1.698   4.708   6.540  0.7331  0.7850  0.1118
11237TIP3    H155202   1.749   4.772   6.491  2.7665 -0.8616 -0.0823
11237TIP3    H255203   1.683   4.637   6.478  0.3180  0.1633  0.8959
11238TIP3   OH255204   0.877   3.659  12.202  0.2928  0.0839  0.1556
11238TIP3    H155205   0.790   3.669  12.163  0.8475  0.7068 -0.9650
11238TIP3    H255206   0.937   3.696  12.137  1.4164 -0.4912  0.8323
11239TIP3   OH255207   3.990   5.312   3.592  0.1535 -0.4471 -0.4564
11239TIP3    H155208   3.932   5.340   3.520 -0.9737 -0.0047  0.5902
11239TIP3    H255209   4.073   5.355   3.573 -0.1510 -0.2610 -1.4485
11240TIP3   OH255210   1.053   2.001   5.743  0.1731 -0.3666  0.7406
11240TIP3    H155211   1.043   2.066   5.813 -1.6207 -0.2088  0.3757
11240TIP3    H255212   1.120   1.941   5.776 -0.2814 -0.0229  2.3949
11241TIP3   OH255213   2.251   4.467   4.389  0.2312 -0.1483  0.8826
11241TIP3    H155214   2.317   4.496   4.453 -1.1725  0.2680  2.2138
11241TIP3    H255215   2.211   4.391   4.430 -2.1778  1.3935  1.5732
11242TIP3   OH255216   2.592   0.192   1.620 -0.6011 -0.3523 -0.4033
11242TIP3    H155217   2.530   0.262   1.600 -1.3271  0.2191  3.1535
11242TIP3    H255218   2.539   0.123   1.661  0.8904 -0.2389  1.9168
11243TIP3   OH255219   0.059   0.622   1.743 -0.8635  0.3622  0.1722
11243TIP3    H155220   0.070   0.538   1.788 -1.4152  0.5229  0.6059
11243TIP3    H255221  -0.029   0.652   1.766 -1.2209  0.3878 -1.1210
11244TIP3   OH255222   5.745   3.555   0.010 -0.1399  0.2194 -0.5019
11244TIP3    H155223   5.828   3.526   0.049 -0.7132 -0.3187  0.3297
11244TIP3    H255224   5.700   3.602   0.080 -0.1333  1.3524 -1.2340
11245TIP3   OH255225   0.836   6.654   2.215 -0.0816  0.7521  0.0045
11245TIP3    H155226   0.760   6.695   2.175 -0.6988  1.2680  1.6508
11245TIP3    H255227   0.805   6.568   2.244  0.0290  0.8721  0.4807
11246TIP3   OH255228   5.216   3.765   1.367 -0.2003  0.1213 -0.0481
11246TIP3    H155229   5.290   3.799   1.418 -0.1317 -1.4211  0.9319
11246TIP3    H255230   5.139   3.807   1.407 -0.0103  0.2405  0.2007
11247TIP3   OH255231   0.242   5.682  11.869 -0.6712 -0.1001  0.2427
11247TIP3    H155232   0.299   5.693  11.945  1.5620  0.1888 -1.3739
11247TIP3    H255233   0.276   5.743  11.804 -1.6789 -1.2372 -1.4472
11248TIP3   OH255234   4.100   5.594   1.365  0.2177 -0.0684 -0.3724
11248TIP3    H155235   4.054   5.671   1.399  0.9026  0.3711 -0.4322
11248TIP3    H255236   4.129   5.548   1.444  0.7638  0.3187 -0.3431
11249TIP3   OH255237   1.825   3.805  14.292 -0.5972  0.7179  0.0545
11249TIP3    H155238   1.912   3.799  14.332  1.1477 -0.1086 -3.5042
11249TIP3    H255239   1.790   3.889  14.323  3.1694  3.0394 -1.3716
11250TIP3   OH255240   2.229   3.469   1.485  0.2603 -0.5054  0.0856
11250TIP3    H155241   2.322   3.479   1.466  0.1744 -0.2067 -0.1794
11250TIP3    H255242   2.190   3.553   1.460  0.1084 -0.1611  1.3848
11251TIP3   OH255243   1.022   4.652   4.773  0.2414 -0.0444 -1.4178
11251TIP3    H155244   0.990   4.668   4.862 -2.2426 -1.7782 -1.9017
11251TIP3    H255245   1.014   4.737   4.730  1.3586  0.7912 -0.0799
11252TIP3   OH255246   0.559   5.061  16.422  0.3988  0.4569  0.2653
11252TIP3    H155247   0.595   5.150  16.430 -0.8163  0.9199  0.7820
11252TIP3    H255248   0.512   5.047  16.504 -1.1391  0.1346 -0.6375
11253TIP3   OH255249   3.556   3.587   5.614 -0.8956 -0.3502  0.1322
11253TIP3    H155250   3.546   3.494   5.595 -0.1636 -0.4407  0.1561
11253TIP3    H255251   3.650   3.598   5.633 -1.3820 -0.1237  2.8753
11254TIP3   OH255252   5.741   3.612   4.382 -0.2704  0.5760 -0.7701
11254TIP3    H155253   5.753   3.687   4.441 -1.7005  0.4030 -0.2177
11254TIP3    H255254   5.745   3.650   4.294  3.3301  0.6543 -0.7567
11255TIP3   OH255255   5.784   4.410   4.402  0.2081 -0.3494  0.1339
11255TIP3    H155256   5.765   4.503   4.413  1.0289 -0.0953 -0.4782
11255TIP3    H255257   5.799   4.378   4.491 -1.7221 -0.2929  0.5201
11256TIP3   OH255258   2.738   1.368   1.202 -0.4670 -0.1606 -0.7545
11256TIP3    H155259   2.658   1.417   1.223  1.2633  3.9767 -2.7037
11256TIP3    H255260   2.713   1.314   1.127 -1.7555 -0.0168 -0.4616
11257TIP3   OH255261   3.723   0.017  13.285 -0.0241 -0.5062  0.3969
11257TIP3    H155262   3.662   0.087  13.307 -0.0793 -0.1502 -0.8267
11257TIP3    H255263   3.705  -0.052  13.349  0.3570  0.7535  1.9443
11258TIP3   OH255264   6.353   5.567   5.406  0.9328  0.4276  0.5566
11258TIP3    H155265   6.367   5.557   5.311  1.3364  0.6537  0.5895
11258TIP3    H255266   6.279   5.510   5.425 -1.1812  2.6256 -0.4410
11259TIP3   OH255267   4.128   4.659  15.139 -0.1221 -0.2894 -0.1074
11259TIP3    H155268   4.084   4.611  15.209  0.2908 -0.2489  0.1815
11259TIP3    H255269   4.220   4.660  15.164 -0.0949  0.4913 -0.2121
11260TIP3   OH255270   6.250   2.058   0.534 -0.6342 -0.6410 -0.3497
11260TIP3    H155271   6.260   1.975   0.581 -0.8954 -1.0960 -1.0791
11260TIP3    H255272   6.183   2.104   0.583 -0.5106 -0.8702  0.0469
11261TIP3   OH255273   5.536   1.930   6.200  0.8343 -0.9671  0.5600
11261TIP3    H155274   5.625   1.966   6.204  0.7229 -0.6899  0.5745
11261TIP3    H255275   5.499   1.964   6.119  0.7393 -1.0775  0.5561
11262TIP3   OH255276   4.824   5.897  15.475  0.1410  0.7041 -0.4745
11262TIP3    H155277   4.762   5.970  15.479 -0.9060 -0.1908  0.8931
11262TIP3    H255278   4.791   5.841  15.405 -0.2692  0.5330 -0.1507
11263TIP3   OH255279   6.223   3.575  11.215 -0.6491 -0.3569 -0.2628
11263TIP3    H155280   6.228   3.613  11.128  1.2816 -2.1171 -0.9915
11263TIP3    H255281   6.129   3.575  11.236 -1.1070  0.4773 -2.1342
11264TIP3   OH255282   1.391   6.806   5.215 -0.3929  0.3954  0.4211
11264TIP3    H155283   1.485   6.818   5.226  0.0631 -0.2726 -2.1618
11264TIP3    H255284   1.371   6.729   5.268  0.7441 -0.1203  0.1370
11265TIP3   OH255285   5.220   5.785   2.713  0.5671 -0.2168 -0.6518
11265TIP3    H155286   5.257   5.730   2.645  1.8331  0.2384 -0.3578
11265TIP3    H255287   5.213   5.728   2.790  0.1137 -0.4518 -0.8636
11266TIP3   OH255288   4.903   5.956   1.725  0.3092  0.2427 -0.4460
11266TIP3    H155289   4.970   5.907   1.677  1.7631  1.3521  0.3606
11266TIP3    H255290   4.943   6.042   1.740 -0.6607  0.4127  1.4579
11267TIP3   OH255291   0.547   0.478  15.819  0.2795 -0.0972 -0.2811
11267TIP3    H155292   0.538   0.383  15.813  0.5807 -0.1465  0.0116
11267TIP3    H255293   0.617   0.499  15.757  0.2653 -0.0758 -0.2897
11268TIP3   OH255294   6.363   3.616   1.407 -0.3910  0.2916 -0.0698
11268TIP3    H155295   6.368   3.646   1.498  1.1044  0.8686 -0.3115
11268TIP3    H255296   6.451   3.629   1.373 -0.5832 -1.1842 -1.2269
11269TIP3   OH255297   2.880   4.870  14.513  0.1316  0.3026 -0.1254
11269TIP3    H155298   2.899   4.960  14.487 -0.3935  0.5692  0.3783
11269TIP3    H255299   2.841   4.878  14.601  1.0900 -0.5014  0.3917
11270TIP3   OH255300   6.358   0.991   0.663  0.7468  0.1126 -0.0573
11270TIP3    H155301   6.422   0.999   0.592  0.1365 -1.9133 -0.9163
11270TIP3    H255302   6.405   0.943   0.732  0.0621 -1.9327 -0.9335
11271TIP3   OH255303   3.714   5.468   3.778 -0.2404  0.4302  0.1451
11271TIP3    H155304   3.801   5.467   3.738  0.2959 -0.8754  1.2784
11271TIP3    H255305   3.709   5.552   3.823  1.3775 -0.4144  2.0127
11272TIP3   OH255306   4.919   0.853   5.155 -0.3212 -0.3327 -0.0906
11272TIP3    H155307   4.826   0.875   5.168 -0.0757  0.6030  0.1808
11272TIP3    H255308   4.925   0.828   5.063 -0.9560 -1.0136  0.0464
11273TIP3   OH255309   4.092   3.094  17.123 -0.8819  0.4098  0.2118
11273TIP3    H155310   4.080   3.105  17.028  1.1537 -0.5827 -0.2158
11273TIP3    H255311   4.130   3.177  17.152 -1.2043  0.5958  0.1061
11274TIP3   OH255312   5.089   5.955  12.667 -0.2495 -0.2698 -0.0823
11274TIP3    H155313   5.183   5.975  12.660 -0.1476 -1.3797 -3.1018
11274TIP3    H255314   5.083   5.897  12.743  1.5438 -0.3069  0.0728
11275TIP3   OH255315   3.428   4.511  11.941 -0.0666 -0.2544 -0.1710
11275TIP3    H155316   3.458   4.598  11.967 -2.0479  0.6681 -0.7454
11275TIP3    H255317   3.434   4.459  12.021 -0.8802  1.0237  0.7690
11276TIP3   OH255318   0.730   0.427  11.528  0.2802 -1.1186 -0.0991
11276TIP3    H155319   0.698   0.347  11.487  1.4089 -2.2995  1.1931
11276TIP3    H255320   0.721   0.411  11.622 -1.2081  1.0477  0.1927
11277TIP3   OH255321   4.602   0.699  17.053 -0.6456  0.0160 -0.0054
11277TIP3    H155322   4.610   0.779  17.104 -0.2638 -0.2139  0.3095
11277TIP3    H255323   4.664   0.638  17.095 -1.3790 -0.6422  0.1471
11278TIP3   OH255324   1.451   4.928   3.291  0.2540  0.0650  0.1021
11278TIP3    H155325   1.451   4.991   3.219 -0.5841 -0.5803 -0.4897
11278TIP3    H255326   1.528   4.873   3.274  0.8710  0.7779  0.5089
11279TIP3   OH255327   0.143   2.858  16.269 -0.4666  1.0501  0.2204
11279TIP3    H155328   0.085   2.854  16.345 -0.6418  0.3793  0.0533
11279TIP3    H255329   0.169   2.768  16.253  0.4822  1.3152  0.1708
11280TIP3   OH255330   0.328   5.602   2.261 -0.6213 -0.0593 -0.3150
11280TIP3    H155331   0.277   5.650   2.195 -0.5073 -0.4288 -0.6760
11280TIP3    H255332   0.329   5.512   2.229  0.0311 -0.1054 -0.1657
11281TIP3   OH255333   2.578   0.929   0.595  0.5431 -0.4430 -0.4826
11281TIP3    H155334   2.520   0.951   0.522  1.0089 -0.5117 -0.8777
11281TIP3    H255335   2.546   0.844   0.625 -1.0967  0.5810  0.8840
11282TIP3   OH255336   1.296   2.445   2.977  0.1699 -0.5521  0.0599
11282TIP3    H155337   1.368   2.452   2.914 -0.4456 -0.8669 -0.6963
11282TIP3    H255338   1.295   2.529   3.022 -0.8749  0.6123 -2.0107
11283TIP3   OH255339   5.325   4.518   0.585  0.6921 -0.5453  0.4188
11283TIP3    H155340   5.294   4.450   0.525 -0.7769 -0.4528  1.0291
11283TIP3    H255341   5.411   4.542   0.551 -0.0138 -0.6218 -1.5561
11284TIP3   OH255342   2.601   3.275  11.166  0.2589  0.6760  0.1900
11284TIP3    H155343   2.586   3.258  11.073 -1.9100 -1.8688  0.8931
11284TIP3    H255344   2.523   3.323  11.194  0.5895  0.8452  0.8492
11285TIP3   OH255345   3.946   6.509  17.111  0.2602  0.0090  0.7663
11285TIP3    H155346   3.882   6.483  17.046  0.9866  3.4402 -1.5781
11285TIP3    H255347   4.030   6.506  17.065  1.1598  0.1278  2.3297
11286TIP3   OH255348   0.602   4.355  16.096  0.0649  0.5161  0.5763
11286TIP3    H155349   0.518   4.332  16.057 -0.4836 -0.2207  2.1183
11286TIP3    H255350   0.583   4.368  16.189  1.4231  1.6552  0.7330
11287TIP3   OH255351   3.561   4.435   5.515 -0.6004 -0.5039 -0.1972
11287TIP3    H155352   3.599   4.464   5.432  0.2368 -0.0260  0.3466
11287TIP3    H255353   3.632   4.441   5.578 -1.8529  1.6385  1.1231
11288TIP3   OH255354   4.944   4.117  13.008 -0.2600 -0.3579 -0.0964
11288TIP3    H155355   4.885   4.095  13.079 -0.4480 -0.1083 -0.1746
11288TIP3    H255356   5.028   4.076  13.033 -0.7828 -1.8096 -0.6045
11289TIP3   OH255357   0.671   2.331  16.209 -0.7470 -0.4173  0.1944
11289TIP3    H155358   0.595   2.274  16.193  0.5362 -1.7561 -1.6161
11289TIP3    H255359   0.722   2.285  16.276 -1.4073  0.3765  1.2587
11290TIP3   OH255360   4.985   5.798   0.691  0.4993  0.5242 -0.0859
11290TIP3    H155361   5.045   5.724   0.693  0.0968  0.2101  0.2746
11290TIP3    H255362   5.000   5.838   0.605 -0.1416 -0.6784 -0.7867
11291TIP3   OH255363   5.566   2.153   1.875 -0.6976  0.0264  0.5765
11291TIP3    H155364   5.561   2.163   1.970  1.9036 -1.4139  0.9860
11291TIP3    H255365   5.541   2.062   1.859  0.6852 -0.3151  0.1713
11292TIP3   OH255366   1.230   6.811  14.915 -0.4447 -0.3781  0.6984
11292TIP3    H155367   1.201   6.880  14.974  0.7154 -0.1983  1.0795
11292TIP3    H255368   1.283   6.753  14.970 -0.6295 -1.0614  0.1728
11293TIP3   OH255369   0.857   6.183   0.978 -0.1702  0.3255 -0.2296
11293TIP3    H155370   0.869   6.275   0.999 -1.6127  0.6886 -0.8611
11293TIP3    H255371   0.943   6.153   0.949  0.4307  1.3234  0.4869
11294TIP3   OH255372   5.549   5.868   4.032 -0.6002 -0.0761  0.3461
11294TIP3    H155373   5.566   5.774   4.038 -1.1634 -0.2305 -0.3318
11294TIP3    H255374   5.623   5.903   3.981  0.3379  0.0848  1.7648
11295TIP3   OH255375   5.024   4.058   5.520  0.3449 -0.3693  0.1342
11295TIP3    H155376   5.014   4.100   5.606 -1.9446  1.3668 -0.8796
11295TIP3    H255377   5.110   4.088   5.489  0.6438  0.0209  1.2779
11296TIP3   OH255378   0.653   1.277   1.345  0.5223 -0.0262 -0.1377
11296TIP3    H155379   0.647   1.203   1.405  2.6303  0.2584  0.5090
11296TIP3    H255380   0.578   1.332   1.368  0.7740 -0.3621  1.6567
11297TIP3   OH255381   1.996   0.415  12.177 -0.0783 -0.0728 -0.1418
11297TIP3    H155382   2.039   0.420  12.091 -2.2589  1.5242 -1.2266
11297TIP3    H255383   1.957   0.327  12.179 -0.0097 -0.1257 -0.7874
11298TIP3   OH255384   3.684   1.201  13.045 -0.3597 -0.6839  0.3005
11298TIP3    H155385   3.738   1.232  13.118 -0.8916  1.4560 -0.1515
11298TIP3    H255386   3.648   1.119  13.075  0.9699 -0.8086  1.6873
11299TIP3   OH255387   3.351   6.747   0.236 -1.1381  0.1378  0.1303
11299TIP3    H155388   3.357   6.688   0.161  0.9729  0.8462 -0.3248
11299TIP3    H255389   3.419   6.718   0.296 -2.0498  0.2918  1.2788
11300TIP3   OH255390   1.770   2.666   5.015 -0.0589  0.2046  0.2100
11300TIP3    H155391   1.682   2.633   5.033  0.1441 -1.4909 -1.5661
11300TIP3    H255392   1.828   2.591   5.026  0.4198 -0.3028 -3.9791
11301TIP3   OH255393   3.269   0.280   1.338  0.1229  0.4430 -0.3171
11301TIP3    H155394   3.290   0.241   1.253  0.0099 -0.6208  0.1317
11301TIP3    H255395   3.329   0.239   1.399 -0.7080  0.1860  0.3421
11302TIP3   OH255396   1.503   5.257   5.324  0.2527  0.1909  0.2183
11302TIP3    H155397   1.594   5.257   5.294  0.7030 -1.6552  1.4601
11302TIP3    H255398   1.466   5.177   5.288 -1.1563  1.2649 -0.8857
11303TIP3   OH255399   4.573   2.951   1.324 -0.3568 -0.0963  0.2313
11303TIP3    H155400   4.569   3.026   1.265  0.4665 -1.6352 -1.9059
11303TIP3    H255401   4.485   2.913   1.320 -0.2073 -0.3906 -0.2746
11304TIP3   OH255402   3.544   5.998   3.188 -0.3970 -0.1742 -0.2078
11304TIP3    H155403   3.486   5.998   3.265  1.3392 -1.8169  1.1998
11304TIP3    H255404   3.609   5.930   3.207  1.0646  0.5002 -2.4279
11305TIP3   OH255405   2.298   5.669   3.567  0.2241 -0.0777  0.5101
11305TIP3    H155406   2.379   5.635   3.530  0.0691  0.1324 -0.0303
11305TIP3    H255407   2.318   5.683   3.659  0.7646 -0.1381  0.4056
11306TIP3   OH255408   3.376   4.135  17.114  0.5258  0.1044 -0.6355
11306TIP3    H155409   3.412   4.153  17.201  1.3253 -0.8478 -0.7563
11306TIP3    H255410   3.424   4.194  17.056  0.2830  0.4457 -0.4940
11307TIP3   OH255411   6.287   5.650  16.960  0.7101  0.3795  0.0348
11307TIP3    H155412   6.361   5.652  16.899 -0.3205  2.1835 -1.2734
11307TIP3    H255413   6.256   5.559  16.957 -0.3234  0.6722 -3.5484
11308TIP3   OH255414   4.901   0.702   2.094 -0.3950  0.3270 -0.1941
11308TIP3    H155415   4.827   0.643   2.111 -0.2564  0.2166  0.0360
11308TIP3    H255416   4.879   0.744   2.011 -0.7368  0.3286 -0.1051
11309TIP3   OH255417   1.573   0.841   0.044  0.4272  0.0533 -0.2213
11309TIP3    H155418   1.618   0.815   0.124  1.2892 -1.0112 -1.0315
11309TIP3    H255419   1.600   0.932   0.031  0.8040  0.0278  0.3318
11310TIP3   OH255420   5.372   3.986  13.466  0.2371 -0.4606 -0.1269
11310TIP3    H155421   5.438   3.916  13.467  0.5305 -0.1889  1.3591
11310TIP3    H255422   5.384   4.029  13.381  1.9879 -0.4067  0.1165
11311TIP3   OH255423   2.715   5.307   4.050  0.4325  0.3051 -0.5758
11311TIP3    H155424   2.800   5.321   4.092  0.1284  0.1853  0.0930
11311TIP3    H255425   2.736   5.268   3.966  1.0280 -0.0148 -0.2847
11312TIP3   OH255426   0.859   1.331   2.706 -0.3258 -0.1318  0.0493
11312TIP3    H155427   0.778   1.290   2.674 -0.7802  1.5243 -1.0919
11312TIP3    H255428   0.835   1.367   2.791 -0.9633  0.7344 -0.4727
11313TIP3   OH255429   6.472   0.899   5.139 -0.5725  0.3001  0.2389
11313TIP3    H155430   6.411   0.971   5.121  0.3116  1.0896  0.2873
11313TIP3    H255431   6.490   0.861   5.053 -1.1161  0.0735  0.2226
11314TIP3   OH255432   0.023   6.266  11.517  0.3209 -0.3839  0.1692
11314TIP3    H155433  -0.052   6.214  11.547 -0.8820 -0.0426 -2.0853
11314TIP3    H255434   0.025   6.253  11.423  1.6570  1.5090 -0.1121
11315TIP3   OH255435   5.368   2.877  15.741  0.0999 -0.3895 -1.1483
11315TIP3    H155436   5.449   2.843  15.703  0.7907  1.3235 -1.3039
11315TIP3    H255437   5.384   2.876  15.836  0.1394 -0.4670 -1.1558
11316TIP3   OH255438   5.939   0.085   2.398  0.1933  0.3171 -0.6072
11316TIP3    H155439   6.019   0.034   2.388  1.0911  1.2809  1.1480
11316TIP3    H255440   5.937   0.142   2.321 -0.1491 -1.4037 -1.9269
11317TIP3   OH255441   2.927   5.227   5.971  0.0320  0.3976  0.1215
11317TIP3    H155442   2.996   5.168   5.942  1.1078  1.6283  0.1157
11317TIP3    H255443   2.960   5.314   5.953 -1.8684  1.0221 -0.6413
11318TIP3   OH255444   4.342   4.886  12.371 -0.2718 -0.1268  0.3741
11318TIP3    H155445   4.416   4.838  12.335  0.2954  1.1828 -0.2886
11318TIP3    H255446   4.347   4.972  12.329 -1.7566  0.2177  0.8614
11319TIP3   OH255447   4.492   1.531  15.385 -0.4887 -0.4967  0.4460
11319TIP3    H155448   4.468   1.574  15.467  0.5985  0.2863  0.3763
11319TIP3    H255449   4.455   1.443  15.392  0.0075 -0.6059  1.9997
11320TIP3   OH255450   3.814   2.035   0.199  0.5039 -0.5764 -0.3254
11320TIP3    H155451   3.801   1.970   0.268 -0.2662 -0.0034  0.0901
11320TIP3    H255452   3.849   2.111   0.244  2.4457 -1.0212 -0.9698
11321TIP3   OH255453   1.576   6.492  11.637  0.2921  0.0801 -0.5274
11321TIP3    H155454   1.627   6.559  11.684 -1.4177 -0.1467  1.8754
11321TIP3    H255455   1.539   6.538  11.562  1.9749  0.8848 -0.8936
11322TIP3   OH255456   4.604   5.245  11.667 -0.2288  0.1205  0.2510
11322TIP3    H155457   4.631   5.330  11.702 -0.7595  0.2930  0.2462
11322TIP3    H255458   4.560   5.265  11.585  1.7408 -0.3454 -0.9721
11323TIP3   OH255459   2.903   4.002   1.387 -0.5853 -0.2082 -0.4566
11323TIP3    H155460   2.995   3.978   1.395 -0.4327  0.4576 -0.0992
11323TIP3    H255461   2.904   4.096   1.370 -1.2039 -0.1331 -0.1404
11324TIP3   OH255462   1.982   4.470  16.198 -0.1518  0.0122  0.2373
11324TIP3    H155463   2.054   4.456  16.259  1.0342  0.6923 -0.9572
11324TIP3    H255464   1.952   4.382  16.176  1.5797 -0.3943 -0.6659
11325TIP3   OH255465   2.702   1.852  16.018  0.0649 -0.5913 -0.1290
11325TIP3    H155466   2.724   1.920  16.081  1.2740 -0.5136 -0.6149
11325TIP3    H255467   2.732   1.886  15.934 -1.5946 -0.6619 -0.7803
11326TIP3   OH255468   3.342   3.111  15.879  0.1160 -0.2430  0.4468
11326TIP3    H155469   3.284   3.173  15.923  1.1406  0.6121  0.6417
11326TIP3    H255470   3.332   3.029  15.927 -0.0910  0.1981  1.1698
11327TIP3   OH255471   1.417   6.126   2.418 -0.4234 -0.5233 -0.1300
11327TIP3    H155472   1.348   6.191   2.406  1.4498  1.9605  1.4618
11327TIP3    H255473   1.384   6.068   2.487 -2.0238 -1.1719 -1.3972
11328TIP3   OH255474   6.422   0.781  14.456  0.0320 -0.0759  0.7597
11328TIP3    H155475   6.490   0.841  14.486  0.8229 -0.6204  0.0945
11328TIP3    H255476   6.341   0.819  14.488  0.7035  0.1618  2.2957
11329TIP3   OH255477   1.305   2.147  15.232  0.1642 -0.0793 -0.2112
11329TIP3    H155478   1.371   2.201  15.275  2.0612 -1.4713 -1.2275
11329TIP3    H255479   1.256   2.208  15.177 -2.2066  1.7356  3.5061
11330TIP3   OH255480   3.522   4.980  16.579  0.1590  0.8309 -0.5812
11330TIP3    H155481   3.606   4.971  16.624 -0.2483  0.4383  0.1199
11330TIP3    H255482   3.462   4.925  16.629 -1.1138  2.9923  0.4371
11331TIP3   OH255483   3.132   1.777  12.293  0.3899  0.8003 -0.9175
11331TIP3    H155484   3.149   1.683  12.293  1.7793  1.0263 -0.2602
11331TIP3    H255485   3.065   1.789  12.226 -0.8407 -0.8238 -0.0806
11332TIP3   OH255486   1.139   6.537  16.062 -0.1299  0.3490  0.2326
11332TIP3    H155487   1.049   6.505  16.072  1.0656 -3.2304  0.9341
11332TIP3    H255488   1.148   6.604  16.129 -1.6976 -0.7152  1.5986
11333TIP3   OH255489   1.984   2.622   1.642  0.0130  0.0768 -0.7460
11333TIP3    H155490   2.022   2.582   1.720 -3.1662 -0.2249  0.7906
11333TIP3    H255491   2.027   2.576   1.569  0.8672 -1.8551  0.8552
11334TIP3   OH255492   4.541   2.997  15.088 -0.9214  0.6029  0.2462
11334TIP3    H155493   4.473   3.057  15.056 -0.6420 -0.0054 -1.6187
11334TIP3    H255494   4.611   3.003  15.024 -0.6493 -1.2865  0.3056
11335TIP3   OH255495   5.600   6.708  15.591  0.1929 -1.1149 -0.2217
11335TIP3    H155496   5.523   6.664  15.554  0.4117 -1.5780 -0.1256
11335TIP3    H255497   5.653   6.731  15.514 -0.2115 -0.4749 -0.3117
11336TIP3   OH255498   5.738   4.835  16.840 -0.2320  0.1638  0.1094
11336TIP3    H155499   5.668   4.780  16.805 -1.1591  1.4163 -0.0414
11336TIP3    H255500   5.737   4.913  16.784  0.5127  0.7115  0.8435
11337TIP3   OH255501   0.459   5.492   1.610 -0.3897  0.0014  0.4772
11337TIP3    H155502   0.406   5.551   1.663 -1.8763  0.0034 -0.9127
11337TIP3    H255503   0.492   5.547   1.538  0.4559 -0.2933  0.6183
11338TIP3   OH255504   2.919   1.996  14.743  0.3351 -0.5067 -0.3392
11338TIP3    H155505   2.900   1.904  14.762 -0.8643 -0.3294 -0.5706
11338TIP3    H255506   3.000   1.993  14.692 -0.1056 -1.5071 -1.0284
11339TIP3   OH255507   0.556   5.355  13.772 -0.4132 -0.3834 -0.0897
11339TIP3    H155508   0.533   5.305  13.694  0.2698 -1.2957  0.2696
11339TIP3    H255509   0.616   5.423  13.741 -0.4855 -0.4764 -0.4294
11340TIP3   OH255510   2.078   1.119  10.441  0.2967  0.1881 -0.0711
11340TIP3    H155511   2.135   1.195  10.446  1.2231 -0.4717 -0.3619
11340TIP3    H255512   2.002   1.149  10.391 -0.9277  1.8435  2.5539
11341TIP3   OH255513   0.958   2.753   0.892 -0.1216  0.0399  0.4953
11341TIP3    H155514   1.006   2.686   0.942 -1.1779  0.8903  2.8110
11341TIP3    H255515   0.927   2.814   0.959 -1.4452  1.4026 -1.2828
11342TIP3   OH255516   0.389   6.620   6.187 -0.8822 -0.1689  0.0278
11342TIP3    H155517   0.416   6.542   6.235  1.3489  1.2963  1.3276
11342TIP3    H255518   0.463   6.639   6.129 -1.5579  0.7435 -0.5664
11343TIP3   OH255519   4.949   2.162   1.865 -0.3790 -0.0444  1.0335
11343TIP3    H155520   4.920   2.223   1.798 -1.0632 -0.3561  1.0378
11343TIP3    H255521   5.043   2.178   1.873 -0.3953  0.3972  0.4165
11344TIP3   OH255522   5.887   0.917   1.978 -0.0173  0.2482 -0.4948
11344TIP3    H155523   5.804   0.870   1.976 -0.0385  0.2371  0.3659
11344TIP3    H255524   5.887   0.963   2.062  0.7951  0.3373 -0.5337
11345TIP3   OH255525   0.384   5.181  15.340 -0.6469  0.1577 -0.2488
11345TIP3    H155526   0.387   5.275  15.320  0.9200 -0.0658 -1.2244
11345TIP3    H255527   0.455   5.143  15.288 -1.2768 -1.5867  0.1030
11346TIP3   OH255528   0.603   0.986  15.035  0.7905  0.1782  0.5450
11346TIP3    H155529   0.682   0.949  14.996  0.1157  1.2187 -2.0405
11346TIP3    H255530   0.634   1.062  15.084  1.4232  0.6658 -0.5651
11347TIP3   OH255531   3.944   1.159  12.660 -0.1853 -0.1287  0.4276
11347TIP3    H155532   3.891   1.199  12.729  0.7534  2.1817 -0.0983
11347TIP3    H255533   4.001   1.098  12.706 -0.5814  0.2832  1.5003
11348TIP3   OH255534   4.562   4.029   5.841  0.4780 -0.2830  0.6666
11348TIP3    H155535   4.626   3.983   5.787  1.1108  2.3502 -0.9663
11348TIP3    H255536   4.612   4.060   5.916  0.3222 -1.1128  1.1285
11349TIP3   OH255537   5.625   3.305  17.123  0.1159 -0.0715  0.0079
11349TIP3    H155538   5.674   3.366  17.179  1.4353 -0.8852 -0.2034
11349TIP3    H255539   5.590   3.359  17.053 -1.8476  1.0401  1.7178
11350TIP3   OH255540   2.066   5.142   4.348  0.1908 -0.3130 -0.3689
11350TIP3    H155541   1.981   5.184   4.338 -0.6117 -1.9655 -0.9116
11350TIP3    H255542   2.075   5.088   4.269  3.4297  2.5859 -2.2618
11351TIP3   OH255543   4.182   0.069  12.167  0.1883  0.1650  0.0190
11351TIP3    H155544   4.236   0.121  12.108  0.4173  0.3501  0.3865
11351TIP3    H255545   4.244   0.036  12.232  0.1899 -1.1841 -0.6229
11352TIP3   OH255546   5.399   5.942  12.995  0.7909 -0.0782  0.3486
11352TIP3    H155547   5.378   5.880  12.925  3.5576 -1.1866  0.3868
11352TIP3    H255548   5.368   6.027  12.962 -0.9179 -1.0658 -0.7416
11353TIP3   OH255549   5.819   6.337  13.785 -0.0125 -0.1668 -0.8284
11353TIP3    H155550   5.732   6.298  13.779 -0.5760  1.1591 -1.5559
11353TIP3    H255551   5.841   6.361  13.695  0.6828  0.3993 -0.5145
11354TIP3   OH255552   2.293   2.654   3.301  0.0318  0.3682  0.6423
11354TIP3    H155553   2.228   2.620   3.362  1.7217 -0.1281  2.2535
11354TIP3    H255554   2.267   2.618   3.216 -1.8147  0.2654  1.2040
11355TIP3   OH255555   4.383   0.344   4.596 -0.0549 -0.1569  0.2784
11355TIP3    H155556   4.379   0.390   4.512 -1.1284 -0.1183  0.3282
11355TIP3    H255557   4.335   0.263   4.581  1.0244 -0.8460  0.4517
11356TIP3   OH255558   2.242   6.432  17.148  0.1346  0.2005  0.1464
11356TIP3    H155559   2.257   6.484  17.227 -0.9692  2.6379 -1.1238
11356TIP3    H255560   2.267   6.491  17.076 -0.3153 -1.3907 -1.3752
11357TIP3   OH255561   3.901   4.013  11.668  0.0984  0.4814 -0.3248
11357TIP3    H155562   3.895   3.953  11.594 -0.6734 -0.7841  0.7275
11357TIP3    H255563   3.810   4.035  11.689  0.2677  0.3017  0.6561
11358TIP3   OH255564   2.588   4.229  15.968  0.3786  0.2742  0.1972
11358TIP3    H155565   2.574   4.136  15.950 -1.0870  0.6489 -0.7410
11358TIP3    H255566   2.635   4.230  16.052 -1.1358 -1.2909  1.1377
11359TIP3   OH255567   5.710   5.204  13.431 -0.2566 -0.8925 -0.1151
11359TIP3    H155568   5.705   5.273  13.365  0.7897  1.3274  1.9500
11359TIP3    H255569   5.625   5.206  13.474 -0.1522 -0.7080  0.0879
11360TIP3   OH255570   5.192   6.139  15.301  0.0988 -0.3262 -0.5318
11360TIP3    H155571   5.194   6.058  15.353  1.7512  0.1871  0.2939
11360TIP3    H255572   5.276   6.139  15.254  0.0824  0.8424 -0.5903
11361TIP3   OH255573   5.023   0.993  14.847 -0.0823  0.3061 -0.2460
11361TIP3    H155574   5.097   1.044  14.813  0.6142 -1.0309 -0.7978
11361TIP3    H255575   4.979   1.052  14.909  1.4397  1.1315  0.0879
11362TIP3   OH255576   3.097   1.672   4.201 -0.0627  0.2887 -0.6272
11362TIP3    H155577   3.085   1.746   4.260 -0.3867 -0.3639  0.1531
11362TIP3    H255578   3.008   1.642   4.182  0.0010  0.8907 -1.9984
11363TIP3   OH255579   4.943   5.646  10.260  0.7255  0.0042  0.2798
11363TIP3    H155580   4.941   5.731  10.305  0.6975  0.2439 -0.1729
11363TIP3    H255581   4.940   5.582  10.331  2.6266  0.3503  0.7260
11364TIP3   OH255582   5.083   6.094   5.077 -0.9358 -0.0472  0.5502
11364TIP3    H155583   5.095   6.036   5.153 -2.0749 -0.0485  0.7511
11364TIP3    H255584   5.160   6.079   5.023 -0.2651 -0.3108  1.5384
11365TIP3   OH255585   0.911   5.409   3.414  0.9528 -0.1673 -0.4712
11365TIP3    H155586   0.860   5.485   3.441 -1.4288 -0.7447 -2.9099
11365TIP3    H255587   0.974   5.396   3.485 -1.8668  0.9993  2.4901
11366TIP3   OH255588   2.436   5.146  15.643  0.1989  0.5769  0.2247
11366TIP3    H155589   2.437   5.052  15.623 -1.6585  0.4825  0.3419
11366TIP3    H255590   2.447   5.189  15.558  0.2863  0.2509  0.0682
11367TIP3   OH255591   0.674   0.258   1.068 -0.4026 -0.3316 -0.3167
11367TIP3    H155592   0.697   0.348   1.044 -1.5154  0.4454  1.3579
11367TIP3    H255593   0.580   0.252   1.049 -0.7811 -0.4584  1.4628
11368TIP3   OH255594   3.932   4.496  12.120 -0.2130 -0.4313  0.1058
11368TIP3    H155595   3.933   4.489  12.216  2.9500 -1.2902  0.1149
11368TIP3    H255596   3.925   4.406  12.090 -0.0981 -0.2607 -0.4395
11369TIP3   OH255597   3.326   1.305  14.932 -0.4691  0.7636  0.3159
11369TIP3    H155598   3.347   1.261  15.013 -2.0982  0.9107  0.8558
11369TIP3    H255599   3.231   1.293  14.921  0.0066 -1.4307 -2.8597
11370TIP3   OH255600   4.866   4.553  17.029  0.4396 -0.1391  0.2018
11370TIP3    H155601   4.799   4.615  17.058  1.8098  1.2243  0.5906
11370TIP3    H255602   4.906   4.596  16.954 -0.6672 -2.0271 -1.5593
11371TIP3   OH255603   5.554   6.766   2.722 -0.1071  0.2962 -0.0387
11371TIP3    H155604   5.586   6.691   2.672 -1.0467 -0.1699  0.0240
11371TIP3    H255605   5.629   6.825   2.728  0.7064 -0.7108  0.0639
11372TIP3   OH255606   3.053   2.855  14.092  0.6989  0.4505 -0.0626
11372TIP3    H155607   2.998   2.805  14.031 -1.3158  4.3400 -1.8398
11372TIP3    H255608   3.134   2.870  14.043  0.6338  0.3200 -0.2149
11373TIP3   OH255609   5.246   2.716  12.896 -0.8027 -0.7030 -0.6787
11373TIP3    H155610   5.216   2.658  12.826  0.4065 -2.3262  0.0581
11373TIP3    H255611   5.326   2.756  12.861 -0.1905 -1.5254 -0.2750
11374TIP3   OH255612   3.479   0.534  16.157 -0.3714 -0.2101  0.0489
11374TIP3    H155613   3.397   0.535  16.107 -0.9051  0.1764  0.9001
11374TIP3    H255614   3.480   0.618  16.203  0.3056 -0.3862  0.3633
11375TIP3   OH255615   3.613   1.329   3.809  0.1293 -0.2015  0.2870
11375TIP3    H155616   3.529   1.299   3.775  1.0109 -1.7318 -0.6423
11375TIP3    H255617   3.676   1.261   3.782  1.8091  1.3076  0.2312
11376TIP3   OH255618   2.052   2.696  14.000  0.0266 -0.3614 -0.3307
11376TIP3    H155619   2.119   2.631  14.021  0.1266 -0.2631 -0.3440
11376TIP3    H255620   1.970   2.659  14.034  0.1508 -0.3027  0.0397
11377TIP3   OH255621   3.241   1.865  16.429 -0.2132 -0.1353  0.1782
11377TIP3    H155622   3.283   1.811  16.362  0.1413 -1.1229  1.1632
11377TIP3    H255623   3.209   1.802  16.494 -0.1797  0.8142  1.1360
11378TIP3   OH255624   0.805   2.364  14.653 -1.0349  0.0803  0.4733
11378TIP3    H155625   0.845   2.432  14.598 -0.4989 -1.3852 -1.0324
11378TIP3    H255626   0.853   2.370  14.736 -1.6870  2.1617  0.7694
11379TIP3   OH255627   5.390   3.996   2.005  0.3546 -0.2495  0.2265
11379TIP3    H155628   5.322   3.937   2.038  0.8003 -0.5123  0.6861
11379TIP3    H255629   5.413   4.050   2.081 -1.3259  1.7847 -0.6103
11380TIP3   OH255630   6.336   5.799   1.944  0.5252  0.2237  0.0177
11380TIP3    H155631   6.276   5.750   1.889  0.2994 -0.2274  0.6603
11380TIP3    H255632   6.339   5.751   2.026 -0.2642  1.6525  0.9335
11381TIP3   OH255633   6.148   6.523   2.303  0.5567  0.4669  0.3017
11381TIP3    H155634   6.085   6.453   2.293  2.3067 -0.8279 -4.0654
11381TIP3    H255635   6.114   6.594   2.249  1.9579  0.3535 -0.7913
11382TIP3   OH255636   0.049   4.777   3.012 -0.3327  0.1723 -0.4136
11382TIP3    H155637   0.044   4.720   2.935  2.0629 -1.3425  0.4427
11382TIP3    H255638  -0.029   4.756   3.063 -0.3462 -1.1212 -0.9426
11383TIP3   OH255639   2.630   4.481   3.067  0.2482 -0.1363  0.7503
11383TIP3    H155640   2.641   4.576   3.055  1.1990 -0.3097  0.0727
11383TIP3    H255641   2.545   4.462   3.027  0.9669  0.1457 -1.0024
11384TIP3   OH255642   2.141   3.821  17.002 -0.2381 -0.5958 -0.3970
11384TIP3    H155643   2.175   3.898  16.957  0.5384 -1.4027 -1.2066
11384TIP3    H255644   2.050   3.813  16.971 -0.7874  0.7697  0.7434
11385TIP3   OH255645   2.571   2.045  12.262 -0.7006  0.0033  0.7430
11385TIP3    H155646   2.619   2.099  12.325 -0.1849  0.4450  0.0040
11385TIP3    H255647   2.479   2.056  12.286 -0.5355  0.4430  1.2038
11386TIP3   OH255648   3.023   4.128   4.304  0.2462 -0.3114 -0.5751
11386TIP3    H155649   2.961   4.097   4.238 -0.7836  0.8996 -0.1983
11386TIP3    H255650   2.971   4.182   4.363  1.6197  0.5956 -0.1418
11387TIP3   OH255651   3.381   4.053   5.031 -0.2613  0.7898  0.7672
11387TIP3    H155652   3.441   4.033   5.102 -0.5370  1.2336  1.1324
11387TIP3    H255653   3.413   4.136   4.995 -0.9539  1.3130  1.3163
11388TIP3   OH255654   5.326   2.773  12.443 -0.2552 -0.0528  0.3023
11388TIP3    H155655   5.244   2.812  12.414  0.0453 -0.8368 -1.7964
11388TIP3    H255656   5.394   2.833  12.411  0.0455  0.2182  1.3913
11389TIP3   OH255657   3.759   5.621  12.447  0.7735 -0.0230  0.1085
11389TIP3    H155658   3.844   5.629  12.488  1.3770  1.4476 -1.3405
11389TIP3    H255659   3.734   5.710  12.422 -1.4950 -0.3131  1.0439
11390TIP3   OH255660   5.317   0.649   4.810  0.4916  0.0143 -0.0049
11390TIP3    H155661   5.272   0.578   4.857  0.8702 -0.5657 -0.4995
11390TIP3    H255662   5.403   0.653   4.852 -0.0940  1.3395  1.1581
11391TIP3   OH255663   3.981   5.159  17.071 -0.3352 -0.2703  0.1576
11391TIP3    H155664   3.955   5.251  17.061  2.7164  0.7597  0.7265
11391TIP3    H255665   4.071   5.163  17.103  0.2940 -3.4773 -0.8691
11392TIP3   OH255666   5.273   2.414  11.821 -0.6731 -0.2620 -0.1638
11392TIP3    H155667   5.280   2.507  11.800 -1.8038 -0.1819 -0.2550
11392TIP3    H255668   5.322   2.403  11.902 -0.7815  0.4711 -0.0003
11393TIP3   OH255669   4.291   6.523   3.448  0.2724 -0.1890  0.4362
11393TIP3    H155670   4.313   6.607   3.407  0.0233  0.4583  1.5893
11393TIP3    H255671   4.223   6.487   3.391  0.0595  0.6001  0.1719
11394TIP3   OH255672   1.337   0.910   1.909  0.0090 -0.1048  0.5532
11394TIP3    H155673   1.285   0.889   1.831  0.1969 -0.4218  0.5137
11394TIP3    H255674   1.355   1.003   1.902  0.0028 -0.1287  0.2292
11395TIP3   OH255675   5.270   3.549   2.873  0.3024  0.7314 -0.7101
11395TIP3    H155676   5.267   3.622   2.811  1.2432  1.4997  0.1141
11395TIP3    H255677   5.347   3.498   2.847  0.4763  0.8396 -0.4103
11396TIP3   OH255678   6.055   2.115   2.276  0.6526 -0.2010  0.3854
11396TIP3    H155679   6.101   2.161   2.206  0.8635 -0.1743  0.5428
11396TIP3    H255680   6.068   2.022   2.256 -1.9026 -0.3047 -1.4003
11397TIP3   OH255681   5.374   3.599   5.525 -0.4847  0.3441  0.2144
11397TIP3    H155682   5.383   3.590   5.620  0.2557  0.8143  0.2017
11397TIP3    H255683   5.431   3.673   5.503 -1.8248  1.2465 -0.3944
11398TIP3   OH255684   3.409   5.888  16.854  0.1943  0.6385 -0.2172
11398TIP3    H155685   3.341   5.870  16.919 -0.0530  1.4528 -0.2444
11398TIP3    H255686   3.374   5.854  16.772  0.5233 -0.4270  0.0666
11399TIP3   OH255687   5.768   3.018  16.330 -0.2457 -0.5019 -0.4799
11399TIP3    H155688   5.798   2.927  16.332 -0.6098 -0.6727 -1.9958
11399TIP3    H255689   5.765   3.044  16.423  0.5401 -1.7961 -0.0716
11400TIP3   OH255690   4.282   2.164  16.746 -0.1678 -0.0383 -0.6076
11400TIP3    H155691   4.244   2.079  16.725  1.6020 -0.8559 -0.6410
11400TIP3    H255692   4.247   2.223  16.679 -1.0778 -0.8083 -0.8425
11401TIP3   OH255693   0.229   1.562   0.199 -0.3201  0.5661  0.5753
11401TIP3    H155694   0.272   1.642   0.170 -1.7471  1.2897  0.3642
11401TIP3    H255695   0.148   1.558   0.148  0.4990 -1.9572 -0.7255
11402TIP3   OH255696   4.811   6.579   5.060  0.3910  0.0609 -0.0244
11402TIP3    H155697   4.761   6.503   5.087 -0.3553  0.4800 -0.2097
11402TIP3    H255698   4.774   6.605   4.975  0.6429  0.6198  0.0260
11403TIP3   OH255699   1.207   4.601   0.249 -0.7490  0.3578 -0.0649
11403TIP3    H155700   1.213   4.603   0.344  0.0218  0.4260 -0.1114
11403TIP3    H255701   1.201   4.508   0.227  2.2276  0.0900 -0.1092
11404TIP3   OH255702   2.653   3.471  15.916 -0.0801  0.5467 -0.6591
11404TIP3    H155703   2.605   3.495  15.837 -1.7514  0.0850  0.1708
11404TIP3    H255704   2.599   3.403  15.957  1.5841 -0.4384  0.0357
11405TIP3   OH255705   2.686   6.554  10.431 -0.1342  0.1753 -0.0523
11405TIP3    H155706   2.599   6.587  10.406 -0.1047  0.4062  0.1462
11405TIP3    H255707   2.673   6.461  10.446 -0.5606  0.3803  0.9312
11406TIP3   OH255708   6.328   6.786  11.105 -0.0103  0.4856  0.1457
11406TIP3    H155709   6.324   6.880  11.126  1.1971  0.4047  0.7955
11406TIP3    H255710   6.420   6.770  11.085 -0.7394  0.1648 -3.5781
11407TIP3   OH255711   3.126   2.982   5.501 -0.1140  0.3382 -0.0034
11407TIP3    H155712   3.133   2.939   5.416  1.3256 -0.2099  0.3681
11407TIP3    H255713   3.190   2.937   5.556 -0.4029  1.2665  1.1253
11408TIP3   OH255714   5.610   2.454   0.127  0.5758  0.6693  0.5479
11408TIP3    H155715   5.671   2.481   0.196  0.5891 -1.6127  1.5135
11408TIP3    H255716   5.661   2.392   0.074 -0.3737  0.0070  0.3811
11409TIP3   OH255717   2.914   0.459   0.182  0.0684  0.1415  0.6880
11409TIP3    H155718   2.908   0.554   0.189  1.5119  0.1892  1.6749
11409TIP3    H255719   2.889   0.427   0.269  0.8541 -0.2913  0.7624
11410TIP3   OH255720   0.025   1.256  12.048 -0.2284 -0.8602  0.5052
11410TIP3    H155721  -0.019   1.195  11.989  1.5183 -0.7564 -1.0036
11410TIP3    H255722   0.057   1.202  12.120  1.4704 -1.8352 -0.9079
11411TIP3   OH255723   2.585   0.753  12.180 -0.5020  0.0129  0.2421
11411TIP3    H155724   2.614   0.711  12.262 -0.9785 -1.6880 -0.4161
11411TIP3    H255725   2.547   0.836  12.209  1.5476  0.5992  1.4883
11412TIP3   OH255726   4.729   5.188  11.349  0.2888 -0.8760  0.0746
11412TIP3    H155727   4.784   5.168  11.425  2.1022  1.1274 -0.6255
11412TIP3    H255728   4.791   5.208  11.279 -1.2402  2.4365 -0.5201
11413TIP3   OH255729   0.119   5.299   3.869  0.1863 -0.2344  0.1487
11413TIP3    H155730   0.183   5.366   3.893  0.4028 -0.6915  0.8974
11413TIP3    H255731   0.036   5.332   3.903 -0.1154  0.6627 -1.3842
11414TIP3   OH255732   5.109   6.413  11.593 -0.1133 -0.2134  0.0320
11414TIP3    H155733   5.109   6.381  11.503  0.2507  1.8721 -0.7704
11414TIP3    H255734   5.199   6.405  11.622 -0.1769 -0.6264  0.1202
11415TIP3   OH255735   0.148   2.997   5.475 -0.3423 -0.1554  0.3827
11415TIP3    H155736   0.173   3.041   5.394  0.0100 -4.0134 -1.8630
11415TIP3    H255737   0.097   2.921   5.447  0.1687 -1.9570  3.7288
11416TIP3   OH255738   4.989   3.921  15.286 -0.0507 -0.5046  0.1770
11416TIP3    H155739   4.981   4.003  15.237  1.4735  0.2289  1.0917
11416TIP3    H255740   5.012   3.856  15.219 -1.5772 -0.2848 -0.5995
11417TIP3   OH255741   0.837   1.120  15.661  0.2087 -0.0432 -0.7704
11417TIP3    H155742   0.799   1.151  15.579  0.1712 -2.0654 -1.5939
11417TIP3    H255743   0.868   1.031  15.641  0.7569 -0.3724  1.2487
11418TIP3   OH255744   5.580   6.782  10.227 -0.5763 -0.0395 -0.0085
11418TIP3    H155745   5.524   6.751  10.155  1.1324  1.9746 -2.3820
11418TIP3    H255746   5.668   6.754  10.202  0.1437  1.2990  0.9558
11419TIP3   OH255747   5.009   0.829  15.733  0.0997 -0.1075 -0.2340
11419TIP3    H155748   5.081   0.791  15.683  1.0660  0.2760  0.8264
11419TIP3    H255749   5.051   0.866  15.811 -1.2540  0.0349  0.4534
11420TIP3   OH255750   6.311   3.166   3.412 -0.6422  0.1664  0.0195
11420TIP3    H155751   6.400   3.182   3.379 -0.8716 -0.6862 -1.0547
11420TIP3    H255752   6.263   3.132   3.336 -0.9574 -2.7301  1.3896
11421TIP3   OH255753   1.944   1.208   3.470 -0.4233 -0.0266 -0.2923
11421TIP3    H155754   1.869   1.171   3.423 -0.7466 -0.1956  0.3410
11421TIP3    H255755   1.920   1.200   3.563 -0.2605  1.2734 -0.1206
11422TIP3   OH255756   1.456   1.924  13.643  0.0362 -0.0948  0.1510
11422TIP3    H155757   1.415   1.838  13.652  0.4561 -0.5195 -1.6218
11422TIP3    H255758   1.382   1.985  13.635 -0.3000 -0.0523  2.6185
11423TIP3   OH255759   6.158   1.369   5.305 -0.0370 -0.4003  0.1267
11423TIP3    H155760   6.130   1.457   5.328  1.3974  0.9035 -2.6771
11423TIP3    H255761   6.172   1.325   5.389 -1.3603  1.8059  1.5867
11424TIP3   OH255762   4.797   3.513   4.840 -0.1992  0.5129 -0.0420
11424TIP3    H155763   4.746   3.449   4.890  0.2365  0.4158  0.2927
11424TIP3    H255764   4.752   3.521   4.756 -0.8441  0.5493  0.3089
11425TIP3   OH255765   2.706   3.116  13.742  0.0144 -0.6415  0.3104
11425TIP3    H155766   2.743   3.181  13.682 -0.0361 -1.5961 -0.7906
11425TIP3    H255767   2.658   3.168  13.807  0.0232  0.4281 -0.5041
11426TIP3   OH255768   0.502   6.650   0.049 -0.2813 -0.2049  0.0715
11426TIP3    H155769   0.451   6.684  -0.025  0.5838  0.9342 -0.0271
11426TIP3    H255770   0.436   6.621   0.112 -1.0584  0.9575 -0.1727
11427TIP3   OH255771   0.645   4.136   2.251 -0.4464 -0.3742 -0.0139
11427TIP3    H155772   0.661   4.081   2.327 -1.0201 -0.5522 -0.0153
11427TIP3    H255773   0.635   4.224   2.287  0.8311 -0.1941 -0.0473
11428TIP3   OH255774   1.405   3.734   6.154 -0.0200 -0.4036 -0.1547
11428TIP3    H155775   1.341   3.663   6.158  0.4098 -0.7567  0.8483
11428TIP3    H255776   1.472   3.703   6.093 -0.4619 -0.3125 -0.6950
11429TIP3   OH255777   0.229   2.639   4.951  0.2059 -0.7066 -0.3297
11429TIP3    H155778   0.207   2.621   5.043  0.6588  0.5345  0.0371
11429TIP3    H255779   0.316   2.600   4.940  0.2213 -0.7177 -0.1793
11430TIP3   OH255780   6.196   1.743   0.046  0.0960  0.2027  0.4167
11430TIP3    H155781   6.197   1.804  -0.028 -0.3677  1.3047  1.2895
11430TIP3    H255782   6.243   1.789   0.116  3.0828 -1.9356  0.0370
11431TIP3   OH255783   3.390   5.869  12.858  0.0738  0.3231  0.2241
11431TIP3    H155784   3.368   5.779  12.881 -0.6385  0.4015 -0.1366
11431TIP3    H255785   3.364   5.920  12.935  1.6675  0.0865  0.9597
11432TIP3   OH255786   5.041   0.052   5.346 -0.5391  0.2714  0.1023
11432TIP3    H155787   5.051  -0.033   5.303  0.3787  0.7603 -0.6729
11432TIP3    H255788   5.122   0.099   5.327 -0.3679  0.7430  1.8673
11433TIP3   OH255789   6.289   1.911   5.584  0.2778 -0.0059 -0.3907
11433TIP3    H155790   6.336   1.987   5.619  0.8030 -0.3837 -0.2646
11433TIP3    H255791   6.250   1.943   5.502 -0.6304  0.7730  0.3267
11434TIP3   OH255792   5.142   3.469  15.875 -0.3832 -0.0983 -0.4180
11434TIP3    H155793   5.059   3.453  15.921 -1.1946 -0.5843 -1.9733
11434TIP3    H255794   5.115   3.507  15.792  1.1515  3.4683  0.5218
11435TIP3   OH255795   0.272   2.046  16.945  0.6103  0.0867 -0.2845
11435TIP3    H155796   0.265   2.009  16.856 -1.9807  0.4017 -0.3113
11435TIP3    H255797   0.299   1.972  16.999  0.6673 -0.5243 -1.1116
11436TIP3   OH255798   5.376   1.819   0.288 -0.4048 -0.1509  0.7034
11436TIP3    H155799   5.384   1.858   0.201  0.5677 -1.2995  0.2466
11436TIP3    H255800   5.283   1.802   0.298 -0.4114 -1.0453 -0.6048
11437TIP3   OH255801   4.065   4.863  17.179  0.1353 -0.1255 -0.3173
11437TIP3    H155802   4.057   4.819  17.264  1.6172  1.5377  0.7585
11437TIP3    H255803   3.978   4.899  17.163 -0.0455 -0.0516  0.7355
11438TIP3   OH255804   4.482   0.829  16.428  0.1305 -0.0278  0.2514
11438TIP3    H155805   4.513   0.852  16.516  0.7440  0.7190 -0.1537
11438TIP3    H255806   4.422   0.755  16.443  0.7438 -0.3488  1.2247
11439TIP3   OH255807   5.409   2.892   5.518 -0.2438  0.4969  0.7783
11439TIP3    H155808   5.340   2.948   5.484 -0.6453 -0.9547 -0.9422
11439TIP3    H255809   5.477   2.894   5.451  0.3475  0.0271  1.3490
11440TIP3   OH255810   1.226   5.774   5.599 -0.2530 -0.4759  0.3487
11440TIP3    H155811   1.176   5.838   5.549 -1.5039 -2.6691 -1.3516
11440TIP3    H255812   1.306   5.761   5.548 -0.3788 -0.8534  0.2436
11441TIP3   OH255813   6.379   0.125   4.167  0.5577  0.5269 -0.0112
11441TIP3    H155814   6.306   0.144   4.108  1.2301  0.3932 -0.9182
11441TIP3    H255815   6.356   0.168   4.249 -0.9732 -0.2825  0.0226
11442TIP3   OH255816   6.066   4.441  14.685  0.3982 -0.1987  0.0193
11442TIP3    H155817   6.030   4.521  14.646 -0.5093 -2.4351 -4.3602
11442TIP3    H255818   6.152   4.431  14.645 -0.3214 -2.3470 -1.1637
11443TIP3   OH255819   6.227   0.097  14.317 -0.2251  0.6406 -0.2476
11443TIP3    H155820   6.151   0.044  14.344  0.0375  0.3052 -0.1558
11443TIP3    H255821   6.223   0.097  14.222  0.7868 -1.0805 -0.3355
11444TIP3   OH255822   3.712   2.347  11.346 -0.5433 -0.1395 -0.6348
11444TIP3    H155823   3.785   2.406  11.328 -1.8101  1.2816 -1.3056
11444TIP3    H255824   3.697   2.300  11.264 -1.7904  1.2156 -1.2243
11445TIP3   OH255825   3.534   5.409   0.505  0.5035  0.1231  0.7585
11445TIP3    H155826   3.567   5.400   0.595 -0.3459  0.0649  1.0699
11445TIP3    H255827   3.529   5.319   0.473 -0.0420  0.0787  0.9651
11446TIP3   OH255828   5.011   0.009   3.656 -0.2967  0.1029  0.0134
11446TIP3    H155829   4.932   0.020   3.709  0.1039 -3.5248  1.6520
11446TIP3    H255830   4.979   0.003   3.566 -1.6799  0.4594  0.4573
11447TIP3   OH255831   3.037   6.443  13.216  0.5100  0.0450 -0.5806
11447TIP3    H155832   2.957   6.446  13.268  0.7774 -0.5729 -0.1173
11447TIP3    H255833   3.105   6.478  13.275  0.3348  2.0939 -1.4982
11448TIP3   OH255834   0.820   6.109  16.562  0.3322  0.3173 -0.1907
11448TIP3    H155835   0.895   6.051  16.573  0.1103  0.1622  0.5963
11448TIP3    H255836   0.767   6.067  16.494  0.9206  0.3950 -0.7006
11449TIP3   OH255837   6.501   3.579  11.169 -0.2313 -0.1622  0.3825
11449TIP3    H155838   6.413   3.585  11.207  0.2607  0.1504  1.4979
11449TIP3    H255839   6.530   3.670  11.162  0.2319 -0.2956  0.5597
11450TIP3   OH255840   4.044   4.991  11.770 -0.4791 -0.1532 -0.4854
11450TIP3    H155841   4.048   4.897  11.749 -0.0941  0.0892 -1.5773
11450TIP3    H255842   4.131   5.011  11.805 -0.6924 -0.2800  0.1306
11451TIP3   OH255843   0.041   4.219   3.444 -0.1349  0.2286 -0.3530
11451TIP3    H155844   0.109   4.278   3.475 -0.5630  0.2631  0.5423
11451TIP3    H255845  -0.039   4.249   3.488 -0.4138 -0.8321 -0.1058
11452TIP3   OH255846   3.593   5.471  10.615  0.0664 -0.0486 -0.0279
11452TIP3    H155847   3.665   5.431  10.566  0.0806 -1.3086  0.9453
11452TIP3    H255848   3.526   5.403  10.619 -0.8916  0.8511 -0.2861
11453TIP3   OH255849   6.475   4.275   2.063  0.3136 -0.1490 -0.1947
11453TIP3    H155850   6.485   4.333   2.139  0.9516 -0.6731  0.1399
11453TIP3    H255851   6.390   4.233   2.076  0.5734 -0.5062  0.4338
11454TIP3   OH255852   1.355   0.025  15.245  0.7546  0.2311 -0.3203
11454TIP3    H155853   1.356  -0.045  15.180  2.4485  1.0688 -1.2608
11454TIP3    H255854   1.341  -0.020  15.329  0.3523 -1.0565 -1.0545
11455TIP3   OH255855   3.349   3.018  12.847  0.2700 -0.3081  0.2400
11455TIP3    H155856   3.263   3.005  12.887  0.3569 -1.3313  0.1363
11455TIP3    H255857   3.373   3.108  12.868  0.2484 -0.7595  2.3464
11456TIP3   OH255858   3.350   3.436  12.714  0.6153  0.2002 -0.7412
11456TIP3    H155859   3.306   3.518  12.735 -0.3979  0.4514 -3.3841
11456TIP3    H255860   3.367   3.395  12.798  1.0207  3.0140  0.6809
11457TIP3   OH255861   2.784   1.278  12.853 -0.4515  0.4800  0.4277
11457TIP3    H155862   2.790   1.351  12.792 -1.1011  1.2836  1.2874
11457TIP3    H255863   2.726   1.310  12.923  0.4902 -0.2939  1.6075
11458TIP3   OH255864   1.678   0.156  12.587  0.1173 -0.3423  0.1474
11458TIP3    H155865   1.647   0.217  12.519  1.5046 -1.2033 -1.3372
11458TIP3    H255866   1.736   0.209  12.641  1.5794 -0.3480 -1.3332
11459TIP3   OH255867   6.157   2.118   3.623  0.3581  0.1998  0.0936
11459TIP3    H155868   6.075   2.159   3.649  0.5770  0.9201 -0.3493
11459TIP3    H255869   6.131   2.044   3.568 -0.0501 -0.4709  1.1577
11460TIP3   OH255870   2.978   5.276   0.091 -0.2442  0.6331  0.1912
11460TIP3    H155871   2.945   5.212   0.154 -0.4062  0.9462  0.4252
11460TIP3    H255872   2.913   5.277   0.021  2.0463 -3.0961 -2.3517
11461TIP3   OH255873   4.403   3.750   4.105  0.2072  0.6197 -0.1906
11461TIP3    H155874   4.462   3.678   4.079 -0.3823 -0.2606  0.8023
11461TIP3    H255875   4.363   3.778   4.023  1.0206  0.3405 -0.7079
11462TIP3   OH255876   4.795   0.273   5.679 -0.0968 -0.2939 -0.2004
11462TIP3    H155877   4.780   0.246   5.588  1.7389 -2.2078  0.0091
11462TIP3    H255878   4.869   0.333   5.675 -0.4409  0.1567 -0.0071
11463TIP3   OH255879   1.859   6.700  15.234  0.5687  0.6919 -0.2339
11463TIP3    H155880   1.944   6.737  15.210  0.2393  1.3414 -0.4377
11463TIP3    H255881   1.832   6.751  15.311  0.2707  0.6357 -0.3000
11464TIP3   OH255882   2.083   0.196   2.807 -0.0777 -0.3660  0.2829
11464TIP3    H155883   2.139   0.270   2.832  1.5087 -0.2701 -2.9708
11464TIP3    H255884   2.115   0.123   2.859  0.6987  0.4867  1.0422
11465TIP3   OH255885   6.263   6.462   0.297  0.0248  0.6196 -0.4846
11465TIP3    H155886   6.226   6.454   0.209  1.1700  0.4724 -0.9575
11465TIP3    H255887   6.281   6.555   0.307 -0.7798  0.7448 -0.1163
11466TIP3   OH255888   6.495   3.218   6.198 -0.0645 -0.3979 -0.0710
11466TIP3    H155889   6.432   3.283   6.228 -0.0942 -0.6907  0.5020
11466TIP3    H255890   6.545   3.195   6.276 -0.2745 -1.3100 -0.2008
11467TIP3   OH255891   5.164   6.095  14.778  0.7301  0.1573  0.2626
11467TIP3    H155892   5.080   6.095  14.824  0.8734 -0.5368  0.5493
11467TIP3    H255893   5.159   6.019  14.720  0.7378  0.7568 -0.5266
11468TIP3   OH255894   2.360   3.672  14.175  0.5221 -0.4280  0.2382
11468TIP3    H155895   2.276   3.657  14.132  0.6969 -0.5077 -0.0785
11468TIP3    H255896   2.347   3.641  14.265  0.3263 -0.7877  0.0869
11469TIP3   OH255897   4.125   4.749   2.068 -0.3304 -0.0764 -0.2257
11469TIP3    H155898   4.103   4.836   2.101 -0.8234 -0.7730  1.4142
11469TIP3    H255899   4.179   4.710   2.137  0.8920 -0.6494 -1.4672
11470TIP3   OH255900   1.171   0.304  14.328 -0.2699 -0.5688  0.5541
11470TIP3    H155901   1.101   0.241  14.313  0.2830 -1.1571  0.3822
11470TIP3    H255902   1.130   0.390  14.315 -0.7464 -0.9294 -0.4327
11471TIP3   OH255903   4.048   5.846   4.543 -0.0220 -0.1232 -0.0700
11471TIP3    H155904   3.987   5.915   4.570 -0.7202 -0.7177 -0.0990
11471TIP3    H255905   4.075   5.871   4.454  2.2881  1.8477  1.0561
11472TIP3   OH255906   2.043   0.104  13.006  0.1529  0.1527 -0.0761
11472TIP3    H155907   2.031   0.018  13.046 -1.0252 -0.4546 -1.6314
11472TIP3    H255908   2.125   0.098  12.958  0.2830  0.0520  0.1568
11473TIP3   OH255909   5.252   5.241  14.333 -0.0664  0.4546 -0.7427
11473TIP3    H155910   5.305   5.254  14.254  3.0162 -0.5748  1.0105
11473TIP3    H255911   5.195   5.318  14.335  1.0001  1.4137 -3.0082
11474TIP3   OH255912   4.244   5.662  15.421  0.4312 -0.1348  0.2879
11474TIP3    H155913   4.303   5.729  15.456  0.9426  0.6648 -1.9138
11474TIP3    H255914   4.193   5.708  15.353 -1.2116 -1.3286  0.6505
11475TIP3   OH255915   6.057   0.715   1.927  0.5357 -0.2357  0.2093
11475TIP3    H155916   6.005   0.785   1.967  1.3105  1.2445 -1.2786
11475TIP3    H255917   6.052   0.731   1.833  2.4149 -0.9306 -0.0612
11476TIP3   OH255918   2.026   1.487  12.973  0.6359  0.1695 -0.0055
11476TIP3    H155919   2.010   1.496  12.879  1.1677  0.2556 -0.0898
11476TIP3    H255920   1.987   1.402  12.995 -3.8888  2.1164  0.6846
11477TIP3   OH255921   4.632   1.136  12.465  0.7303 -0.1436  0.2360
11477TIP3    H155922   4.712   1.171  12.504  0.0377 -0.2873  1.8381
11477TIP3    H255923   4.644   1.041  12.465  0.8241 -0.1351 -0.1458
11478TIP3   OH255924   4.217   3.067   1.593 -0.0223 -0.3128 -0.0467
11478TIP3    H155925   4.216   3.049   1.499 -0.7204 -1.2359  0.1207
11478TIP3    H255926   4.134   3.111   1.610 -0.1398 -0.6296  0.2191
11479TIP3   OH255927   0.964   3.941   4.333  0.2719  0.2940  0.1191
11479TIP3    H155928   0.900   3.993   4.284  0.7668  1.0295  0.2338
11479TIP3    H255929   1.048   3.962   4.291  0.4317 -0.7348 -0.0928
11480TIP3   OH255930   1.887   5.782  16.502 -0.4691  0.2759 -0.4290
11480TIP3    H155931   1.980   5.772  16.483 -0.1793 -1.1677  1.4713
11480TIP3    H255932   1.863   5.865  16.461  2.2532  2.0091  1.2181
11481TIP3   OH255933   5.678   6.264  15.067  0.0337  0.2424  0.5887
11481TIP3    H155934   5.612   6.198  15.088  0.5698 -0.6898 -0.5893
11481TIP3    H255935   5.759   6.230  15.104  0.0793  0.8632  1.0814
11482TIP3   OH255936   0.086   5.509   5.981 -0.3405  0.9302  0.6777
11482TIP3    H155937   0.070   5.578   6.046 -2.0687  1.5534 -0.3377
11482TIP3    H255938   0.064   5.549   5.897 -0.2730 -0.5184 -0.0623
11483TIP3   OH255939   2.567   4.394  12.585 -0.3638  0.1997  0.3228
11483TIP3    H155940   2.614   4.470  12.619 -0.7252  0.8701 -0.6446
11483TIP3    H255941   2.622   4.361  12.514  0.4248 -1.2386  1.5303
11484TIP3   OH255942   2.120   5.629  10.450  0.4296  0.0046  0.3456
11484TIP3    H155943   2.143   5.699  10.512 -1.6997  1.1622 -0.0713
11484TIP3    H255944   2.146   5.663  10.365 -1.8531  0.9910 -0.0339
11485TIP3   OH255945   3.458   1.684   0.587  0.2189  0.8646 -0.6572
11485TIP3    H155946   3.539   1.663   0.541  0.0535 -0.3338 -0.4306
11485TIP3    H255947   3.440   1.775   0.564  1.2509  0.9245 -1.2709
11486TIP3   OH255948   3.478   6.597  12.144  0.0580 -0.3192  0.1138
11486TIP3    H155949   3.452   6.524  12.088 -3.7252 -1.2012  2.6526
11486TIP3    H255950   3.520   6.556  12.219 -1.5152  0.1135  1.2661
11487TIP3   OH255951   1.635   0.286   4.428 -0.2605 -0.3660  0.5623
11487TIP3    H155952   1.589   0.362   4.461  1.1943  0.3689  0.9794
11487TIP3    H255953   1.724   0.293   4.464  0.3105 -1.5100 -0.5141
11488TIP3   OH255954   3.422   0.118   4.339 -0.2147 -0.2324  0.2903
11488TIP3    H155955   3.405   0.074   4.422 -0.4562  0.2066  0.4764
11488TIP3    H255956   3.362   0.193   4.339 -0.2719 -0.2721 -0.3124
11489TIP3   OH255957   3.659   1.261   0.355  0.3727 -0.4281  0.5356
11489TIP3    H155958   3.575   1.276   0.312 -0.3168 -2.9806  0.8270
11489TIP3    H255959   3.654   1.314   0.435 -1.1914 -0.9123  0.7975
11490TIP3   OH255960   1.084   1.927  16.720 -0.2205  0.5939 -0.1644
11490TIP3    H155961   1.073   1.995  16.654 -0.4709 -0.6481 -1.4431
11490TIP3    H255962   1.084   1.845  16.671  3.0455 -0.2432  0.9895
11491TIP3   OH255963   1.500   5.241   1.952  0.3363 -0.2956  0.5700
11491TIP3    H155964   1.555   5.308   1.993  1.2211 -0.5559 -0.1776
11491TIP3    H255965   1.410   5.267   1.976  0.5906  1.5780 -0.2612
11492TIP3   OH255966   5.711   1.424  14.985 -0.6290 -0.2596 -0.4485
11492TIP3    H155967   5.621   1.456  14.996 -1.7012 -1.7561 -3.7463
11492TIP3    H255968   5.736   1.453  14.897  1.4005 -1.5351 -0.3470
11493TIP3   OH255969   1.304   6.194   0.241  0.2801  0.1453 -0.1836
11493TIP3    H155970   1.322   6.237   0.325  0.2606  0.7541 -0.4918
11493TIP3    H255971   1.209   6.186   0.237  0.3349 -2.5893  1.1996
11494TIP3   OH255972   6.314   0.690   3.851  0.0514  0.7618 -0.2088
11494TIP3    H155973   6.362   0.633   3.912 -0.5945  0.4931  0.0587
11494TIP3    H255974   6.245   0.728   3.905 -2.2417 -1.5321 -1.3088
11495TIP3   OH255975   6.420   4.953  17.056  0.4179 -0.0000  0.3301
11495TIP3    H155976   6.461   4.894  16.993  1.2148  1.6190 -0.7351
11495TIP3    H255977   6.429   4.908  17.140 -1.4170 -2.6063 -0.7345
11496TIP3   OH255978   4.690   5.863  13.847 -0.2979  0.2081  0.4043
11496TIP3    H155979   4.755   5.928  13.822  0.5512 -1.4886 -2.2157
11496TIP3    H255980   4.725   5.824  13.927 -0.6115  2.5446  1.7763
11497TIP3   OH255981   6.692   4.877  15.654  0.2112  0.1565  0.1642
11497TIP3    H155982   6.759   4.907  15.593 -1.3866  0.8370 -1.3260
11497TIP3    H255983   6.667   4.790  15.622 -1.3589  0.9368 -0.8264
11498TIP3   OH255984   5.775   3.810   3.641  0.0513  0.2418 -0.0618
11498TIP3    H155985   5.851   3.790   3.586  0.5746  1.6288  0.1325
11498TIP3    H255986   5.710   3.846   3.581  0.0553  0.3256 -0.0163
11499TIP3   OH255987   5.776   1.308   4.812 -0.1706  0.3479  0.3393
11499TIP3    H155988   5.770   1.307   4.717  0.1271 -0.1239  0.3231
11499TIP3    H255989   5.699   1.258   4.841 -1.0248  1.6322  0.4010
11500TIP3   OH255990   3.082   6.787   2.045 -0.6976  0.0812 -0.0566
11500TIP3    H155991   3.153   6.776   2.107 -0.3337  0.6069 -0.3746
11500TIP3    H255992   3.117   6.755   1.962 -1.3927 -1.2269  0.1148
11501TIP3   OH255993   5.973   5.777   3.940 -0.4487 -0.9684 -0.2970
11501TIP3    H155994   5.902   5.838   3.961  0.1305 -0.6545  0.8448
11501TIP3    H255995   5.965   5.763   3.846 -1.2184  0.0866 -0.4170
11502TIP3   OH255996   1.095   2.820  16.094  0.1907  0.0137  0.5828
11502TIP3    H155997   1.083   2.902  16.141  0.7578 -0.5909  1.8227
11502TIP3    H255998   1.189   2.815  16.078  0.0574 -0.0114 -0.2223
11503TIP3   OH255999   4.533   2.377   1.299 -0.3191  0.0469  0.0095
11503TIP3    H156000   4.520   2.439   1.371  1.3023  1.0607 -0.5092
11503TIP3    H256001   4.628   2.368   1.293 -0.4982 -1.9962 -0.3886
11504TIP3   OH256002   4.701   4.941   1.284  0.5642  0.1343  0.1239
11504TIP3    H156003   4.688   4.984   1.369 -2.6760  0.3306 -0.3528
11504TIP3    H256004   4.749   5.006   1.232  1.3136  0.5925  1.3512
11505TIP3   OH256005   3.151   2.707   6.433  0.7246 -0.0585  0.2342
11505TIP3    H156006   3.106   2.658   6.502  1.6320 -1.3709 -0.0676
11505TIP3    H256007   3.120   2.668   6.351 -0.4921  1.6160 -0.1479
11506TIP3   OH256008   4.034   4.870  13.967 -0.8132 -0.4084 -0.2563
11506TIP3    H156009   4.126   4.851  13.946 -0.7203 -0.3621  0.0954
11506TIP3    H256010   4.019   4.958  13.931 -0.3310  0.1369  0.8120
11507TIP3   OH256011   3.696   2.153   3.006 -0.1890 -0.0686  0.2842
11507TIP3    H156012   3.723   2.167   3.097  0.3929  0.5252  0.0244
11507TIP3    H256013   3.772   2.178   2.954  0.0736 -1.9673 -0.3173
11508TIP3   OH256014   0.268   6.778   2.411  0.5514 -0.3824  0.4632
11508TIP3    H156015   0.333   6.709   2.401 -0.8494 -1.6414 -0.3053
11508TIP3    H256016   0.194   6.736   2.454 -0.4292  0.5696 -0.2262
11509TIP3   OH256017   3.560   1.670   2.282 -0.2804 -0.5935 -0.1805
11509TIP3    H156018   3.539   1.726   2.207  0.5675  0.7508  0.5319
11509TIP3    H256019   3.637   1.711   2.321 -0.0507 -1.8915  0.7942
11510TIP3   OH256020   2.131   4.596   1.688 -0.4123  0.2603  0.0549
11510TIP3    H156021   2.140   4.612   1.594 -0.3567  2.3096  0.3608
11510TIP3    H256022   2.215   4.559   1.714  0.4315  1.8142 -0.3357
11511TIP3   OH256023   0.576   0.823   1.017  0.0709 -0.3356  0.6019
11511TIP3    H156024   0.642   0.823   0.948 -1.6689 -0.0020 -1.1705
11511TIP3    H256025   0.608   0.886   1.081 -0.0059  2.4033 -1.8087
11512TIP3   OH256026   0.519   5.934   1.549  0.0656  0.0306 -0.2182
11512TIP3    H156027   0.460   5.958   1.621  0.7022 -1.1439  0.7384
11512TIP3    H256028   0.601   5.910   1.593  0.5638 -0.4349 -1.3652
11513TIP3   OH256029   5.438   5.034  16.878  0.0630  0.1373  0.1325
11513TIP3    H156030   5.354   4.997  16.850 -0.4327  0.5721  0.9947
11513TIP3    H256031   5.481   5.061  16.797 -0.0312 -1.3126 -0.4306
11514TIP3   OH256032   1.033   1.923   1.799  0.2286  0.1386  0.7001
11514TIP3    H156033   1.060   1.996   1.742 -2.3129  0.4016 -0.3211
11514TIP3    H256034   0.947   1.898   1.766  1.1468 -3.6836  0.7289
11515TIP3   OH256035   0.413   1.061  11.468 -0.6956  0.1859  0.0695
11515TIP3    H156036   0.394   1.077  11.376 -0.8406  2.5894  0.4492
11515TIP3    H256037   0.386   0.971  11.483 -1.1870 -0.0790 -2.0893
11516TIP3   OH256038   4.755   0.756   4.421 -0.5984  0.3928  0.3706
11516TIP3    H156039   4.762   0.851   4.426  2.5186  0.2460  1.1580
11516TIP3    H256040   4.831   0.729   4.370 -0.3271 -1.7596  1.7925
11517TIP3   OH256041   4.750   3.002  15.400  0.6249 -0.2159 -0.1171
11517TIP3    H156042   4.658   3.025  15.414  0.4836 -0.5676 -0.4421
11517TIP3    H256043   4.760   2.999  15.305  1.3608  1.3187 -0.1129
11518TIP3   OH256044   2.075   3.978   4.575 -0.0484  0.3829 -0.4247
11518TIP3    H156045   2.093   3.897   4.622  0.9550 -0.1452 -1.6292
11518TIP3    H256046   2.028   3.951   4.496  1.1605  0.8026 -1.3395
11519TIP3   OH256047   6.187   1.778   4.184 -0.0061  0.2633 -0.3985
11519TIP3    H156048   6.193   1.871   4.208 -2.8497  0.8908 -1.6446
11519TIP3    H256049   6.201   1.777   4.090 -2.6339 -0.0943 -0.8648
11520TIP3   OH256050   4.619   4.874  15.666  0.2240  0.3370  0.3958
11520TIP3    H156051   4.643   4.883  15.758 -1.8572  1.5927  0.8933
11520TIP3    H256052   4.568   4.953  15.647 -0.5794 -0.5564 -1.4365
11521TIP3   OH256053   3.232   0.683  16.625  0.4208  1.0890 -0.2331
11521TIP3    H156054   3.223   0.602  16.574  0.0405  0.3626  0.9616
11521TIP3    H256055   3.261   0.748  16.561  0.6854  0.0261 -1.2253
11522TIP3   OH256056   6.142   4.552   6.330 -0.3125 -0.0988 -0.1720
11522TIP3    H156057   6.130   4.502   6.411 -0.0291 -2.1932 -1.3477
11522TIP3    H256058   6.237   4.557   6.319 -0.3241 -1.9247 -1.5295
11523TIP3   OH256059   5.911   4.035   1.293 -0.0216  0.1805 -0.1303
11523TIP3    H156060   5.986   4.019   1.236  0.1299 -2.5243  0.6651
11523TIP3    H256061   5.948   4.036   1.381 -0.9371 -1.9982  0.3381
11524TIP3   OH256062   0.626   2.322  13.636  0.6442 -0.4376  0.2006
11524TIP3    H156063   0.645   2.248  13.578 -1.6521 -1.2746  0.4198
11524TIP3    H256064   0.590   2.282  13.715 -0.5012  0.9026  0.3910
11525TIP3   OH256065   4.985   1.534   4.242  0.1134  0.5975 -0.7257
11525TIP3    H156066   4.895   1.549   4.211 -0.4913  0.5301  0.8906
11525TIP3    H256067   5.037   1.598   4.193 -0.8140  0.6563 -1.6816
11526TIP3   OH256068   1.066   2.363  17.252  0.3523  0.0797  0.1527
11526TIP3    H156069   1.029   2.323  17.330 -0.1920 -1.3171 -0.7724
11526TIP3    H256070   1.070   2.292  17.188 -1.1780  1.5757 -1.7652
11527TIP3   OH256071   4.944   1.368  15.623  0.4671 -0.4613  0.1846
11527TIP3    H156072   4.924   1.313  15.547 -0.6742 -1.1238  0.9385
11527TIP3    H256073   4.885   1.443  15.614  0.5059 -0.4163  0.3057
11528TIP3   OH256074   1.729   0.070   2.334 -0.2157 -0.3663  0.5616
11528TIP3    H156075   1.680   0.152   2.341 -1.2347 -0.9323  0.2591
11528TIP3    H256076   1.676   0.015   2.276  1.3451 -0.6136 -0.7049
11529TIP3   OH256077   5.947   5.935  11.297 -0.2114  0.2278  0.2437
11529TIP3    H156078   6.037   5.902  11.299 -0.2336  0.0685 -1.0199
11529TIP3    H256079   5.893   5.860  11.323 -0.1164 -0.2441 -0.8750
11530TIP3   OH256080   4.440   6.467  15.691 -0.3865  0.3702 -0.5898
11530TIP3    H156081   4.440   6.557  15.658 -0.7787  0.7678  0.4634
11530TIP3    H256082   4.524   6.431  15.662  0.0836  1.3022 -0.4079
11531TIP3   OH256083   1.597   3.462   3.726  0.6662 -0.3234 -0.4867
11531TIP3    H156084   1.535   3.393   3.752  0.5682 -0.0689 -0.0446
11531TIP3    H256085   1.578   3.477   3.633  0.6765 -0.8801 -0.5828
11532TIP3   OH256086   5.503   2.042   2.531 -0.3285  0.5050  0.2534
11532TIP3    H156087   5.495   2.137   2.521 -0.3505  0.2587 -2.9128
11532TIP3    H256088   5.417   2.008   2.508 -0.8444 -0.3126  2.9926
11533TIP3   OH256089   2.578   2.097   3.639 -0.3195 -0.7582 -0.7699
11533TIP3    H156090   2.620   2.143   3.566 -1.6024 -1.6660 -2.1488
11533TIP3    H256091   2.621   2.011   3.641  0.1410 -0.5217 -0.0223
11534TIP3   OH256092   1.407   4.571   0.826 -0.2544  0.6371  0.2847
11534TIP3    H156093   1.422   4.626   0.903  0.0977 -0.1243  0.7658
11534TIP3    H256094   1.419   4.631   0.752  3.3903  0.5645  0.6469
11535TIP3   OH256095   2.106   3.051   0.849 -0.5765 -0.0565 -0.2626
11535TIP3    H156096   2.146   2.976   0.892 -1.2221 -0.0321  0.3966
11535TIP3    H256097   2.014   3.047   0.874 -0.6815  0.7687 -0.4880
11536TIP3   OH256098   4.855   4.869  12.513  0.2521 -0.2892  0.6781
11536TIP3    H156099   4.768   4.899  12.541 -0.2355 -1.1040  0.0853
11536TIP3    H256100   4.852   4.873  12.418  1.2613  0.7259  0.6798
11537TIP3   OH256101   5.336   4.259   3.630 -0.2443  0.4436 -0.0559
11537TIP3    H156102   5.343   4.169   3.598  0.0408  0.8997 -1.3331
11537TIP3    H256103   5.339   4.250   3.725  0.3149 -0.8562 -0.1616
11538TIP3   OH256104   5.183   5.750  13.725  0.2359  0.4014 -1.0669
11538TIP3    H156105   5.150   5.838  13.744 -0.4021  0.7994 -3.6818
11538TIP3    H256106   5.270   5.765  13.688  0.5784 -0.1550 -0.4942
11539TIP3   OH256107   5.444   2.123   2.920  0.2377 -0.1090 -0.1924
11539TIP3    H156108   5.375   2.074   2.875  0.7747 -1.8279  0.7320
11539TIP3    H256109   5.405   2.209   2.938 -1.9092 -1.2080  0.8288
11540TIP3   OH256110   3.404   0.145   1.084  0.1654  0.1985 -0.7701
11540TIP3    H156111   3.394   0.055   1.052 -0.5515 -0.2234  0.5576
11540TIP3    H256112   3.362   0.199   1.017  1.8173 -0.2812 -2.2820
11541TIP3   OH256113   2.823   5.661  12.719  0.3371 -0.1317  0.4286
11541TIP3    H156114   2.836   5.750  12.688  0.5818  0.2794  1.6410
11541TIP3    H256115   2.869   5.606  12.655  1.3580  0.7261  0.3949
11542TIP3   OH256116   3.383   6.536   4.328  0.1800  0.2503  0.2005
11542TIP3    H156117   3.333   6.476   4.272 -1.3838  1.7714 -0.1145
11542TIP3    H256118   3.429   6.594   4.266  0.1868  0.5618  0.4965
11543TIP3   OH256119   2.194   6.769  11.995 -0.8346  0.0212 -0.1858
11543TIP3    H156120   2.285   6.778  11.966 -1.4667 -1.2664 -2.9263
11543TIP3    H256121   2.191   6.682  12.036 -0.8139  0.0907 -0.0375
11544TIP3   OH256122   1.030   4.018   1.170 -0.2884 -0.4525  0.0860
11544TIP3    H156123   1.057   4.032   1.261 -1.2487  0.4941  0.2443
11544TIP3    H256124   1.048   4.101   1.126 -2.2846  0.0294  0.0642
11545TIP3   OH256125   4.040   5.148  13.963 -0.0878  0.3264  0.3041
11545TIP3    H156126   4.117   5.188  14.003 -0.3498 -1.8441  3.2729
11545TIP3    H256127   3.971   5.214  13.974  1.1259  2.1654 -2.1194
11546TIP3   OH256128   3.901   1.637   5.563 -1.0669 -0.2447 -0.6956
11546TIP3    H156129   3.979   1.679   5.597 -1.0277 -0.1447 -0.9047
11546TIP3    H256130   3.846   1.621   5.640 -0.1532 -1.7777 -0.3382
11547TIP3   OH256131   3.501   0.369   3.761  0.4618  0.2643  0.7416
11547TIP3    H156132   3.484   0.399   3.672  0.9296 -0.1088  0.5229
11547TIP3    H256133   3.481   0.445   3.816 -1.8752 -0.1436  0.5156
11548TIP3   OH256134   5.589   2.369   1.286  0.2524  0.0910 -0.1956
11548TIP3    H156135   5.579   2.410   1.200  0.8416 -1.0526 -0.8444
11548TIP3    H256136   5.638   2.289   1.268 -0.6137 -0.7638  1.0426
11549TIP3   OH256137   2.214   5.669   3.033 -0.0972  0.0277  0.3158
11549TIP3    H156138   2.255   5.620   3.105 -1.5727 -0.1950  1.0453
11549TIP3    H256139   2.195   5.755   3.070 -0.3504  0.1022  0.0191
11550TIP3   OH256140   2.523   3.489   2.683  0.1463 -0.2446 -0.2041
11550TIP3    H156141   2.446   3.437   2.706 -0.5885  0.7145 -0.4528
11550TIP3    H256142   2.597   3.428   2.694 -0.5311 -0.8878  1.0454
11551TIP3   OH256143   1.603   2.028   4.465 -0.1777 -0.1778  0.8799
11551TIP3    H156144   1.519   2.044   4.508 -0.3011  0.0054  0.5743
11551TIP3    H256145   1.582   1.972   4.390 -0.0156 -0.1849  0.8375
11552TIP3   OH256146   5.539   5.073   2.323 -0.1400  0.2426 -0.4916
11552TIP3    H156147   5.598   5.001   2.302  1.0823  0.5632  1.5507
11552TIP3    H256148   5.455   5.031   2.342  0.3119 -0.5751 -0.2436
11553TIP3   OH256149   4.765   0.883   5.461 -0.1928 -0.4321  0.2532
11553TIP3    H156150   4.790   0.795   5.435 -1.4147 -0.8946  0.5718
11553TIP3    H256151   4.703   0.911   5.393 -0.4553 -0.1547  0.6009
11554TIP3   OH256152   6.299   3.344   1.460  0.2619 -0.1380 -0.1878
11554TIP3    H156153   6.301   3.428   1.415 -3.0269 -0.2698 -0.8300
11554TIP3    H256154   6.229   3.354   1.525  0.7337 -1.9543  0.6605
11555TIP3   OH256155   1.659   6.298  16.903 -0.0977 -0.6929  0.4495
11555TIP3    H156156   1.754   6.307  16.897 -0.0482 -1.2891  0.1948
11555TIP3    H256157   1.646   6.228  16.968 -0.3496 -0.9185  0.1566
11556TIP3   OH256158   3.503   5.008  11.973 -0.5862 -0.3061 -0.0760
11556TIP3    H156159   3.535   5.004  12.063  1.2876 -0.3334 -0.7040
11556TIP3    H256160   3.517   5.099  11.947  1.6519 -0.9278 -1.2537
11557TIP3   OH256161   5.310   4.625  14.417  0.0462 -0.6999  0.3390
11557TIP3    H156162   5.276   4.539  14.391 -0.6219  0.3278 -2.4392
11557TIP3    H256163   5.395   4.605  14.457  0.4425 -2.5844 -1.2737
11558TIP3   OH256164   3.621   0.307   3.320  0.0179  0.3619  0.2543
11558TIP3    H156165   3.544   0.266   3.360  1.0490 -1.4707  0.4485
11558TIP3    H256166   3.657   0.362   3.389 -0.7565  0.7395  0.3664
11559TIP3   OH256167   4.443   2.906  14.798 -0.6338  0.1078 -0.6778
11559TIP3    H156168   4.404   2.848  14.864 -1.8611  0.8634 -0.7086
11559TIP3    H256169   4.417   2.994  14.824 -0.0450  0.5310 -1.4565
11560TIP3   OH256170   4.186   2.149   6.020 -0.3057  0.2358 -0.3290
11560TIP3    H156171   4.130   2.122   6.093 -1.6510  0.3629 -1.2579
11560TIP3    H256172   4.265   2.185   6.060 -0.3094 -1.1757  1.0175
11561TIP3   OH256173   6.490   5.626   1.254 -0.1218 -0.2238  0.4485
11561TIP3    H156174   6.492   5.583   1.168  1.2211  1.0385 -0.1827
11561TIP3    H256175   6.546   5.571   1.309  2.9485  1.4376 -0.7793
11562TIP3   OH256176   0.642   1.442   1.103 -0.2390  0.8514  0.5086
11562TIP3    H156177   0.565   1.408   1.057  0.3877  0.7366 -0.5001
11562TIP3    H256178   0.655   1.381   1.175 -1.0023  0.7874  0.6087
11563TIP3   OH256179   1.159   6.125   3.025  0.0923 -0.2615 -0.6123
11563TIP3    H156180   1.243   6.114   2.980  1.8976 -1.0870  2.6266
11563TIP3    H256181   1.147   6.044   3.074 -1.2774  0.8847  1.0495
11564TIP3   OH256182   0.090   6.613  15.965 -0.0205 -0.0335 -0.1923
11564TIP3    H156183  -0.004   6.593  15.968 -0.1780  0.0973 -2.2605
11564TIP3    H256184   0.095   6.698  15.921  1.0133  0.8148  1.4957
11565TIP3   OH256185   5.580   2.318  13.373  0.0487  0.0005  0.6584
11565TIP3    H156186   5.671   2.288  13.374  0.3188  0.5708 -1.4525
11565TIP3    H256187   5.587   2.414  13.376 -0.4101  0.0833 -0.5027
11566TIP3   OH256188   2.845   2.995   5.499 -0.7091 -0.2181 -0.0517
11566TIP3    H156189   2.939   2.979   5.514 -0.8218 -0.5814  0.2771
11566TIP3    H256190   2.833   2.978   5.406 -0.6584 -1.2368  0.1218
11567TIP3   OH256191   3.427   1.406  15.710  0.0527  0.1053  0.2596
11567TIP3    H156192   3.475   1.328  15.681 -0.9480 -0.9123  1.2279
11567TIP3    H256193   3.467   1.428  15.795 -0.4511 -0.0826  0.5490
11568TIP3   OH256194   3.491   0.462  15.175  0.5540 -0.2778 -0.4469
11568TIP3    H156195   3.490   0.537  15.116 -0.3750 -1.0175 -1.4232
11568TIP3    H256196   3.548   0.488  15.247  0.1256  1.4112 -0.6867
11569TIP3   OH256197   1.338   3.453  15.334 -0.2455 -0.7766  0.1432
11569TIP3    H156198   1.407   3.408  15.383  0.1057  0.8691  1.2480
11569TIP3    H256199   1.385   3.510  15.273 -0.5812  0.9286  1.4348
11570TIP3   OH256200   1.551   4.129   3.984 -0.1193 -0.4156  0.3225
11570TIP3    H156201   1.552   4.198   4.050 -0.7841 -1.5538  1.5841
11570TIP3    H256202   1.534   4.174   3.901  1.9354  1.1873  0.7041
11571TIP3   OH256203   6.604   5.320  15.899 -0.3757  0.1008  0.3541
11571TIP3    H156204   6.659   5.358  15.967  0.9656 -1.7417  0.3919
11571TIP3    H256205   6.520   5.365  15.908  0.6003  1.8264  1.3987
11572TIP3   OH256206   4.105   1.970   0.129 -0.6895 -0.4251 -0.7103
11572TIP3    H156207   4.104   1.899   0.193 -0.6919  0.9453  0.8882
11572TIP3    H256208   4.155   1.936   0.055  0.5302 -1.6117  0.5984
11573TIP3   OH256209   2.349   3.941   0.830 -0.0655 -0.5328 -0.4108
11573TIP3    H156210   2.337   3.850   0.805 -0.3465 -1.2946  2.2148
11573TIP3    H256211   2.441   3.947   0.856 -0.4084 -0.5115  0.8791
11574TIP3   OH256212   1.218   3.683   3.660  0.0001  0.3634  0.1018
11574TIP3    H156213   1.217   3.590   3.636 -1.0812  0.6789 -1.2357
11574TIP3    H256214   1.125   3.706   3.666  0.2022  1.8935 -1.8752
11575TIP3   OH256215   1.165   0.242  15.683  0.1579 -0.3574  0.5895
11575TIP3    H156216   1.129   0.159  15.652 -1.1372  0.6209 -0.6355
11575TIP3    H256217   1.241   0.258  15.627 -0.3846 -0.0724 -0.0696
11576TIP3   OH256218   4.345   4.752  10.529 -0.0179  0.1912  0.2566
11576TIP3    H156219   4.340   4.762  10.624 -1.5564  2.7071  0.0061
11576TIP3    H256220   4.255   4.733  10.502  0.6953 -2.3590 -0.6230
11577TIP3   OH256221   5.357   5.389   3.218 -0.6015 -0.1366  0.0913
11577TIP3    H156222   5.387   5.389   3.309 -0.2093 -2.4964  0.0453
11577TIP3    H256223   5.373   5.299   3.189 -0.2291  0.6978 -2.4899
11578TIP3   OH256224   0.350   5.642   2.762 -0.1359  0.1500  0.3809
11578TIP3    H156225   0.399   5.717   2.726  0.9270  0.4163  2.2689
11578TIP3    H256226   0.418   5.581   2.791 -0.8357  0.5547  3.1210
11579TIP3   OH256227   0.955   2.424  14.365 -0.1798  0.3628  0.2033
11579TIP3    H156228   0.924   2.335  14.350  0.5644  0.1258  0.0020
11579TIP3    H256229   1.043   2.424  14.328 -1.1696  1.9584 -2.4248
11580TIP3   OH256230   0.053   5.545  15.808  0.6761 -0.4944  0.2600
11580TIP3    H156231   0.058   5.599  15.729  1.0249 -2.2074 -0.9541
11580TIP3    H256232   0.017   5.462  15.778 -1.2339 -0.5103  2.3219
11581TIP3   OH256233   4.268   1.589  11.017  0.0525 -0.0580  0.9811
11581TIP3    H156234   4.197   1.526  11.028 -1.2192  0.6965 -1.8699
11581TIP3    H256235   4.230   1.673  11.044 -1.0776  0.7400 -2.5379
11582TIP3   OH256236   0.697   3.696   2.335 -0.0741 -0.0632 -0.2313
11582TIP3    H156237   0.694   3.738   2.248 -0.9534  1.0128  0.2935
11582TIP3    H256238   0.787   3.710   2.365 -0.0731  0.5504 -0.5017
11583TIP3   OH256239   4.499   5.717  11.409  0.1826 -0.3259 -0.4460
11583TIP3    H156240   4.545   5.720  11.493 -0.1315 -0.1503 -0.2785
11583TIP3    H256241   4.496   5.808  11.380  0.3702 -0.3983 -0.6921
11584TIP3   OH256242   3.150   0.824   2.773  0.2047 -0.1540 -0.8429
11584TIP3    H156243   3.086   0.763   2.808  1.0086  0.8281  2.7833
11584TIP3    H256244   3.117   0.911   2.796  0.9538  0.5997 -2.4241
11585TIP3   OH256245   4.665   1.119  15.028  0.1052  0.0794 -0.6567
11585TIP3    H156246   4.743   1.126  14.972 -0.4148  2.4675 -1.2161
11585TIP3    H256247   4.607   1.060  14.981  0.8367 -0.2602 -1.1619
11586TIP3   OH256248   0.937   2.951   5.473 -0.5264 -0.3284 -0.2944
11586TIP3    H156249   0.968   2.866   5.504  0.7854  0.0732 -0.4423
11586TIP3    H256250   1.003   2.979   5.410  0.3558  1.8389  1.4394
11587TIP3   OH256251   5.624   1.371  12.811 -0.3601 -0.0181  0.5616
11587TIP3    H156252   5.555   1.438  12.819  0.4942  0.8269  1.0956
11587TIP3    H256253   5.692   1.400  12.872  0.4305 -0.8907  0.1120
11588TIP3   OH256254   3.869   5.929  16.557  0.4380 -0.5290  0.1986
11588TIP3    H156255   3.868   5.944  16.463  2.8488  1.7616  0.4260
11588TIP3    H256256   3.926   5.998  16.592 -1.7007 -0.1923  3.5474
11589TIP3   OH256257   4.967   1.517  13.615 -0.5472 -0.2772  0.5704
11589TIP3    H156258   4.960   1.551  13.704 -0.8110  1.0080  0.0835
11589TIP3    H256259   4.931   1.429  13.620 -0.8403 -0.1109  1.6769
11590TIP3   OH256260   2.612   4.030   3.676  0.4062 -0.1369  0.1706
11590TIP3    H156261   2.569   4.080   3.607 -0.5152 -0.7249  0.3121
11590TIP3    H256262   2.635   3.946   3.635  0.1097 -0.3813  0.5011
11591TIP3   OH256263   2.659   5.963  16.553 -0.6544  0.4762 -0.2843
11591TIP3    H156264   2.623   6.012  16.627 -0.1572 -1.2013  1.1429
11591TIP3    H256265   2.587   5.908  16.524 -0.0526 -1.0519  0.9548
11592TIP3   OH256266   0.186   3.668  11.937  0.3908  0.3296 -0.5219
11592TIP3    H156267   0.239   3.747  11.950  0.7636  0.0780 -0.4793
11592TIP3    H256268   0.194   3.648  11.844  0.6416  0.1052 -0.4537
11593TIP3   OH256269   3.677   6.450  13.244  0.1519 -0.8897  0.2594
11593TIP3    H156270   3.652   6.464  13.153  0.4734 -0.6151  0.2103
11593TIP3    H256271   3.753   6.507  13.257 -1.1249  0.6456  1.2901
11594TIP3   OH256272   5.020   6.338  11.307  0.1813  0.2982 -0.6450
11594TIP3    H156273   4.935   6.305  11.335 -0.1208  0.1844 -1.6773
11594TIP3    H256274   5.082   6.269  11.331  0.1020  0.6568  0.7076
11595TIP3   OH256275   4.961   1.192  11.330 -0.3383 -0.1979  0.3188
11595TIP3    H156276   4.903   1.267  11.331  1.2276  1.1330 -1.6590
11595TIP3    H256277   5.042   1.224  11.370 -0.2549 -1.4443  1.2326
11596TIP3   OH256278   3.556   5.282   3.255 -0.3952  0.4797  0.6503
11596TIP3    H156279   3.566   5.285   3.160  1.0071 -2.0255  0.6141
11596TIP3    H256280   3.515   5.365   3.278  3.8334  3.5610 -1.5665
11597TIP3   OH256281   5.435   1.896  12.283  0.4371  0.1629  0.5872
11597TIP3    H156282   5.530   1.899  12.293  1.0874 -0.1948 -3.4365
11597TIP3    H256283   5.415   1.803  12.271 -0.6117  0.1448  2.1660
11598TIP3   OH256284   1.840   4.832  15.485 -0.1572 -0.2463 -0.2065
11598TIP3    H156285   1.936   4.834  15.487 -0.0703 -2.2994 -0.4799
11598TIP3    H256286   1.817   4.753  15.535 -1.7363  0.4815  0.2694
11599TIP3   OH256287   2.712   5.898  10.565 -0.4071  0.0891  0.5764
11599TIP3    H156288   2.631   5.941  10.593 -1.1442 -0.9401  0.1030
11599TIP3    H256289   2.684   5.811  10.537  0.8220 -0.1654  0.0756
11600TIP3   OH256290   4.953   1.038   0.922  0.2721  0.2804 -0.0698
11600TIP3    H156291   4.910   1.066   0.841 -2.2157  0.2275  1.1506
11600TIP3    H256292   4.919   1.097   0.989  1.0474 -0.6777  1.2164
11601TIP3   OH256293   1.629   6.056  16.701  0.2941 -0.1187 -0.0821
11601TIP3    H156294   1.724   6.049  16.704  0.1906 -2.4122 -0.4431
11601TIP3    H256295   1.609   6.133  16.755  2.3566  0.7893 -0.5135
11602TIP3   OH256296   5.229   3.465  12.554  0.3864 -0.1853  0.1879
11602TIP3    H156297   5.192   3.456  12.466  1.4828  0.1040 -0.3241
11602TIP3    H256298   5.262   3.378  12.576  0.8552 -0.0703 -0.0431
11603TIP3   OH256299   4.102   0.711  13.033 -0.1352 -0.5040  0.6027
11603TIP3    H156300   4.163   0.784  13.045 -1.3806  0.7421 -0.3014
11603TIP3    H256301   4.017   0.753  13.018 -0.4557 -2.0085 -2.5888
11604TIP3   OH256302   3.879   5.636  14.601 -0.2437  0.0856 -0.1714
11604TIP3    H156303   3.830   5.718  14.601  1.0170  0.9836  2.6328
11604TIP3    H256304   3.962   5.658  14.643  0.7480 -2.3331 -0.6799
11605TIP3   OH256305   5.150   5.783  16.467  0.4051  0.2614  0.0039
11605TIP3    H156306   5.166   5.693  16.439  1.1610  0.3957 -0.0316
11605TIP3    H256307   5.220   5.834  16.425  1.6686  0.4582  2.2068
11606TIP3   OH256308   5.480   6.079   3.453 -0.2792  0.0624  0.7546
11606TIP3    H156309   5.521   6.146   3.508  1.7870  0.6445 -1.3384
11606TIP3    H256310   5.504   5.996   3.494  3.2292  0.3751 -0.3689
11607TIP3   OH256311   2.946   3.599  12.319  0.2455 -0.1324  0.0324
11607TIP3    H156312   2.936   3.686  12.359 -1.8290  0.1101 -0.9066
11607TIP3    H256313   2.900   3.540  12.378 -0.6483 -0.1529 -0.6576
11608TIP3   OH256314   3.554   4.392   1.584  0.0957  0.1172  0.3839
11608TIP3    H156315   3.594   4.449   1.649  0.5894 -1.5525  1.6071
11608TIP3    H256316   3.510   4.324   1.635  1.2118 -1.7422 -1.0130
11609TIP3   OH256317   0.140   0.283  10.318  0.4480  0.1378 -0.8764
11609TIP3    H156318   0.197   0.336  10.264 -0.1603 -0.7648 -2.4720
11609TIP3    H256319   0.195   0.209  10.346  1.0732  1.1592  0.7043
11610TIP3   OH256320   2.657   4.914  16.798 -0.0219 -0.2139  0.2523
11610TIP3    H156321   2.710   4.889  16.723 -1.1904  0.8687 -0.9855
11610TIP3    H256322   2.710   4.891  16.874  2.0358  0.4503 -0.9182
11611TIP3   OH256323   1.322   4.161   2.916  0.2503  0.3613 -0.1077
11611TIP3    H156324   1.343   4.068   2.902  0.6597  0.6158 -1.3013
11611TIP3    H256325   1.378   4.188   2.988 -0.6151 -0.5626  0.9607
11612TIP3   OH256326   1.351   0.666  12.388 -0.0058 -0.0239  0.3410
11612TIP3    H156327   1.319   0.594  12.333 -0.4162 -0.7115  1.4463
11612TIP3    H256328   1.387   0.622  12.465  0.6227  0.9205  0.5917
11613TIP3   OH256329   0.608   5.556   2.279 -0.0221 -0.1488 -0.4553
11613TIP3    H156330   0.609   5.467   2.244  2.4272 -0.0629 -0.7672
11613TIP3    H256331   0.515   5.574   2.294 -0.5489 -3.3307  1.1085
11614TIP3   OH256332   3.890   1.654  11.652 -0.0060  1.2645  0.0630
11614TIP3    H156333   3.908   1.563  11.675  1.4967  1.4471 -0.2701
11614TIP3    H256334   3.795   1.662  11.655 -0.1831 -0.4178 -0.2704
11615TIP3   OH256335   4.603   6.356  11.701  0.1003 -0.4463  0.1648
11615TIP3    H156336   4.583   6.428  11.641  1.2129 -0.9112 -0.8095
11615TIP3    H256337   4.675   6.388  11.755 -1.4392  0.2791  1.8861
11616TIP3   OH256338   5.422   4.198   6.037  0.3791 -1.0172  0.5220
11616TIP3    H156339   5.422   4.127   6.100 -0.4775 -1.6111 -0.1305
11616TIP3    H256340   5.352   4.257   6.066  0.6824 -0.7474  0.7158
11617TIP3   OH256341   5.642   0.094  16.354  0.1113  0.2635 -0.1405
11617TIP3    H156342   5.672   0.015  16.308  0.9521  1.1641 -1.2167
11617TIP3    H256343   5.571   0.064  16.410 -0.2557 -1.0925 -1.2697
11618TIP3   OH256344   6.065   6.716  14.971 -0.2585  0.1109  0.7725
11618TIP3    H156345   6.138   6.712  15.033  0.0400 -1.7415  0.3672
11618TIP3    H256346   6.014   6.791  15.000  0.5743  0.0883  2.4669
11619TIP3   OH256347   6.424   2.863   2.827  0.9844  0.4387 -0.0397
11619TIP3    H156348   6.412   2.774   2.860  0.4950  1.1359  1.8467
11619TIP3    H256349   6.516   2.867   2.802  1.0490 -0.5569 -0.0023
11620TIP3   OH256350   4.662   1.727  14.503  0.0336  0.4421  0.4199
11620TIP3    H156351   4.747   1.766  14.524  0.0871  1.5286 -1.5295
11620TIP3    H256352   4.652   1.743  14.409 -0.7886 -2.6982 -0.1281
11621TIP3   OH256353   5.050   4.271   4.572  0.3009  0.4756  0.3591
11621TIP3    H156354   5.041   4.176   4.569  0.2374  0.4942 -2.3662
11621TIP3    H256355   5.142   4.286   4.593  0.6318 -0.2208 -0.5377
11622TIP3   OH256356   0.450   2.832   2.651  0.0610  0.2206 -0.3462
11622TIP3    H156357   0.441   2.737   2.651  1.0731  0.1048 -0.5529
11622TIP3    H256358   0.543   2.847   2.672  0.0596  1.1353 -0.9279
11623TIP3   OH256359   3.534   2.082  15.828  0.6993  0.0537 -0.0150
11623TIP3    H156360   3.460   2.063  15.771  1.7638 -0.1709 -1.3594
11623TIP3    H256361   3.516   2.032  15.908 -0.2630 -0.5051 -0.5621
11624TIP3   OH256362   2.786   6.376  16.749  0.2500  0.0244  0.1468
11624TIP3    H156363   2.824   6.462  16.734  0.0616  0.3056  1.2040
11624TIP3    H256364   2.729   6.387  16.826 -2.0092 -0.3710 -1.3550
11625TIP3   OH256365   5.221   4.017  17.201 -0.7053 -0.2384 -0.2678
11625TIP3    H156366   5.163   4.092  17.205 -1.0814 -0.5852  1.0785
11625TIP3    H256367   5.295   4.039  17.258 -0.2790 -0.4495 -0.7214
11626TIP3   OH256368   4.859   6.007   0.784  0.0011  0.2826 -0.7186
11626TIP3    H156369   4.896   5.922   0.760 -0.6347 -0.9370  2.1809
11626TIP3    H256370   4.766   5.989   0.798  0.1672  0.9925  1.6874
11627TIP3   OH256371   3.319   2.304   1.873 -0.1920  0.6756  0.6010
11627TIP3    H156372   3.300   2.264   1.958  1.2011  1.3273  1.2699
11627TIP3    H256373   3.390   2.251   1.837 -2.0909 -0.8390 -1.1585
11628TIP3   OH256374   2.739   6.698  12.024  0.0788 -0.4137  0.5612
11628TIP3    H156375   2.769   6.778  12.068 -0.6940  1.3035 -1.7645
11628TIP3    H256376   2.819   6.658  11.990  0.3299  1.3325 -1.1721
11629TIP3   OH256377   4.484   4.195  11.777 -0.4662 -0.0473  0.2626
11629TIP3    H156378   4.519   4.244  11.702 -1.1561  0.5363  0.3068
11629TIP3    H256379   4.429   4.259  11.823 -0.1383 -0.4284  1.2062
11630TIP3   OH256380   4.009   3.291   4.849  0.6378  0.1201  0.5276
11630TIP3    H156381   4.090   3.342   4.845 -0.6903  2.2221 -1.2892
11630TIP3    H256382   4.002   3.250   4.762  0.1095 -0.6286  0.9124
11631TIP3   OH256383   1.210   3.522   6.365 -0.2474 -0.2273 -0.2114
11631TIP3    H156384   1.194   3.610   6.331  0.1551  0.3912  1.1247
11631TIP3    H256385   1.274   3.484   6.305  1.0561  1.1152  0.2646
11632TIP3   OH256386   2.979   2.061   1.199 -0.1701 -0.2676 -0.3228
11632TIP3    H156387   3.049   2.022   1.147  1.2043  1.8961 -0.2293
11632TIP3    H256388   2.942   1.988   1.248  0.4270 -1.8688 -2.1256
11633TIP3   OH256389   5.680   3.157  13.651 -0.6417  0.2770  0.2889
11633TIP3    H156390   5.585   3.162  13.662 -0.5249  0.2376  1.3982
11633TIP3    H256391   5.701   3.233  13.596 -1.1833  0.9858  1.0285
11634TIP3   OH256392   3.062   1.053   3.113 -0.0185 -0.3930 -0.5207
11634TIP3    H156393   3.051   1.059   3.018 -0.6384 -0.8497 -0.4864
11634TIP3    H256394   3.111   0.971   3.125  1.7285  0.6019 -0.5472
11635TIP3   OH256395   2.495   0.662  12.435 -0.6412  0.3694 -0.4134
11635TIP3    H156396   2.403   0.686  12.420 -0.3204  1.3285 -0.8940
11635TIP3    H256397   2.498   0.639  12.528 -1.3105  0.5849 -0.3313
11636TIP3   OH256398   3.103   4.672   0.923 -0.1147 -0.6281 -0.4749
11636TIP3    H156399   3.084   4.710   1.009  0.6314  0.7848 -0.9075
11636TIP3    H256400   3.021   4.680   0.875 -0.3812 -0.9223 -0.0790
11637TIP3   OH256401   0.935   0.574  16.992  0.2608  0.2558 -0.5827
11637TIP3    H156402   0.913   0.552  17.082  2.7173 -0.2825 -0.0480
11637TIP3    H256403   0.912   0.495  16.942  1.8376 -0.6986  0.1229
11638TIP3   OH256404   1.955   3.710  15.359 -0.0258 -0.6252 -0.1095
11638TIP3    H156405   1.949   3.623  15.320  0.8896 -1.2258  0.9976
11638TIP3    H256406   1.876   3.718  15.412 -0.7337 -0.2466 -1.1884
11639TIP3   OH256407   0.161   0.754   1.260  0.6479  0.0524 -0.5937
11639TIP3    H156408   0.256   0.752   1.256  0.6433 -1.1568 -0.2619
11639TIP3    H256409   0.135   0.799   1.179  1.4567 -0.9850 -1.4693
11640TIP3   OH256410   2.002   0.694  11.889 -0.0820  0.6085 -0.2957
11640TIP3    H156411   2.061   0.624  11.915  0.5155  0.3248 -2.3232
11640TIP3    H256412   1.990   0.745  11.969 -0.3376 -1.6195  1.1774
11641TIP3   OH256413   2.935   3.228  13.152 -0.0116  0.7007  0.0331
11641TIP3    H156414   3.006   3.189  13.203 -1.1532 -1.2903  0.2190
11641TIP3    H256415   2.895   3.292  13.211  1.0400  1.1926  0.2368
11642TIP3   OH256416   5.086   2.880   2.848  0.2331 -0.1072  0.0130
11642TIP3    H156417   5.051   2.924   2.771 -0.6340  2.2622  1.6330
11642TIP3    H256418   5.008   2.850   2.896  0.5180  1.3571  1.5044
11643TIP3   OH256419   3.744   4.358  12.546 -0.1699  0.4533 -0.2236
11643TIP3    H156420   3.786   4.350  12.632 -1.4739  0.4112  0.4285
11643TIP3    H256421   3.701   4.274  12.532  0.9179  0.0552 -1.4344
11644TIP3   OH256422   2.676   0.467  15.409 -0.3274 -0.1012 -0.4175
11644TIP3    H156423   2.715   0.381  15.426 -0.4883 -0.4307 -1.5718
11644TIP3    H256424   2.626   0.488  15.488  0.9803 -0.3440  0.5060
11645TIP3   OH256425   0.026   5.453   5.674  0.0267 -0.0636  0.1218
11645TIP3    H156426   0.024   5.390   5.746  0.8017 -0.9184 -0.5786
11645TIP3    H256427  -0.031   5.415   5.608 -1.5895  1.2733  0.6896
11646TIP3   OH256428   2.138   4.947  15.862  0.0475 -0.1525  0.2296
11646TIP3    H156429   2.175   5.013  15.922 -0.9464  1.6242 -1.0175
11646TIP3    H256430   2.044   4.965  15.862 -0.1533 -1.0970 -0.7391
11647TIP3   OH256431   3.483   6.314  11.677 -0.0286 -0.2824 -0.0627
11647TIP3    H156432   3.494   6.405  11.648 -0.4058 -0.1258  0.2841
11647TIP3    H256433   3.559   6.298  11.733  0.5476 -0.4899 -0.8770
11648TIP3   OH256434   0.639   3.858   2.807  0.3143  0.2924 -0.5208
11648TIP3    H156435   0.631   3.763   2.799  0.4466  0.2336  0.0135
11648TIP3    H256436   0.560   3.893   2.767 -0.4519 -0.0975  0.6194
11649TIP3   OH256437   1.731   5.118  15.989  0.2266  0.0530 -0.2868
11649TIP3    H156438   1.790   5.049  15.956  0.9379  1.0331 -1.1448
11649TIP3    H256439   1.711   5.170  15.912  1.2752  1.9485  0.6590
11650TIP3   OH256440   2.136   4.291   1.885  0.2722  0.1610 -0.0887
11650TIP3    H156441   2.168   4.381   1.892  1.3448 -0.0469 -1.7365
11650TIP3    H256442   2.210   4.236   1.909 -0.5517 -0.3257  1.4918
11651TIP3   OH256443   2.071   2.557   1.376  0.3651 -0.3387 -0.2203
11651TIP3    H156444   1.993   2.594   1.335  0.5550  2.2025  1.4730
11651TIP3    H256445   2.144   2.602   1.333  0.6639  0.4878  1.0849
11652TIP3   OH256446   3.944   4.654   4.311  0.3781 -0.3202 -0.2803
11652TIP3    H156447   3.957   4.596   4.386 -0.9615  0.3079  0.4891
11652TIP3    H256448   3.867   4.706   4.335  0.5339  0.5985 -1.6686
11653TIP3   OH256449   1.183   3.159   6.192  0.2939  0.8314 -0.3190
11653TIP3    H156450   1.262   3.120   6.229 -0.5253  0.3509  0.9997
11653TIP3    H256451   1.196   3.153   6.097  1.2452 -0.4641 -0.1389
11654TIP3   OH256452   3.631   5.800   5.847  0.2654  0.0017  0.2518
11654TIP3    H156453   3.639   5.842   5.933  1.9578 -0.2069  0.2339
11654TIP3    H256454   3.712   5.823   5.802 -1.8385  2.7353 -2.5542
11655TIP3   OH256455   4.679   2.590   0.549 -0.4212  0.0175 -0.5388
11655TIP3    H156456   4.722   2.669   0.581  0.8069 -1.5501  1.9502
11655TIP3    H256457   4.746   2.545   0.497  0.5912 -1.6606  2.0518
11656TIP3   OH256458   1.946   5.449  13.992 -0.3797 -0.0899  0.1266
11656TIP3    H156459   1.919   5.507  14.063 -0.1942  1.1664 -0.8007
11656TIP3    H256460   1.967   5.507  13.920 -1.3745 -1.3594 -1.2614
11657TIP3   OH256461   3.869   3.352  12.452 -0.2980  0.3763  0.0214
11657TIP3    H156462   3.845   3.292  12.381  0.5046  0.8753 -0.6938
11657TIP3    H256463   3.786   3.392  12.478 -0.7137 -0.3642 -0.1127
11658TIP3   OH256464   6.583   1.364  16.646 -0.9090  0.5653  0.2322
11658TIP3    H156465   6.491   1.345  16.627 -0.4566 -0.6422 -0.8983
11658TIP3    H256466   6.608   1.429  16.581 -0.1180 -1.5492 -1.7560
11659TIP3   OH256467   2.729   2.050   4.443 -0.9110  0.8692 -0.0915
11659TIP3    H156468   2.765   1.999   4.370  0.0312 -1.0031  1.5950
11659TIP3    H256469   2.778   2.132   4.441 -0.0657  0.3701 -0.8571
11660TIP3   OH256470   0.641   5.748   4.271 -0.2131  0.0400  0.5113
11660TIP3    H156471   0.698   5.756   4.194 -0.7576  0.2385  0.1212
11660TIP3    H256472   0.633   5.654   4.285 -2.6201 -0.1901 -1.6172
11661TIP3   OH256473   0.513   5.673   3.671  0.0679  0.3187 -0.3741
11661TIP3    H156474   0.432   5.722   3.659  0.4589  0.9805 -0.3681
11661TIP3    H256475   0.552   5.711   3.750  1.3742  1.4345 -1.4846
11662TIP3   OH256476   3.795   3.465  12.940 -0.1861  0.5068  0.1819
11662TIP3    H156477   3.760   3.392  12.889  0.3341  0.9039 -0.7711
11662TIP3    H256478   3.889   3.464  12.923 -0.0356  0.8011  0.9455
11663TIP3   OH256479   1.907   0.498   6.569  0.7939  0.5234  0.3019
11663TIP3    H156480   1.833   0.486   6.629  1.4731 -0.7030  0.9431
11663TIP3    H256481   1.924   0.592   6.570 -1.5549  1.0227 -0.8779
11664TIP3   OH256482   3.086   2.957  14.855  0.2691  0.0040  0.5023
11664TIP3    H156483   3.123   2.903  14.785 -0.3356 -0.5711  0.6100
11664TIP3    H256484   3.162   2.987  14.905  0.7227  0.6420 -0.5431
11665TIP3   OH256485   2.819   3.959   0.177 -0.5716  0.0627  0.0194
11665TIP3    H156486   2.761   3.893   0.216 -0.1338 -0.0312  0.5270
11665TIP3    H256487   2.820   4.030   0.242 -0.2967  0.1578 -0.0874
11666TIP3   OH256488   3.381   5.684   1.572 -0.5213  0.1094 -0.6098
11666TIP3    H156489   3.289   5.712   1.577 -0.3417  0.9301 -1.5856
11666TIP3    H256490   3.381   5.616   1.504 -0.2572  0.8300 -1.3470
11667TIP3   OH256491   1.719   5.491  12.991 -0.6167  0.0562 -0.3802
11667TIP3    H156492   1.764   5.560  12.941  0.0062 -0.3591 -0.4099
11667TIP3    H256493   1.735   5.514  13.083 -0.2318 -0.1541 -0.3912
11668TIP3   OH256494   1.801   0.408   4.753  0.3649 -0.4986 -1.1323
11668TIP3    H156495   1.739   0.354   4.704 -0.4498 -1.8465  1.2198
11668TIP3    H256496   1.877   0.415   4.695 -1.7420  0.9494 -4.0008
11669TIP3   OH256497   1.273   3.592   1.424  0.2125 -0.4363 -0.1199
11669TIP3    H156498   1.352   3.565   1.470 -0.2245 -1.1379  0.2279
11669TIP3    H256499   1.298   3.673   1.378  0.7836  0.0221  0.9666
11670TIP3   OH256500   4.631   1.774  13.878 -0.6536 -0.2067  0.2642
11670TIP3    H156501   4.682   1.854  13.875 -0.6118 -0.2374  0.1326
11670TIP3    H256502   4.548   1.800  13.919 -0.9877  0.1014 -0.5872
11671TIP3   OH256503   4.898   4.533   1.104 -0.1671 -0.5285 -0.0057
11671TIP3    H156504   4.988   4.544   1.133 -0.2558  1.2613 -0.2901
11671TIP3    H256505   4.845   4.559   1.180 -0.4785 -2.1837  0.3805
11672TIP3   OH256506   4.873   4.427   0.832 -0.1217  0.4907  0.0140
11672TIP3    H156507   4.942   4.362   0.845 -0.1351  0.4901  0.0804
11672TIP3    H256508   4.858   4.463   0.919 -0.6499  0.0482  0.1055
11673TIP3   OH256509   2.525   0.804   3.573  0.3210  0.2716 -0.0562
11673TIP3    H156510   2.551   0.764   3.656 -2.2053 -1.0018  0.2095
11673TIP3    H256511   2.455   0.748   3.540  0.3579  1.4947 -2.4192
11674TIP3   OH256512   0.503   3.090  15.865  0.3061 -0.3231  0.0190
11674TIP3    H156513   0.560   3.111  15.938  0.2523  0.6178 -0.1967
11674TIP3    H256514   0.505   2.994  15.860  1.8896 -0.3205 -0.0093
11675TIP3   OH256515   3.330   3.277  14.338 -0.4982 -0.3405  0.4696
11675TIP3    H156516   3.307   3.277  14.431 -2.2201  0.7846  0.0895
11675TIP3    H256517   3.263   3.222  14.297  1.4694 -2.6588  0.0801
11676TIP3   OH256518   4.656   1.874  17.034  0.7077  0.3729  0.5244
11676TIP3    H156519   4.624   1.818  16.963  0.2025  0.7442  0.4509
11676TIP3    H256520   4.685   1.954  16.989  1.3839  0.1886  0.6299
11677TIP3   OH256521   0.779   1.338  12.237 -0.4463  0.0244  0.4257
11677TIP3    H156522   0.872   1.314  12.231 -0.2754  1.0326 -2.7965
11677TIP3    H256523   0.779   1.433  12.223 -2.0394 -0.2138 -1.5817
11678TIP3   OH256524   2.760   0.460  15.981  0.1230 -0.0242  0.1546
11678TIP3    H156525   2.767   0.502  15.895  0.9437  0.7383  0.5727
11678TIP3    H256526   2.828   0.502  16.033  1.4671 -2.3768  0.4119
11679TIP3   OH256527   5.624   2.551  14.024 -0.1699 -0.2003  0.0777
11679TIP3    H156528   5.644   2.462  14.053  0.1265  0.0655  0.7020
11679TIP3    H256529   5.709   2.594  14.018 -0.0054 -0.7267 -2.9372
11680TIP3   OH256530   4.603   0.162  13.668 -0.1268  0.2952  0.2538
11680TIP3    H156531   4.632   0.181  13.757  1.6607 -0.1108 -0.2055
11680TIP3    H256532   4.605   0.067  13.662 -0.7956  0.2948 -0.0561
11681TIP3   OH256533   1.972   6.221   6.219  0.2102  0.2519  0.3536
11681TIP3    H156534   1.893   6.233   6.165  1.7350  2.1807 -1.6494
11681TIP3    H256535   1.945   6.161   6.288 -3.2806  1.5350  0.3158
11682TIP3   OH256536   1.728   0.546  12.781 -0.7591  0.0334  0.3563
11682TIP3    H156537   1.813   0.585  12.765 -0.2831 -0.6591  1.1001
11682TIP3    H256538   1.674   0.574  12.707 -0.6663  2.6413  1.1917
11683TIP3   OH256539   3.573   1.363  13.297  0.0407 -0.1293  0.1451
11683TIP3    H156540   3.567   1.445  13.347 -1.0947  1.2018 -2.0411
11683TIP3    H256541   3.663   1.361  13.265 -0.5694  1.6447 -1.8797
11684TIP3   OH256542   3.079   5.236  15.060 -0.3295  0.6891  0.0063
11684TIP3    H156543   3.143   5.189  15.009 -1.1596  0.8179 -1.1923
11684TIP3    H256544   3.054   5.175  15.130  0.0926  0.1347 -0.3219
11685TIP3   OH256545   0.551   3.090   1.713 -0.0481  0.5539  0.3082
11685TIP3    H156546   0.639   3.088   1.678 -0.7913 -1.3829 -1.6596
11685TIP3    H256547   0.555   3.037   1.792  0.5824  0.6321  0.3310
11686TIP3   OH256548   2.161   2.093   2.803  0.1620 -0.2795  0.7483
11686TIP3    H156549   2.248   2.087   2.765 -0.3650  0.1093 -0.5876
11686TIP3    H256550   2.175   2.131   2.889  1.1936  1.2699 -0.0571
11687TIP3   OH256551   6.509   3.852  12.137  0.1036  0.5073  0.5163
11687TIP3    H156552   6.529   3.768  12.095  0.0522  0.1683  1.1433
11687TIP3    H256553   6.473   3.827  12.223  1.0313  1.1876  1.1175
11688TIP3   OH256554   2.179   0.386  11.046  0.1353  0.0543  0.5717
11688TIP3    H156555   2.218   0.464  11.006  0.2389 -0.0626  0.4414
11688TIP3    H256556   2.251   0.323  11.051  0.1756  0.1473  1.1555
11689TIP3   OH256557   4.503   4.090  14.643 -0.0151  0.9848 -0.6845
11689TIP3    H156558   4.435   4.027  14.668  0.3665  1.4387  1.7240
11689TIP3    H256559   4.461   4.175  14.653  0.8588  1.2759  0.9614
11690TIP3   OH256560   0.729   6.759   4.356  0.1768  0.6911 -0.3965
11690TIP3    H156561   0.814   6.748   4.397  0.7939  1.8809 -1.3169
11690TIP3    H256562   0.745   6.744   4.263 -1.1783 -1.8708 -0.3309
11691TIP3   OH256563   4.993   6.176   3.707 -0.2552  0.9378 -0.1631
11691TIP3    H156564   4.981   6.115   3.779 -0.2799  0.9194 -0.1826
11691TIP3    H256565   5.021   6.257   3.748  1.1580  0.5127 -0.2450
11692TIP3   OH256566   1.041   3.467   2.772  0.4990 -0.0464 -0.1333
11692TIP3    H156567   1.009   3.533   2.834 -1.8924  0.0882 -1.3909
11692TIP3    H256568   1.010   3.384   2.807  0.8623 -0.1902 -0.1429
11693TIP3   OH256569   2.335   2.811  15.493 -0.0771 -0.2682  0.1841
11693TIP3    H156570   2.352   2.724  15.528  0.7386 -1.2263 -2.3197
11693TIP3    H256571   2.403   2.824  15.427  0.4572  2.7480  1.1519
11694TIP3   OH256572   1.832   2.225   5.150  0.1876  0.4093 -0.6411
11694TIP3    H156573   1.885   2.170   5.092 -0.8522  0.0824 -1.3128
11694TIP3    H256574   1.742   2.208   5.123 -0.3837 -0.1937  1.4634
11695TIP3   OH256575   4.481   0.465   1.573 -0.1997  0.1149 -0.4129
11695TIP3    H156576   4.545   0.449   1.642  0.4010 -0.5342 -1.0980
11695TIP3    H256577   4.531   0.455   1.491 -0.8814  0.9074 -0.9436
11696TIP3   OH256578   5.109   4.249  10.351 -0.6432 -0.3146  0.4886
11696TIP3    H156579   5.123   4.323  10.291  2.1588 -1.2253 -0.1609
11696TIP3    H256580   5.113   4.288  10.438 -0.0850  0.4286  0.1437
11697TIP3   OH256581   4.366   2.429  15.278  0.0429 -0.3532  0.1402
11697TIP3    H156582   4.328   2.347  15.309  0.7504 -0.5045  0.6380
11697TIP3    H256583   4.338   2.495  15.342  0.1018 -0.3482  0.1608
11698TIP3   OH256584   2.512   1.386  14.464  0.5249 -0.4278 -0.9148
11698TIP3    H156585   2.556   1.404  14.546 -0.1265  0.8367 -0.8200
11698TIP3    H256586   2.427   1.430  14.472  0.2238 -0.7738 -2.0303
11699TIP3   OH256587   4.720   0.772  16.740 -0.2132  0.0614 -0.4043
11699TIP3    H156588   4.765   0.692  16.768  3.7859  2.1077 -0.2536
11699TIP3    H256589   4.740   0.779  16.647  1.2488  1.8131 -0.0017
11700TIP3   OH256590   3.991   1.812  16.186 -0.3197 -0.2310  0.6213
11700TIP3    H156591   3.989   1.716  16.182 -0.2598 -0.1892 -1.0762
11700TIP3    H256592   3.916   1.835  16.241  0.0782 -1.2538  1.6405
11701TIP3   OH256593   5.367   4.355  14.643  0.6712 -0.0732 -0.0059
11701TIP3    H156594   5.350   4.446  14.669 -1.6980  0.1614 -1.9742
11701TIP3    H256595   5.438   4.361  14.579  1.0168  0.2995  0.4069
11702TIP3   OH256596   3.247   2.540   1.030 -0.0873  0.3830 -0.4762
11702TIP3    H156597   3.259   2.559   0.937  0.5258 -1.0237 -0.7142
11702TIP3    H256598   3.174   2.478   1.033  1.2033 -1.2126 -0.2590
11703TIP3   OH256599   5.022   6.794  11.767  0.1104 -0.2927  0.6083
11703TIP3    H156600   5.067   6.799  11.851 -0.4617  1.5263  0.8612
11703TIP3    H256601   4.950   6.857  11.775 -1.7755 -2.1804 -0.2032
11704TIP3   OH256602   0.641   0.962   4.280 -0.0664 -0.2400 -0.2064
11704TIP3    H156603   0.649   1.051   4.315  1.3506 -0.3825 -0.1484
11704TIP3    H256604   0.605   0.975   4.192 -0.7618  0.3148  0.1441
11705TIP3   OH256605   4.073   0.751   0.874  0.2863  0.1054  0.1219
11705TIP3    H156606   4.161   0.783   0.854  0.6694  0.4379  2.1508
11705TIP3    H256607   4.015   0.810   0.826  1.1237  0.5035 -0.4351
11706TIP3   OH256608   1.278   3.227   2.694 -0.3151 -0.0371  0.0976
11706TIP3    H156609   1.249   3.274   2.772 -2.3254 -0.2630 -0.4527
11706TIP3    H256610   1.270   3.291   2.623 -0.4467 -0.4181 -0.2376
11707TIP3   OH256611   1.462   1.058   4.281  0.8415  0.0929 -0.1270
11707TIP3    H156612   1.499   0.974   4.253 -0.5491 -0.5892  0.0147
11707TIP3    H256613   1.477   1.061   4.375 -0.8179 -0.9409  0.2213
11708TIP3   OH256614   5.113   2.985   2.554 -0.2528 -0.0537  0.3695
11708TIP3    H156615   5.140   3.042   2.626 -0.1531  2.3864 -1.4461
11708TIP3    H256616   5.058   3.041   2.499  0.3035 -1.5490 -1.8492
11709TIP3   OH256617   0.643   6.238  17.245 -0.1242  0.0675  0.0551
11709TIP3    H156618   0.657   6.213  17.336  2.0192 -0.3993 -0.3445
11709TIP3    H256619   0.551   6.264  17.241  0.2081  2.1388  2.8393
11710TIP3   OH256620   0.920   0.066  15.374 -0.5523  0.3195  0.0633
11710TIP3    H156621   0.856   0.007  15.333  0.6983 -0.7525 -0.3860
11710TIP3    H256622   1.000   0.053  15.324  0.2627  1.0029  1.1666
11711TIP3   OH256623   1.969   3.035  12.022  0.7252  0.6534 -0.0365
11711TIP3    H156624   1.907   3.057  11.952  0.6087  0.1006 -0.1093
11711TIP3    H256625   1.945   3.095  12.093 -1.2258 -0.8505  0.6723
11712TIP3   OH256626   4.226   2.352   0.039 -0.0255  0.2663  0.2061
11712TIP3    H156627   4.139   2.383   0.014 -0.4521 -0.0857  1.2061
11712TIP3    H256628   4.232   2.265   0.000  0.7027  1.0582 -1.5824
11713TIP3   OH256629   5.634   6.589  14.607  0.9622 -0.2055 -0.3888
11713TIP3    H156630   5.587   6.511  14.637 -1.2207  0.2420 -2.3349
11713TIP3    H256631   5.637   6.646  14.683  0.0695 -1.0544  0.3157
11714TIP3   OH256632   0.582   5.057   5.687  0.0787  0.1725 -0.3017
11714TIP3    H156633   0.511   5.053   5.623 -0.9347 -0.4785  0.8277
11714TIP3    H256634   0.539   5.077   5.770  1.3697  1.0572  0.1990
11715TIP3   OH256635   0.977   4.166  14.127  0.2255 -0.1593  0.2466
11715TIP3    H156636   0.955   4.250  14.086  1.7959  0.2527  0.1577
11715TIP3    H256637   0.908   4.151  14.191 -0.5668  0.7550 -0.3663
11716TIP3   OH256638   3.957   3.586   4.577 -0.0979  0.0104 -0.1709
11716TIP3    H156639   3.994   3.499   4.563  0.3535  0.0115  0.8549
11716TIP3    H256640   4.022   3.630   4.632 -1.5666  0.0564  1.6191
11717TIP3   OH256641   6.241   3.823   4.328  0.5196  0.6169 -0.0976
11717TIP3    H156642   6.304   3.846   4.260  0.8774  0.8504  0.3065
11717TIP3    H256643   6.249   3.728   4.336 -1.9984  0.0454 -2.7848
11718TIP3   OH256644   5.066   1.117   2.608 -0.4772 -0.4565  0.4807
11718TIP3    H156645   5.127   1.191   2.610  1.0243 -1.6295  3.3118
11718TIP3    H256646   5.006   1.135   2.681 -3.0695  0.2009 -1.6706
11719TIP3   OH256647   0.565   1.239  14.564 -0.1703  0.6460 -0.1011
11719TIP3    H156648   0.631   1.175  14.538 -0.1502  0.5047  0.2958
11719TIP3    H256649   0.572   1.308  14.497 -1.1269 -0.3813 -1.3207
11720TIP3   OH256650   5.187   2.783  15.553  0.3077  0.6946  0.0233
11720TIP3    H156651   5.118   2.756  15.614  1.0940  0.3717  0.7970
11720TIP3    H256652   5.260   2.808  15.610  0.9644  0.6494 -0.7894
11721TIP3   OH256653   0.343   2.094   3.167 -0.1631  0.2720  0.1303
11721TIP3    H156654   0.325   2.175   3.119 -2.6695  2.4932  4.2892
11721TIP3    H256655   0.263   2.042   3.156  1.1075 -1.4284 -1.8061
11722TIP3   OH256656   4.382   5.675  17.155 -0.4206  0.1269  0.0550
11722TIP3    H156657   4.319   5.718  17.213  0.6889  0.8160  0.8016
11722TIP3    H256658   4.348   5.587  17.142 -2.1156  0.8283 -0.4992
11723TIP3   OH256659   0.714   2.884  12.735 -0.0438  0.3253  0.1493
11723TIP3    H156660   0.751   2.886  12.823  1.3852 -0.5729 -0.3966
11723TIP3    H256661   0.774   2.938  12.683  0.7788 -1.4317 -0.8252
11724TIP3   OH256662   3.032   4.666  11.041  0.1989 -0.4296 -0.5057
11724TIP3    H156663   3.119   4.635  11.065  0.4187 -0.3334 -1.1554
11724TIP3    H256664   2.971   4.607  11.086  0.5916 -0.2432  0.2881
11725TIP3   OH256665   3.995   0.790  16.985  0.7281  0.3380 -0.6518
11725TIP3    H156666   3.923   0.826  17.037 -0.4559 -0.0276 -1.9554
11725TIP3    H256667   4.003   0.699  17.015  2.2248  0.9894  1.0855
11726TIP3   OH256668   4.155   1.422   5.314 -0.4714 -0.0270 -0.1789
11726TIP3    H156669   4.100   1.413   5.236 -0.5066 -0.0778 -0.1484
11726TIP3    H256670   4.093   1.420   5.387 -0.4264 -0.1192 -0.1428
11727TIP3   OH256671   1.950   5.295  12.938  1.0328 -0.4047  0.0352
11727TIP3    H156672   1.991   5.256  12.860  0.4504  0.3987 -0.6917
11727TIP3    H256673   1.925   5.383  12.910 -2.3680 -1.2535  0.0087
11728TIP3   OH256674   1.911   3.531  16.160 -0.3340 -0.3736 -0.1010
11728TIP3    H156675   1.871   3.540  16.246  0.2327 -0.0655  0.1282
11728TIP3    H256676   1.888   3.612  16.114  0.2395 -0.0771  0.1233
11729TIP3   OH256677   1.416   0.426  16.292  0.0264  0.0483  0.1310
11729TIP3    H156678   1.413   0.334  16.318 -1.8763  0.0304 -0.0090
11729TIP3    H256679   1.325   0.455  16.294  0.4056  1.5070 -1.3441
11730TIP3   OH256680   0.750   0.982  12.177 -0.2434  0.1512  0.2176
11730TIP3    H156681   0.811   0.916  12.144  1.2387  2.1738 -1.3337
11730TIP3    H256682   0.791   1.016  12.256  0.7631  1.5665 -0.8684
11731TIP3   OH256683   5.853   2.082  15.465  0.2697 -0.1125 -0.2488
11731TIP3    H156684   5.781   2.107  15.409  0.5113  2.8379  0.5847
11731TIP3    H256685   5.822   2.098  15.554  2.3370  2.8356  0.0930
11732TIP3   OH256686   0.877   5.450  16.242 -0.0160  0.2456 -0.3937
11732TIP3    H156687   0.899   5.366  16.282 -0.2843  0.4144  0.1206
11732TIP3    H256688   0.918   5.515  16.299 -0.8587  0.5126 -0.0679
11733TIP3   OH256689   3.783   5.625  15.237 -0.2382  0.4646  0.2757
11733TIP3    H156690   3.740   5.559  15.184 -0.4903  1.1403 -0.3689
11733TIP3    H256691   3.849   5.663  15.179 -1.0883  1.8008  0.1514
11734TIP3   OH256692   0.379   0.213   1.586 -0.2808  0.0993 -0.6236
11734TIP3    H156693   0.441   0.140   1.583  3.2066  2.6183  1.7556
11734TIP3    H256694   0.378   0.247   1.496  0.5271 -0.9684 -1.0607
11735TIP3   OH256695   5.768   0.867   2.612  0.0539  0.0997 -0.1434
11735TIP3    H156696   5.840   0.929   2.595  1.4846 -1.4928 -0.1766
11735TIP3    H256697   5.745   0.833   2.526  0.6784 -0.8854  0.0670
11736TIP3   OH256698   3.970   2.249  16.854  0.1858 -0.1598  0.0498
11736TIP3    H156699   3.984   2.341  16.874  0.1574 -0.0778 -0.3127
11736TIP3    H256700   3.926   2.248  16.769  1.8683 -0.5577 -0.8642
11737TIP3   OH256701   3.635   5.739   2.136 -0.2921 -0.6757 -1.3420
11737TIP3    H156702   3.664   5.653   2.165 -0.1897 -0.1682  0.1171
11737TIP3    H256703   3.706   5.770   2.078  0.0926 -1.1879 -1.1517
11738TIP3   OH256704   4.972   5.209  13.493 -0.0226  0.0299 -0.1281
11738TIP3    H156705   4.905   5.175  13.552 -0.9956  0.6282 -0.8602
11738TIP3    H256706   4.960   5.304  13.495  0.9521  0.1604 -0.1107
11739TIP3   OH256707   3.945   3.173   5.634  0.3334 -0.4102 -0.4321
11739TIP3    H156708   3.897   3.186   5.553  0.8820  2.0973 -0.4389
11739TIP3    H256709   3.877   3.162   5.701 -0.2514  1.0784 -0.7408
11740TIP3   OH256710   4.262   2.606   5.341  0.5216 -0.6574 -0.1807
11740TIP3    H156711   4.242   2.686   5.293  0.3526 -0.8305 -0.3996
11740TIP3    H256712   4.337   2.569   5.295 -0.0574 -1.1736 -0.7276
11741TIP3   OH256713   1.456   5.345  17.030  0.6700 -0.1339  0.0595
11741TIP3    H156714   1.533   5.351  16.974  0.5779 -0.9478 -0.1650
11741TIP3    H256715   1.395   5.289  16.981 -0.2080  0.7841  0.0652
11742TIP3   OH256716   2.724   1.087  14.742  0.0787  0.0116  0.0405
11742TIP3    H156717   2.740   1.181  14.731 -1.3719 -0.0169 -3.6441
11742TIP3    H256718   2.655   1.083  14.809  0.1994  1.5561  0.3045
11743TIP3   OH256719   5.079   2.267  11.428 -0.0383  0.1305  0.0033
11743TIP3    H156720   5.009   2.209  11.456 -0.0719 -0.2178 -0.7800
11743TIP3    H256721   5.076   2.339  11.491  0.6868 -1.1932  1.6269
11744TIP3   OH256722   1.281   3.413   3.965 -0.4990 -0.1014  0.5498
11744TIP3    H156723   1.189   3.438   3.973 -1.2674 -1.5985 -2.2060
11744TIP3    H256724   1.328   3.495   3.961 -1.9534  0.7526  0.1647
11745TIP3   OH256725   3.003   1.023  13.842  0.0709  0.1871  0.0192
11745TIP3    H156726   3.078   1.070  13.805  0.0517 -0.0450 -0.3095
11745TIP3    H256727   2.938   1.022  13.772  0.1491 -0.5148 -0.0481
11746TIP3   OH256728   5.596   2.113  14.364  0.3883 -0.2930  0.4200
11746TIP3    H156729   5.517   2.116  14.418 -1.1222  0.0488 -1.7154
11746TIP3    H256730   5.599   2.023  14.331  1.0015 -0.3457  0.6010
11747TIP3   OH256731   2.253   0.765  15.854 -0.1906  0.5609  0.1399
11747TIP3    H156732   2.307   0.767  15.775 -1.9504 -1.5902 -1.2464
11747TIP3    H256733   2.251   0.673  15.879 -1.5432  0.8861  1.3258
11748TIP3   OH256734   4.130   6.368  15.390 -0.3703  0.4599 -0.3884
11748TIP3    H156735   4.194   6.439  15.383 -0.1925  0.3983  0.4333
11748TIP3    H256736   4.149   6.312  15.316  0.7960  0.2504  0.0381
11749TIP3   OH256737   3.144   5.855  15.049 -0.3418  0.2531 -0.2487
11749TIP3    H156738   3.187   5.803  15.117  0.5313  0.2450 -0.7971
11749TIP3    H256739   3.128   5.940  15.091  1.1218  0.5977 -0.3207
11750TIP3   OH256740   3.253   2.775  12.382  0.0494 -0.2254  0.6183
11750TIP3    H156741   3.187   2.839  12.356  1.2469  1.5059  1.6646
11750TIP3    H256742   3.270   2.793  12.474  3.0952  0.4578  0.0225
11751TIP3   OH256743   6.469   5.899   0.642 -0.0246  0.2645  0.1314
11751TIP3    H156744   6.395   5.958   0.656  1.3517  1.8833  0.9590
11751TIP3    H256745   6.487   5.904   0.548 -0.7406  0.1275 -0.0169
11752TIP3   OH256746   2.981   6.422   1.517  0.2246 -0.5519 -1.1741
11752TIP3    H156747   3.016   6.333   1.520  0.9235 -0.2919 -1.3551
11752TIP3    H256748   2.934   6.427   1.434 -1.2580 -1.2637 -0.4151
11753TIP3   OH256749   2.226   4.194   3.997  0.6670  0.1241 -0.3794
11753TIP3    H156750   2.177   4.214   4.077  1.1181 -1.0209  0.2021
11753TIP3    H256751   2.225   4.276   3.947 -1.8302  0.1605 -0.3956
11754TIP3   OH256752   3.166   4.676   3.794 -0.1188  0.1279 -0.2737
11754TIP3    H156753   3.095   4.623   3.831 -0.0595 -0.7037 -1.3167
11754TIP3    H256754   3.242   4.654   3.847 -0.5432  0.7522  0.6225
11755TIP3   OH256755   6.595   1.558   1.731 -0.1589 -0.0599 -0.2336
11755TIP3    H156756   6.576   1.651   1.726 -0.7222 -0.1537  0.1089
11755TIP3    H256757   6.591   1.537   1.824  2.4030  0.0536 -0.0241
11756TIP3   OH256758   3.740   4.202   4.523  0.0125  0.4530 -0.9254
11756TIP3    H156759   3.758   4.182   4.615 -0.3931  1.4512 -0.6147
11756TIP3    H256760   3.691   4.126   4.491  2.1199 -0.9522 -0.9711
11757TIP3   OH256761   0.556   2.791   3.822  0.0306  0.3254 -0.3137
11757TIP3    H156762   0.603   2.789   3.739 -1.2299 -0.5011 -1.0544
11757TIP3    H256763   0.514   2.877   3.823  0.0211  0.3264 -0.5579
11758TIP3   OH256764   2.322   3.445   4.561 -0.3143 -0.2843  0.0381
11758TIP3    H156765   2.351   3.380   4.625 -2.1242 -0.3349  0.8895
11758TIP3    H256766   2.260   3.398   4.506 -0.2150  0.2515 -0.5358
11759TIP3   OH256767   1.084   0.805  16.629 -0.6068 -0.3014 -0.0114
11759TIP3    H156768   1.136   0.812  16.709 -0.3844 -1.0839 -0.0816
11759TIP3    H256769   1.023   0.732  16.647 -0.1725 -0.8621 -0.7618
11760TIP3   OH256770   0.542   1.082   0.008  0.3977  0.0356 -0.0214
11760TIP3    H156771   0.549   1.091   0.103 -0.3439  0.3948  0.0046
11760TIP3    H256772   0.560   0.989  -0.009  2.4235  0.3190  0.2658
11761TIP3   OH256773   0.650   1.312   4.641  0.2652  0.2430 -0.0606
11761TIP3    H156774   0.568   1.347   4.608  0.1989  0.6050  0.4821
11761TIP3    H256775   0.633   1.219   4.657 -0.1551  0.4015  0.4243
11762TIP3   OH256776   2.785   4.102   6.334 -0.1735  0.6971 -0.2932
11762TIP3    H156777   2.870   4.141   6.313  1.7611 -2.9531  0.0269
11762TIP3    H256778   2.775   4.118   6.428  1.8270 -1.4243  0.3984
11763TIP3   OH256779   3.829   0.564   3.001  0.0579  0.2112 -0.5715
11763TIP3    H156780   3.830   0.469   2.994  0.2262  0.2298 -0.8288
11763TIP3    H256781   3.738   0.589   2.990 -0.2713 -0.0417  1.2504
11764TIP3   OH256782   5.029   6.138  16.936 -0.3419 -0.0710 -0.4696
11764TIP3    H156783   4.939   6.148  16.966 -0.5881 -0.3963 -1.0893
11764TIP3    H256784   5.041   6.044  16.927 -0.1721  0.0033 -1.0753
11765TIP3   OH256785   6.379   4.822   1.551 -0.5081  0.2047 -0.4458
11765TIP3    H156786   6.310   4.815   1.617 -0.1122  0.4096 -0.0119
11765TIP3    H256787   6.400   4.915   1.547  2.4992 -0.2100  2.2962
11766TIP3   OH256788   5.947   0.784   5.432  0.4155 -0.6436 -0.3613
11766TIP3    H156789   5.856   0.756   5.423  0.2361  0.4234 -2.3774
11766TIP3    H256790   5.940   0.878   5.449  1.1295 -0.8205  1.0120
11767TIP3   OH256791   1.072   6.560   5.645  0.2009  0.2967 -0.6304
11767TIP3    H156792   1.090   6.472   5.679 -0.9823  0.4322  0.4307
11767TIP3    H256793   1.156   6.606   5.649  0.5357 -0.3572  0.1334
11768TIP3   OH256794   4.573   3.356   5.800 -0.7164  0.0672 -0.4676
11768TIP3    H156795   4.521   3.331   5.877 -1.9191  0.5233 -1.1035
11768TIP3    H256796   4.656   3.388   5.836 -1.6643  1.2905  0.7199
11769TIP3   OH256797   5.183   6.447  15.074 -0.3774  0.2095 -0.4457
11769TIP3    H156798   5.190   6.497  14.992 -1.8440  0.8472 -0.2135
11769TIP3    H256799   5.118   6.380  15.055 -0.9542  0.5579  0.2851
11770TIP3   OH256800   6.180   0.596  14.687  0.0766  0.2748  0.3467
11770TIP3    H156801   6.245   0.542  14.734 -1.6213 -2.5089 -0.2975
11770TIP3    H256802   6.109   0.607  14.750 -0.9006 -0.8946 -0.5212
11771TIP3   OH256803   5.726   5.102  13.841 -0.4659 -0.7351 -0.4722
11771TIP3    H156804   5.704   5.141  13.926 -0.8335 -1.8526 -0.0340
11771TIP3    H256805   5.784   5.166  13.799  1.4354 -1.0667  1.4738
11772TIP3   OH256806   2.588   0.340   3.304 -0.4887  0.7370  0.2095
11772TIP3    H156807   2.680   0.337   3.277 -0.8599 -0.9804 -0.9945
11772TIP3    H256808   2.579   0.425   3.349  2.3804 -0.2696  3.0163
11773TIP3   OH256809   3.695   2.585   1.158  0.0277  0.4489 -0.5057
11773TIP3    H156810   3.673   2.636   1.236  0.7491 -0.0833  0.0539
11773TIP3    H256811   3.771   2.533   1.183  0.2568  0.2451 -1.5571
11774TIP3   OH256812   2.338   6.495  13.249  0.1197  0.2136  0.1645
11774TIP3    H156813   2.314   6.516  13.159  0.1396  0.4169  0.2056
11774TIP3    H256814   2.333   6.579  13.295 -0.5356  0.0033  0.4974
11775TIP3   OH256815   0.676   0.290  12.974 -0.1361  0.3032 -0.2945
11775TIP3    H156816   0.700   0.368  12.925  0.8443  1.9862  2.6515
11775TIP3    H256817   0.751   0.272  13.029 -1.3915 -1.0941  1.0645
11776TIP3   OH256818   2.283   0.769   3.793 -0.3777  0.4623 -0.1082
11776TIP3    H156819   2.366   0.721   3.796 -0.3554  0.5250  2.2184
11776TIP3    H256820   2.221   0.708   3.754  0.3104 -0.3432  0.0327
11777TIP3   OH256821   3.545   5.353   2.999 -0.0217 -0.2283  0.5290
11777TIP3    H156822   3.592   5.343   2.916 -0.7210 -1.4128  0.2582
11777TIP3    H256823   3.465   5.302   2.988 -0.8787  0.8955  1.3720
11778TIP3   OH256824   4.582   6.668  16.932 -0.2166  0.3885  0.9568
11778TIP3    H156825   4.551   6.727  16.864 -1.2682 -1.2537 -0.0306
11778TIP3    H256826   4.520   6.596  16.933  0.8673 -0.5984  2.3295
11779TIP3   OH256827   0.727   2.159   0.900 -0.2951  0.4472  0.3643
11779TIP3    H156828   0.714   2.110   0.980 -0.3404  1.4575  0.9972
11779TIP3    H256829   0.660   2.228   0.903 -1.2965 -0.4002 -1.2751
11780TIP3   OH256830   5.547   3.501  12.557 -0.0722  0.0023 -0.1177
11780TIP3    H156831   5.504   3.514  12.641 -0.5873  1.4665 -0.5829
11780TIP3    H256832   5.585   3.586  12.535  3.3609 -1.2141  0.3749
11781TIP3   OH256833   5.760   1.500   1.091 -0.3206 -0.7430 -0.0544
11781TIP3    H156834   5.749   1.508   1.185  1.0504  1.0208 -0.0021
11781TIP3    H256835   5.855   1.498   1.077 -0.4658  0.4191 -1.4736
11782TIP3   OH256836   4.980   5.357  11.739 -0.6916  0.3607  0.3778
11782TIP3    H156837   5.005   5.418  11.808 -0.3089  0.5457  0.0838
11782TIP3    H256838   5.064   5.327  11.702 -0.8892  0.2580  0.0038
11783TIP3   OH256839   0.936   5.869  14.509 -0.5120 -0.6358 -0.2409
11783TIP3    H156840   0.979   5.796  14.464 -0.0237 -1.4351  1.4351
11783TIP3    H256841   1.003   5.904  14.568 -0.1971  2.2773 -2.1272
11784TIP3   OH256842   3.631   2.228   3.803 -0.0788  0.4384  0.1486
11784TIP3    H156843   3.671   2.151   3.762  0.1009 -0.1699  1.4398
11784TIP3    H256844   3.579   2.267   3.732 -1.4315 -1.7358 -0.1752
11785TIP3   OH256845   5.668   3.354   2.399 -0.0805  0.6969 -0.2404
11785TIP3    H156846   5.596   3.322   2.454 -0.0479  0.0195 -0.5790
11785TIP3    H256847   5.628   3.421   2.343 -0.5990 -0.1164 -0.8647
11786TIP3   OH256848   0.326   2.063   4.328  0.2753  0.3461 -0.3417
11786TIP3    H156849   0.257   2.027   4.273 -1.2744 -0.2604  1.8593
11786TIP3    H256850   0.299   2.153   4.345  1.1643  0.7898 -1.1656
11787TIP3   OH256851   6.011   5.622  12.046  0.0973  0.0414  0.1341
11787TIP3    H156852   6.097   5.645  12.083  0.8661 -2.1421 -0.1346
11787TIP3    H256853   6.032   5.585  11.960 -1.4786  2.9649 -1.6453
11788TIP3   OH256854   4.359   5.543   0.772 -0.4303 -0.0669 -0.4609
11788TIP3    H156855   4.388   5.575   0.687  1.3125  0.4129  0.2683
11788TIP3    H256856   4.433   5.494   0.806 -0.6758  0.6294  1.2154
11789TIP3   OH256857   6.104   4.962   3.912  0.4764 -0.2403 -0.1392
11789TIP3    H156858   6.051   4.987   3.988 -0.4753  0.1589 -0.8995
11789TIP3    H256859   6.091   4.868   3.903 -0.4264 -0.0938 -0.5269
11790TIP3   OH256860   4.278   0.227  13.187  0.2643 -0.4761  0.2328
11790TIP3    H156861   4.369   0.231  13.158  0.2382 -1.1708  0.0233
11790TIP3    H256862   4.276   0.152  13.247 -0.5938 -1.8022 -1.3852
11791TIP3   OH256863   3.250   1.149   0.450 -0.2636 -0.2311  0.1028
11791TIP3    H156864   3.298   1.210   0.393  0.0850 -2.2680 -1.9435
11791TIP3    H256865   3.165   1.139   0.407 -0.6802 -0.4665  0.9584
11792TIP3   OH256866   2.405   6.747   0.371 -0.1722  0.5170 -0.5714
11792TIP3    H156867   2.473   6.690   0.408 -0.9837 -0.3418 -0.3684
11792TIP3    H256868   2.369   6.793   0.447 -0.3526  0.3896 -0.5810
11793TIP3   OH256869   5.144   1.069  12.692 -0.3419 -0.2965 -0.1484
11793TIP3    H156870   5.198   1.142  12.722 -0.9341 -0.1355  0.5593
11793TIP3    H256871   5.097   1.103  12.616  0.9386 -0.6107 -1.1236
11794TIP3   OH256872   0.820   5.692   5.738  0.0156 -0.3274  0.2886
11794TIP3    H156873   0.749   5.640   5.699 -2.7938  2.6331  1.0607
11794TIP3    H256874   0.827   5.769   5.681  1.2544  0.3636  1.3411
11795TIP3   OH256875   2.513   5.093   4.418 -0.1703  0.6174 -0.1737
11795TIP3    H156876   2.485   5.013   4.463  1.3753  0.6396  0.9174
11795TIP3    H256877   2.435   5.148   4.417  0.0831  1.4651  4.3885
11796TIP3   OH256878   1.195   6.809   4.737  0.7847  0.3128 -0.1120
11796TIP3    H156879   1.252   6.755   4.681  1.7007  2.2105 -1.0798
11796TIP3    H256880   1.109   6.803   4.696  1.0481  0.2008 -0.6606
11797TIP3   OH256881   1.563   3.992   2.457  0.7161 -0.3007  0.3388
11797TIP3    H156882   1.637   4.053   2.456  1.7963 -1.5152 -2.0568
11797TIP3    H256883   1.596   3.913   2.500  0.3183 -0.3177  0.6237
11798TIP3   OH256884   4.366   4.558   3.861  0.0701  0.5722  0.2295
11798TIP3    H156885   4.284   4.515   3.837  0.9364 -0.5266 -0.9635
11798TIP3    H256886   4.377   4.627   3.796  1.5220 -1.2322 -1.5658
11799TIP3   OH256887   2.722   0.769  15.936  0.0656 -0.6831  0.1297
11799TIP3    H156888   2.634   0.742  15.909 -0.9258  2.0400  0.3648
11799TIP3    H256889   2.713   0.794  16.028 -0.1282  3.7877 -0.8785
11800TIP3   OH256890   6.724   1.762  13.473 -0.3802 -0.0054 -0.5248
11800TIP3    H156891   6.715   1.707  13.551 -1.8126 -0.8731 -1.2601
11800TIP3    H256892   6.639   1.804  13.463  0.2631  1.2800 -0.7806
11801TIP3   OH256893   0.717   5.966   1.085  0.8384  0.4014  0.0577
11801TIP3    H156894   0.755   6.053   1.084  1.8535 -0.0361 -0.7708
11801TIP3    H256895   0.714   5.941   1.177  1.7908  0.7766  0.1910
11802TIP3   OH256896   5.498   3.737   4.708 -0.2283  0.4866  0.2674
11802TIP3    H156897   5.565   3.772   4.767  1.3236 -0.4140 -0.8967
11802TIP3    H256898   5.473   3.811   4.653 -0.0830  0.7989  0.6229
11803TIP3   OH256899   3.560   3.862   3.323 -0.0273  0.2061 -0.0991
11803TIP3    H156900   3.528   3.838   3.410  1.6462 -0.1457  0.4535
11803TIP3    H256901   3.581   3.955   3.329  1.9228 -0.2304  0.5111
11804TIP3   OH256902   4.926   4.529   4.716  0.1922 -0.0179  0.3546
11804TIP3    H156903   5.021   4.524   4.714  0.2198  0.3652  0.5640
11804TIP3    H256904   4.901   4.554   4.627  0.2166 -1.1259  0.0237
11805TIP3   OH256905   1.329   2.678  15.109 -0.1903 -0.3770 -0.1180
11805TIP3    H156906   1.286   2.596  15.135 -0.2774 -0.4133 -0.3790
11805TIP3    H256907   1.301   2.693  15.019  1.5353 -1.2258 -0.8597
11806TIP3   OH256908   3.322   1.322   4.865  0.4087 -0.5678 -0.6219
11806TIP3    H156909   3.338   1.228   4.870 -0.1314 -0.7668 -2.1739
11806TIP3    H256910   3.253   1.338   4.930  1.8868 -0.8566  1.1090
11807TIP3   OH256911   0.287   4.254   0.998  0.3390 -0.7324 -0.1341
11807TIP3    H156912   0.230   4.330   0.987  0.8653 -0.0899  1.2912
11807TIP3    H256913   0.232   4.188   1.040  0.1887 -0.7146 -0.3035
11808TIP3   OH256914   5.174   0.811   2.073  0.1610  0.2811 -0.2010
11808TIP3    H156915   5.094   0.764   2.098  0.9077 -0.0008  1.7904
11808TIP3    H256916   5.149   0.903   2.072 -0.1762  0.2051  0.5386
11809TIP3   OH256917   0.820   4.691   0.892  0.1872 -0.3549  0.4746
11809TIP3    H156918   0.821   4.782   0.922  0.4473  0.1356 -0.9385
11809TIP3    H256919   0.765   4.693   0.814  0.6161 -1.3087  0.1396
11810TIP3   OH256920   2.051   3.567   2.177  0.2155 -0.6005 -0.2068
11810TIP3    H156921   2.057   3.537   2.086  0.8550  0.5943 -0.5755
11810TIP3    H256922   2.134   3.612   2.193 -0.7206  1.0631  0.2532
11811TIP3   OH256923   0.159   5.643   5.349 -0.6761  0.3365  0.1852
11811TIP3    H156924   0.097   5.618   5.281 -0.6944  1.4452 -0.2214
11811TIP3    H256925   0.235   5.676   5.302 -1.3773  2.8464  0.6137
11812TIP3   OH256926   4.881   1.179   1.133 -0.0140 -0.3536 -0.1073
11812TIP3    H156927   4.848   1.145   1.217 -0.7085 -0.1904 -0.3085
11812TIP3    H256928   4.963   1.222   1.155 -0.5012  0.2304  0.5927
11813TIP3   OH256929   2.151   1.103   0.704  0.2225 -0.0772  0.0210
11813TIP3    H156930   2.165   1.109   0.609  1.5873 -0.9685  0.1303
11813TIP3    H256931   2.178   1.188   0.738  0.0501  0.1310 -0.3578
11814TIP3   OH256932   5.318   3.711  12.548  0.2042  0.4045 -0.2283
11814TIP3    H156933   5.309   3.619  12.573 -0.0644  0.1722 -1.1609
11814TIP3    H256934   5.239   3.753  12.583  0.5045  0.3655  0.5202
11815TIP3   OH256935   4.243   2.721   4.964 -0.7473  0.2523  1.0940
11815TIP3    H156936   4.239   2.631   4.932 -0.8722  0.8691 -0.7316
11815TIP3    H256937   4.315   2.721   5.028  2.1348 -0.2758 -1.9160
11816TIP3   OH256938   1.638   3.740   2.181  0.4813 -0.2642 -0.4836
11816TIP3    H156939   1.698   3.813   2.163 -0.7774  0.8955 -0.1296
11816TIP3    H256940   1.639   3.731   2.276 -0.6462  0.4478 -0.3850
11817TIP3   OH256941   1.908   5.749  13.249 -0.7459  0.3284 -0.0949
11817TIP3    H156942   1.876   5.671  13.295 -1.2157  0.3609 -0.3610
11817TIP3    H256943   1.985   5.777  13.300 -2.2508  1.4036  1.7216
11818TIP3   OH256944   3.464   6.712  10.943  0.7678  0.3651  0.1807
11818TIP3    H156945   3.472   6.670  11.029  0.2479  0.9775  0.5280
11818TIP3    H256946   3.445   6.803  10.962 -1.4325  0.1165 -0.5669
11819TIP3   OH256947   1.668   5.672  15.044  0.4498  1.0046  0.2681
11819TIP3    H156948   1.698   5.585  15.018  1.2315  1.4793 -0.4671
11819TIP3    H256949   1.692   5.679  15.137 -0.0987  0.2513  0.4804
11820TIP3   OH256950   3.731   6.010   1.220 -0.3857 -0.0436  0.6821
11820TIP3    H156951   3.782   6.044   1.293 -3.3877  1.0123  2.4584
11820TIP3    H256952   3.737   5.915   1.229  0.9649  0.0607  1.0247
11821TIP3   OH256953   2.302   2.328   5.448 -0.1558 -0.0574 -0.4266
11821TIP3    H156954   2.333   2.239   5.430 -1.2338 -0.1128 -2.2426
11821TIP3    H256955   2.343   2.382   5.381  1.0111  0.9791  1.0566
11822TIP3   OH256956   5.643   3.097  16.934  0.0260 -0.4199  0.0279
11822TIP3    H156957   5.616   3.158  17.002 -2.7930 -0.1926 -1.1780
11822TIP3    H256958   5.720   3.138  16.894  1.5189 -0.3798  2.6876
11823TIP3   OH256959   0.465   1.836  16.532  0.4930  0.1950  0.2027
11823TIP3    H156960   0.543   1.874  16.493  0.5181 -0.9498 -0.9292
11823TIP3    H256961   0.488   1.745  16.548 -0.4260 -0.0257  0.3378
11824TIP3   OH256962   5.983   1.466  16.555 -0.0304  0.0166 -0.3055
11824TIP3    H156963   6.075   1.486  16.568 -0.3910  0.4313  2.2990
11824TIP3    H256964   5.951   1.534  16.495  0.9577  1.0436  0.2994
11825TIP3   OH256965   0.691   6.243   3.485 -0.1220 -0.2456 -0.4810
11825TIP3    H156966   0.689   6.234   3.580  3.0110 -1.3799 -0.4189
11825TIP3    H256967   0.695   6.154   3.452  0.0746  0.1593 -1.5995
11826TIP3   OH256968   4.189   4.255  14.228  0.2816  0.0409  0.4741
11826TIP3    H156969   4.217   4.181  14.174 -0.1848 -0.8428  1.4017
11826TIP3    H256970   4.099   4.233  14.253  0.0800  1.0060  0.6374
11827TIP3   OH256971   2.437   4.681   3.879 -0.3067 -0.0369  0.0339
11827TIP3    H156972   2.375   4.752   3.861  0.1013  0.4638  0.5321
11827TIP3    H256973   2.508   4.695   3.816  0.1908  0.5410  0.7006
11828TIP3   OH256974   0.507   3.236   4.984 -0.1568 -0.2132  0.3524
11828TIP3    H156975   0.475   3.310   5.035  0.8851  0.3524  0.1934
11828TIP3    H256976   0.442   3.225   4.915  0.1969  1.2018 -0.2323
11829TIP3   OH256977   5.415   5.775   1.771 -0.6733 -0.6244  0.5274
11829TIP3    H156978   5.331   5.733   1.756  0.3637 -2.3541 -0.8845
11829TIP3    H256979   5.477   5.723   1.720  1.1087  1.1643  0.7409
11830TIP3   OH256980   1.912   6.141  15.495 -0.2407  0.1808 -0.2925
11830TIP3    H156981   1.926   6.235  15.489 -3.0903  0.7222  0.3055
11830TIP3    H256982   1.872   6.127  15.580 -1.4313 -1.3291 -1.0507
11831TIP3   OH256983   2.154   1.653  14.075 -0.1198 -0.0448  0.1104
11831TIP3    H156984   2.167   1.582  14.012  0.9895 -0.3619  0.6708
11831TIP3    H256985   2.178   1.614  14.159  0.5951  1.0146  0.4189
11832TIP3   OH256986   3.743   6.758   5.147 -0.2955 -0.3435 -0.3009
11832TIP3    H156987   3.685   6.682   5.138 -1.2873 -0.0077  2.4553
11832TIP3    H256988   3.809   6.730   5.210 -0.6952  1.0189  0.7856
11833TIP3   OH256989   6.050   1.719   2.419 -0.0196 -0.1406  0.0303
11833TIP3    H156990   5.965   1.759   2.433  0.8681  1.7109  0.4235
11833TIP3    H256991   6.031   1.627   2.399 -2.0763  0.2315  0.1302
11834TIP3   OH256992   4.701   0.245  15.685 -0.0924 -0.5937 -0.0783
11834TIP3    H156993   4.626   0.206  15.640 -0.7113  3.5426 -3.2814
11834TIP3    H256994   4.675   0.250  15.777 -2.5078 -1.8309 -0.6322
11835TIP3   OH256995   5.425   2.551  14.870  0.8452 -0.6697 -0.0031
11835TIP3    H156996   5.494   2.500  14.913 -0.1511 -1.0611  1.1989
11835TIP3    H256997   5.464   2.638  14.858  1.8743 -1.1450 -0.2498
11836TIP3   OH256998   3.995   2.250  15.525 -0.2682  0.0106 -0.3872
11836TIP3    H156999   4.084   2.268  15.556  0.0887 -1.0325 -0.7474
11836TIP3    H257000   3.951   2.210  15.600 -0.1498 -0.2830 -0.4704
11837TIP3   OH257001   6.563   4.958  10.424  0.2493  0.1354 -0.0052
11837TIP3    H157002   6.570   5.024  10.355  1.3335  0.3587  0.3035
11837TIP3    H257003   6.469   4.941  10.431  0.1786 -1.2133 -2.7732
11838TIP3   OH257004   6.788   4.969  16.115 -0.5996  0.6394 -0.1483
11838TIP3    H157005   6.872   4.956  16.072 -0.5822 -0.2326  0.1313
11838TIP3    H257006   6.728   4.991  16.043 -0.1817  1.0993 -0.3681
11839TIP3   OH257007   3.333   1.935   5.406 -0.6355  0.3032 -0.1238
11839TIP3    H157008   3.318   1.915   5.498  0.8521  0.6715  0.2135
11839TIP3    H257009   3.407   1.995   5.405 -1.7297  1.6992 -1.4673
11840TIP3   OH257010   6.731   3.610  16.374 -0.3401 -0.2995 -0.0533
11840TIP3    H157011   6.655   3.552  16.375 -0.9891  0.4944  1.9216
11840TIP3    H257012   6.748   3.629  16.466 -0.2912  2.7574 -0.5718
11841TIP3   OH257013   6.597   2.347  14.044  0.5484 -0.3856  0.1440
11841TIP3    H157014   6.508   2.377  14.060  1.1766  1.1188  1.0097
11841TIP3    H257015   6.623   2.303  14.125  0.6083 -0.8040 -0.0983
11842TIP3   OH257016   1.637   2.906   4.962  0.1208 -0.0060  0.3838
11842TIP3    H157017   1.678   2.821   4.979 -1.2485 -0.8721 -0.4641
11842TIP3    H257018   1.709   2.962   4.932  0.7231 -1.4692 -1.0317
11843TIP3   OH257019   3.506   6.299   5.180 -0.0564  0.6511  0.0577
11843TIP3    H157020   3.504   6.246   5.100 -0.8978  0.9837 -0.1531
11843TIP3    H257021   3.502   6.235   5.251  0.1544  0.3748 -0.1760
11844TIP3   OH257022   3.304   2.753   2.809  0.5484  0.0717  0.0033
11844TIP3    H157023   3.232   2.724   2.754  0.9133 -0.2520 -0.3131
11844TIP3    H257024   3.271   2.831   2.853  0.9362  1.6341 -2.2723
11845TIP3   OH257025   2.609   1.807   4.993 -0.5390 -0.0021  0.0531
11845TIP3    H157026   2.514   1.823   4.994 -0.6590 -0.6643 -0.0946
11845TIP3    H257027   2.645   1.878   4.941 -1.0882 -0.3645 -0.8499
11846TIP3   OH257028   3.952   0.138  14.525 -0.4054  0.5813  0.2792
11846TIP3    H157029   3.929   0.049  14.497 -0.5649  0.5216  0.5915
11846TIP3    H257030   3.885   0.160  14.590 -2.0106  1.9583 -1.7066
11847TIP3   OH257031   2.262   6.025   1.198 -0.7297  0.0443  0.1825
11847TIP3    H157032   2.200   6.004   1.129 -2.8323 -0.8912  2.2143
11847TIP3    H257033   2.310   6.101   1.165 -0.4088 -1.3701 -2.9424
11848TIP3   OH257034   0.984   2.184   0.384 -0.2544  0.3907 -0.0956
11848TIP3    H157035   1.026   2.099   0.396 -0.1120  0.4983  0.1966
11848TIP3    H257036   0.965   2.214   0.474 -1.3484  0.1513 -0.2289
11849TIP3   OH257037   4.305   5.978   2.078  0.7110 -0.1259 -0.1045
11849TIP3    H157038   4.398   5.981   2.055 -0.0154 -0.0377 -3.7092
11849TIP3    H257039   4.289   5.888   2.106  1.8001 -0.2649  0.0741
11850TIP3   OH257040   5.806   4.109  12.070 -0.4736 -0.4679  0.1838
11850TIP3    H157041   5.724   4.065  12.095 -1.3814  1.9766  2.0571
11850TIP3    H257042   5.840   4.143  12.153  0.7828  1.1782 -0.9406
11851TIP3   OH257043   4.081   4.213   3.670 -0.0053  0.2294 -0.1405
11851TIP3    H157044   4.103   4.244   3.582 -1.6895  0.9616 -0.3441
11851TIP3    H257045   4.114   4.281   3.728 -1.6565  1.3444 -0.4446
11852TIP3   OH257046   4.687   1.694   5.122  0.2054 -0.3370 -0.1848
11852TIP3    H157047   4.736   1.688   5.203  2.7786  4.5985 -0.9699
11852TIP3    H257048   4.597   1.714   5.150  0.8755  0.5198  1.5257
11853TIP3   OH257049   5.050   5.392  14.470  0.3900 -0.4509  0.1044
11853TIP3    H157050   4.984   5.366  14.535  0.3167 -1.2123 -0.2548
11853TIP3    H257051   5.131   5.399  14.520  0.3055 -0.8894  0.3117
11854TIP3   OH257052   4.035   4.916  13.663  0.1268 -0.3055 -0.4042
11854TIP3    H157053   3.990   4.893  13.582 -1.3880  0.0730  0.2902
11854TIP3    H257054   4.024   5.011  13.670  0.6291 -0.2727  0.0255
11855TIP3   OH257055   1.632   6.337   3.814 -0.4379  0.6176 -0.3952
11855TIP3    H157056   1.673   6.370   3.733 -0.3314  0.1716 -0.5245
11855TIP3    H257057   1.645   6.243   3.810  0.3319  0.6685  0.5591
11856TIP3   OH257058   5.409   0.264  12.848 -0.2785 -0.4292 -0.8988
11856TIP3    H157059   5.317   0.260  12.824  0.1392 -0.4611 -2.5826
11856TIP3    H257060   5.447   0.328  12.788  0.8429 -0.5641 -0.3629
11857TIP3   OH257061   5.698   6.317  11.345  0.5655  0.0144  0.1633
11857TIP3    H157062   5.682   6.378  11.274 -0.4920 -2.3238 -1.7654
11857TIP3    H257063   5.786   6.283  11.328 -0.7211 -2.6551 -1.9070
11858TIP3   OH257064   3.316   6.635  11.497  0.7192 -0.0867  0.9301
11858TIP3    H157065   3.307   6.598  11.409  1.7038  0.1085  0.7391
11858TIP3    H257066   3.393   6.591  11.534  0.2879 -0.1998  1.7135
11859TIP3   OH257067   5.122   4.711   4.009  0.0108  0.0247 -0.0393
11859TIP3    H157068   5.035   4.677   3.987 -0.7941  0.7677  1.7488
11859TIP3    H257069   5.172   4.706   3.928 -1.9041  0.1684 -1.2797
11860TIP3   OH257070   5.490   6.179   1.885 -0.4149 -0.4025 -0.3945
11860TIP3    H157071   5.480   6.187   1.790 -0.6396 -2.3731 -0.5654
11860TIP3    H257072   5.417   6.124   1.912  0.9680 -1.8286  0.5855
11861TIP3   OH257073   2.879   1.830  11.420 -0.4368 -0.1957 -0.3709
11861TIP3    H157074   2.877   1.819  11.325  0.5637  1.1432 -0.5703
11861TIP3    H257075   2.966   1.864  11.439 -0.9869  0.5742  0.9031
11862TIP3   OH257076   4.540   1.100  14.756 -0.7640 -1.2840 -0.0622
11862TIP3    H157077   4.470   1.164  14.754 -0.1306 -0.5743 -0.0137
11862TIP3    H257078   4.603   1.131  14.690 -0.9419 -2.4329 -0.8067
11863TIP3   OH257079   6.213   1.936  13.128 -0.1175 -0.0923 -0.2975
11863TIP3    H157080   6.211   2.024  13.165  1.7505 -0.3312  0.5145
11863TIP3    H257081   6.174   1.881  13.195  1.6002 -0.2690  0.6299
11864TIP3   OH257082   5.296   4.643  16.864  0.2081 -0.2698  0.0820
11864TIP3    H157083   5.257   4.716  16.815 -0.0797 -2.3069 -3.0164
11864TIP3    H257084   5.270   4.565  16.815  1.4045 -2.4118  2.6153
11865TIP3   OH257085   3.950   1.322   2.081 -0.1176  0.3832  0.4838
11865TIP3    H157086   3.982   1.408   2.053 -0.3740  0.8243  1.4984
11865TIP3    H257087   3.856   1.336   2.096 -0.3227 -0.2857 -0.1129
11866TIP3   OH257088   2.431   2.755  13.005  0.1235 -0.4203  0.6936
11866TIP3    H157089   2.475   2.805  13.074 -0.1524  0.4911  0.2278
11866TIP3    H257090   2.493   2.686  12.982  0.6669 -0.0768  1.1007
11867TIP3   OH257091   4.135   0.854   4.576  0.2008 -0.0137  0.1225
11867TIP3    H157092   4.117   0.934   4.527 -0.1196 -0.9869 -1.4470
11867TIP3    H257093   4.070   0.853   4.646 -1.0608  0.1901 -0.9951
11868TIP3   OH257094   4.431   2.806   3.200  0.0272 -0.3024 -0.9787
11868TIP3    H157095   4.376   2.729   3.185  1.4437 -1.1228 -2.3337
11868TIP3    H257096   4.499   2.775   3.260  0.1280  0.1458 -0.8571
11869TIP3   OH257097   2.241   6.660   3.559  0.4387 -0.5050  0.5528
11869TIP3    H157098   2.331   6.688   3.573  0.0347  1.1708  0.0482
11869TIP3    H257099   2.233   6.648   3.465 -0.0150 -0.0402  0.5268
11870TIP3   OH257100   2.963   6.595   6.633  0.4820  0.2345 -0.2188
11870TIP3    H157101   2.880   6.577   6.589  0.2886  2.1196 -0.7282
11870TIP3    H257102   3.028   6.598   6.562  0.7242  0.2108 -0.0018
11871TIP3   OH257103   0.093   2.389  11.021 -0.4161 -0.5258  0.3109
11871TIP3    H157104   0.142   2.311  11.048 -0.4696 -1.2930 -1.6305
11871TIP3    H257105   0.131   2.413  10.937 -2.1920 -0.0787 -0.4074
11872TIP3   OH257106   5.077   1.332   0.535 -0.2732 -0.0198 -0.4139
11872TIP3    H157107   5.014   1.282   0.588  0.7236 -0.8198  0.0328
11872TIP3    H257108   5.156   1.335   0.588 -0.1493  1.6512 -0.6336
11873TIP3   OH257109   6.814   3.216  14.103  0.0325  0.4678  0.1070
11873TIP3    H157110   6.795   3.264  14.184  1.0177  0.3473  0.4268
11873TIP3    H257111   6.868   3.142  14.131 -0.5539 -0.2118 -0.5285
11874TIP3   OH257112   1.799   1.981  13.209 -0.2763 -0.2744  0.4956
11874TIP3    H157113   1.771   2.015  13.295  0.3279  1.6009  0.0003
11874TIP3    H257114   1.827   2.059  13.161  0.3234 -1.4159 -1.0709
11875TIP3   OH257115   0.405   0.377   6.075  0.3257 -0.1138  0.2990
11875TIP3    H157116   0.381   0.294   6.116  2.3105 -0.9972 -0.2377
11875TIP3    H257117   0.484   0.404   6.120  1.1731  0.1375 -1.2650
11876TIP3   OH257118   6.541   3.481   2.021  0.0600 -0.1255  0.2976
11876TIP3    H157119   6.453   3.519   2.021  0.6550  1.3370 -0.5416
11876TIP3    H257120   6.536   3.410   2.085 -1.0801  1.4408  2.0567
11877TIP3   OH257121   0.491   0.631  11.758 -0.5520  0.1874  0.1198
11877TIP3    H157122   0.570   0.582  11.735  0.1103  1.5282 -0.5308
11877TIP3    H257123   0.472   0.605  11.848  0.2700 -0.6127  0.0792
11878TIP3   OH257124   0.417   3.072   1.155  0.3427  0.4919  0.1121
11878TIP3    H157125   0.330   3.033   1.154  0.8481 -1.0946  3.3821
11878TIP3    H257126   0.403   3.160   1.190  0.0064  0.2343  0.6504
11879TIP3   OH257127   1.867   2.854   2.836 -0.4575  0.1006 -0.0164
11879TIP3    H157128   1.952   2.827   2.868  0.3592  0.3514 -1.8348
11879TIP3    H257129   1.855   2.943   2.870  0.4041  0.3870 -0.4327
11880TIP3   OH257130   1.273   3.100  11.505 -0.0791 -0.3564  0.4809
11880TIP3    H157131   1.245   3.173  11.450 -0.4993 -0.7434  0.1651
11880TIP3    H257132   1.264   3.132  11.595 -1.1726 -0.3307  0.3761
11881TIP3   OH257133   5.553   3.792  14.336  0.1037  0.2613 -0.4247
11881TIP3    H157134   5.639   3.768  14.303  0.3008 -2.5799  1.7652
11881TIP3    H257135   5.506   3.708  14.346 -0.6248  0.9087  4.2190
11882TIP3   OH257136   3.990   0.858   2.836 -0.2258 -0.3118 -0.1299
11882TIP3    H157137   3.910   0.882   2.790  0.1577 -0.3089 -0.8123
11882TIP3    H257138   3.983   0.901   2.921 -0.8899 -0.2100 -0.2321
11883TIP3   OH257139   4.094   3.048   6.447 -0.0779  0.1026 -0.6658
11883TIP3    H157140   4.184   3.058   6.479 -1.4468  1.1056  3.5512
11883TIP3    H257141   4.069   3.136   6.418 -0.1704  0.2179 -0.2499
11884TIP3   OH257142   5.862   1.368   5.102  0.0969  0.2939  0.6552
11884TIP3    H157143   5.855   1.336   5.192  0.7759 -1.4025  0.1391
11884TIP3    H257144   5.771   1.378   5.074 -0.1273  0.1676  1.3104
11885TIP3   OH257145   4.991   6.769  15.390 -0.5087 -0.1419 -0.0324
11885TIP3    H157146   4.997   6.787  15.484  0.4700  0.5204 -0.2044
11885TIP3    H257147   5.065   6.711  15.372 -1.9887 -2.1375 -0.0141
11886TIP3   OH257148   0.459   5.649  16.770  0.4592  0.1387  0.3870
11886TIP3    H157149   0.391   5.702  16.727  1.5216  0.1896 -1.2984
11886TIP3    H257150   0.518   5.623  16.700  1.4295 -1.1016  1.5973
11887TIP3   OH257151   2.205   6.414   5.744  0.3654  0.0771  0.3370
11887TIP3    H157152   2.265   6.444   5.813  1.0071  1.4130 -0.7572
11887TIP3    H257153   2.119   6.442   5.774  0.8150  2.1389 -0.1144
11888TIP3   OH257154   2.565   2.806   2.713 -0.0671 -0.2605 -0.3646
11888TIP3    H157155   2.545   2.770   2.626  1.5546  0.0233 -0.8855
11888TIP3    H257156   2.602   2.892   2.695 -0.6112  0.2076  0.6803
11889TIP3   OH257157   5.496   1.846   0.535  0.1049 -0.9026  0.1819
11889TIP3    H157158   5.463   1.847   0.446 -0.8323  0.2921  0.5212
11889TIP3    H257159   5.475   1.759   0.568 -0.2290 -1.0902 -0.5189
11890TIP3   OH257160   2.948   1.134  15.230 -0.0159  0.4250  0.1312
11890TIP3    H157161   2.860   1.142  15.192 -0.4005 -0.9438  0.6919
11890TIP3    H257162   2.950   1.199  15.300  0.0782  1.7349 -1.0397
11891TIP3   OH257163   3.952   1.306  10.398 -0.8879  0.3686 -0.2129
11891TIP3    H157164   3.916   1.249  10.331  0.1719 -1.1218  0.4412
11891TIP3    H257165   4.014   1.362  10.352  0.4919 -1.2459 -0.3788
11892TIP3   OH257166   5.006   0.669   4.007  0.0498  0.1948 -0.2412
11892TIP3    H157167   4.919   0.638   3.981  0.6313 -0.1544 -1.9774
11892TIP3    H257168   4.990   0.744   4.064 -1.3865  0.2804 -0.7213
11893TIP3   OH257169   5.431   5.177   4.606  0.1844 -0.4228  0.5895
11893TIP3    H157170   5.345   5.180   4.565  0.7228  0.0192 -0.5566
11893TIP3    H257171   5.466   5.266   4.594  1.0553 -0.7759  0.4389
11894TIP3   OH257172   6.290   6.063  12.504 -0.3749  0.4392 -0.0519
11894TIP3    H157173   6.279   5.969  12.493  0.6220  0.1405  1.2479
11894TIP3    H257174   6.358   6.087  12.442  0.8862 -0.1193  1.0575
11895TIP3   OH257175   1.456   5.785  13.821 -0.0857  0.1106 -0.7518
11895TIP3    H157176   1.442   5.839  13.899  1.2397  0.2347 -0.5817
11895TIP3    H257177   1.488   5.701  13.856  1.3516  0.4506 -1.1688
11896TIP3   OH257178   0.995   5.040  10.742  0.3330 -0.4074  0.3019
11896TIP3    H157179   1.069   4.995  10.702  0.0908 -2.5486  2.0437
11896TIP3    H257180   0.923   4.977  10.737 -0.9263  0.9916  0.1151
11897TIP3   OH257181   0.646   0.423  12.090 -0.5762  0.0985  0.1098
11897TIP3    H157182   0.640   0.519  12.091 -0.6583  0.1204 -0.9667
11897TIP3    H257183   0.557   0.393  12.107 -0.5175  0.2022  0.6258
11898TIP3   OH257184   4.461   1.360  16.702  0.1141 -0.3257  0.3553
11898TIP3    H157185   4.524   1.363  16.775 -0.6783 -1.6676  1.1296
11898TIP3    H257186   4.513   1.383  16.625  0.9069  1.5136  1.3602
11899TIP3   OH257187   2.576   0.312   0.788 -0.6186 -0.1820  0.2773
11899TIP3    H157188   2.500   0.336   0.841  0.5253  0.3102  1.7449
11899TIP3    H257189   2.544   0.317   0.697 -2.5659 -0.8756  0.8672
11900TIP3   OH257190   5.588   1.887   4.122  0.3048  0.4533  0.3510
11900TIP3    H157191   5.623   1.960   4.174 -1.6462  0.7293  1.3922
11900TIP3    H257192   5.566   1.926   4.038  0.1989  0.8348  0.5528
11901TIP3   OH257193   3.755   4.972  15.322  0.4903  0.6850 -0.0697
11901TIP3    H157194   3.756   5.064  15.349  1.1684  0.5979  0.2232
11901TIP3    H257195   3.843   4.940  15.344 -0.2036 -0.4359  1.2354
11902TIP3   OH257196   3.389   2.855   0.618  0.0753 -0.4114  0.2653
11902TIP3    H157197   3.295   2.839   0.612 -0.3618  1.7683  0.5091
11902TIP3    H257198   3.416   2.877   0.528  0.0943  0.1838  0.4136
11903TIP3   OH257199   4.061   0.915  12.739 -0.3576  0.0117  0.0668
11903TIP3    H157200   3.969   0.888  12.731 -1.8544  4.2794  0.1702
11903TIP3    H257201   4.075   0.922  12.834  0.2806 -1.0245  0.0661
11904TIP3   OH257202   0.572   0.556   1.473  0.5652 -0.7257  0.1364
11904TIP3    H157203   0.584   0.461   1.470 -0.0720 -0.7951 -0.3640
11904TIP3    H257204   0.527   0.572   1.556 -0.8714 -1.0566 -0.5382
11905TIP3   OH257205   5.738   0.318  16.500 -0.3308 -0.0472 -0.2183
11905TIP3    H157206   5.831   0.303  16.515  0.3634  1.1845 -2.6769
11905TIP3    H257207   5.711   0.242  16.447 -0.0051  0.8269 -1.7178
11906TIP3   OH257208   1.443   0.568   5.115  0.2351  0.5529  0.6122
11906TIP3    H157209   1.513   0.503   5.113 -0.4087 -0.1450 -0.7507
11906TIP3    H257210   1.415   0.570   5.206 -0.9533 -2.4898  0.4404
11907TIP3   OH257211   5.228   4.816   0.883  0.6131 -0.0255  0.2223
11907TIP3    H157212   5.279   4.746   0.842  0.1384  0.1607 -0.7175
11907TIP3    H257213   5.136   4.791   0.868  0.4369  1.0062 -0.5179
11908TIP3   OH257214   3.942   2.738  17.183 -0.4601  0.3872 -0.2515
11908TIP3    H157215   3.855   2.740  17.223 -1.1340  1.2025 -1.6874
11908TIP3    H257216   3.990   2.672  17.234 -1.8821 -0.0237  0.6172
11909TIP3   OH257217   4.780   5.549   0.705 -0.6392 -0.3562 -0.7653
11909TIP3    H157218   4.803   5.527   0.615  0.2209 -0.4220 -0.5350
11909TIP3    H257219   4.771   5.644   0.706  1.2187 -0.1498 -0.5179
11910TIP3   OH257220   6.756   2.951  12.664  0.2179 -0.2776  0.2341
11910TIP3    H157221   6.747   2.856  12.673 -1.8357 -0.1737 -0.1389
11910TIP3    H257222   6.771   2.965  12.570 -0.6726 -0.1903  0.0956
11911TIP3   OH257223   6.337   1.865   0.717 -0.0255  0.3713 -0.5882
11911TIP3    H157224   6.411   1.810   0.691 -1.1043 -0.9958 -0.9356
11911TIP3    H257225   6.375   1.932   0.773  1.4198 -0.5217 -0.4475
11912TIP3   OH257226   2.913   3.601  13.029 -0.0185  0.3104 -0.0875
11912TIP3    H157227   2.900   3.559  12.944 -1.1923 -1.1406  0.7498
11912TIP3    H257228   2.826   3.636  13.051  0.0814 -0.0136  0.8476
11913TIP3   OH257229   2.442   4.836  16.632 -0.2954  0.5308 -0.4749
11913TIP3    H157230   2.506   4.885  16.684  0.4169 -0.5826 -0.2863
11913TIP3    H257231   2.496   4.783  16.572 -1.0727  0.6242 -1.2749
11914TIP3   OH257232   6.116   6.390   5.525  0.0111  0.1193  0.9247
11914TIP3    H157233   6.205   6.355   5.525  0.1008  0.3431  1.2390
11914TIP3    H257234   6.122   6.471   5.475 -0.2803 -0.5082 -0.1658
11915TIP3   OH257235   2.859   0.337  16.439 -0.1241  0.1598  0.6126
11915TIP3    H157236   2.921   0.325  16.511  1.5926  1.2165 -0.6050
11915TIP3    H257237   2.900   0.402  16.382 -0.9911 -1.2063 -1.7657
11916TIP3   OH257238   0.215   1.687  10.669 -0.4211  0.8252 -0.2708
11916TIP3    H157239   0.199   1.593  10.673 -2.1965  1.1312  2.3441
11916TIP3    H257240   0.310   1.695  10.661  0.0375 -1.2353  1.9320
11917TIP3   OH257241   5.574   2.972   1.258 -0.6068 -0.9350 -0.3597
11917TIP3    H157242   5.644   2.958   1.195  1.6703  0.8141  1.6263
11917TIP3    H257243   5.566   3.067   1.264 -3.6947 -1.0342 -0.9667
11918TIP3   OH257244   6.064   3.795  15.020 -0.1192 -0.3170 -0.4726
11918TIP3    H157245   6.003   3.789  14.946 -1.8284 -1.3015  0.9237
11918TIP3    H257246   6.033   3.871  15.070  0.7742  0.1097 -0.5622
11919TIP3   OH257247   3.334   1.363   1.392 -0.1724  0.5163 -0.8657
11919TIP3    H157248   3.423   1.336   1.417 -0.5409  2.0884  2.5774
11919TIP3    H257249   3.335   1.458   1.399 -2.1272  0.5617 -0.8254
11920TIP3   OH257250   4.680   4.059   1.757 -0.0632  0.2391  0.3817
11920TIP3    H157251   4.771   4.062   1.729  0.0716 -1.6086  0.5128
11920TIP3    H257252   4.684   4.058   1.852 -0.2340  0.4492  0.3921
11921TIP3   OH257253   3.809   5.364   1.792 -0.3712  0.4849 -0.1835
11921TIP3    H157254   3.755   5.425   1.841  0.8125 -0.2878  2.2717
11921TIP3    H257255   3.800   5.281   1.839  1.2444 -0.1804 -0.9640
11922TIP3   OH257256   2.308   5.977  12.571  0.3419 -0.3905  0.3202
11922TIP3    H157257   2.329   5.884  12.581 -0.0896 -0.4873  0.3357
11922TIP3    H257258   2.277   6.004  12.658 -1.4402 -0.7300 -0.1746
11923TIP3   OH257259   3.749   5.187   5.114  0.0295  0.2631  0.4715
11923TIP3    H157260   3.810   5.257   5.137 -0.6058  0.4882  1.5306
11923TIP3    H257261   3.742   5.134   5.193  2.1895 -2.3341 -0.9289
11924TIP3   OH257262   0.054   6.629   2.535 -0.6293  0.5997 -0.0194
11924TIP3    H157263   0.029   6.572   2.462 -1.1216  0.9293 -0.1135
11924TIP3    H257264   0.118   6.578   2.585 -0.0514  0.4823 -0.8456
11925TIP3   OH257265   2.082   4.249   0.874 -0.0565  0.2137  0.6893
11925TIP3    H157266   2.120   4.162   0.862 -1.1367 -0.3966  1.5173
11925TIP3    H257267   2.153   4.302   0.910  0.0506 -0.8921  2.1817
11926TIP3   OH257268   2.345   6.337   0.326  0.0895  0.6745 -0.0970
11926TIP3    H157269   2.308   6.414   0.282 -1.7632 -0.1363 -0.0639
11926TIP3    H257270   2.339   6.267   0.261 -1.8712 -0.3281  1.0587
11927TIP3   OH257271   2.814   5.379  15.012  0.3061 -0.2284  0.3252
11927TIP3    H157272   2.897   5.333  15.027  0.8438  0.1770 -1.2107
11927TIP3    H257273   2.838   5.452  14.956 -1.0035  0.2973  0.4359
11928TIP3   OH257274   0.323   5.156  14.946  0.2283  0.0925  0.5132
11928TIP3    H157275   0.232   5.186  14.936  0.5559  0.5295 -1.6969
11928TIP3    H257276   0.367   5.228  14.992 -0.3833  0.1759  0.9822
11929TIP3   OH257277   1.036   5.379   5.993 -0.9453  0.5219 -0.4481
11929TIP3    H157278   1.024   5.347   6.083 -3.6816  0.6022 -0.7037
11929TIP3    H257279   1.005   5.469   5.996 -1.0285  0.5321 -1.4882
11930TIP3   OH257280   1.696   0.229   5.620  0.2597 -0.0857 -0.1372
11930TIP3    H157281   1.782   0.193   5.599  0.6537  0.6970  0.0822
11930TIP3    H257282   1.678   0.197   5.709  1.0750  1.0558  0.4720
11931TIP3   OH257283   3.271   6.733   1.015 -0.2771 -0.4848  0.0162
11931TIP3    H157284   3.220   6.772   1.087  0.3472  0.3217  0.0317
11931TIP3    H257285   3.249   6.640   1.018 -2.2065 -0.0831 -0.3487
11932TIP3   OH257286   6.355   2.408  14.401  0.2283  0.3867  0.3062
11932TIP3    H157287   6.393   2.494  14.383 -0.2178  0.3210 -1.0853
11932TIP3    H257288   6.408   2.347  14.351 -0.7210  0.1112 -0.4001
11933TIP3   OH257289   3.490   4.475  15.541 -0.0250 -0.0992 -0.0027
11933TIP3    H157290   3.496   4.457  15.447 -0.6677 -2.3767  0.3519
11933TIP3    H257291   3.397   4.473  15.560  0.1640 -0.9123  0.8957
11934TIP3   OH257292   0.798   5.372  15.487  0.6080 -0.8652  0.0941
11934TIP3    H157293   0.834   5.454  15.522  0.1480 -0.2203 -0.9008
11934TIP3    H257294   0.705   5.376  15.507  0.3847 -0.6021 -0.9782
11935TIP3   OH257295   6.706   4.510   3.173 -0.4457 -0.1342 -0.2651
11935TIP3    H157296   6.636   4.452   3.205  0.3532  0.1856  2.2905
11935TIP3    H257297   6.666   4.597   3.170  0.1375  0.3473  2.7741
11936TIP3   OH257298   2.034   0.293  13.635  0.0860 -0.3496  0.0218
11936TIP3    H157299   2.076   0.350  13.571 -1.8290  0.9933 -0.1161
11936TIP3    H257300   2.088   0.300  13.713 -0.6035  2.5406  0.3519
11937TIP3   OH257301   3.858   5.608  13.734  0.5773  0.1082 -0.3233
11937TIP3    H157302   3.926   5.673  13.749  0.4808 -0.3119  2.5137
11937TIP3    H257303   3.784   5.658  13.699  1.5949  0.9110 -1.4157
11938TIP3   OH257304   5.275   2.116  12.906 -0.8775  0.2498 -0.5327
11938TIP3    H157305   5.199   2.094  12.853 -0.7145 -0.0440 -0.6471
11938TIP3    H257306   5.240   2.166  12.980 -1.0231  1.2682 -1.2743
11939TIP3   OH257307   0.557   3.743  13.479  0.4343  0.5653  0.2744
11939TIP3    H157308   0.518   3.826  13.451 -3.1374 -1.1923 -0.4903
11939TIP3    H257309   0.541   3.739  13.573  1.5846  1.1262  0.5218
11940TIP3   OH257310   0.746   3.725   3.258 -0.3950 -0.2016 -0.2904
11940TIP3    H157311   0.785   3.673   3.187  1.6589  0.5001  0.2378
11940TIP3    H257312   0.652   3.710   3.251 -0.0459 -2.0199 -1.6715
11941TIP3   OH257313   4.594   3.036   4.468 -0.3587  0.4239 -0.0792
11941TIP3    H157314   4.578   3.087   4.389 -0.5965  0.0355 -0.2825
11941TIP3    H257315   4.654   2.967   4.440  0.9829  1.3212  0.4716
11942TIP3   OH257316   1.635   4.043  17.012 -0.1649 -0.4681 -0.1803
11942TIP3    H157317   1.544   4.034  17.039 -0.2924 -0.8847 -0.7320
11942TIP3    H257318   1.676   4.093  17.082 -0.3293 -2.0461  1.1023
11943TIP3   OH257319   5.344   4.873  13.638  0.3643 -0.2386  0.0125
11943TIP3    H157320   5.414   4.846  13.698  0.3939 -0.5007 -0.1338
11943TIP3    H257321   5.267   4.824  13.667  0.5725 -0.9728 -0.6425
11944TIP3   OH257322   0.943   1.786  14.117 -0.2202  0.4777  0.1490
11944TIP3    H157323   0.862   1.833  14.100 -1.1048 -0.7036  0.8972
11944TIP3    H257324   0.980   1.767  14.031 -0.4726  1.4619 -0.1813
11945TIP3   OH257325   5.493   4.375   3.193 -0.1956 -0.0514 -0.4047
11945TIP3    H157326   5.399   4.368   3.208 -0.0750 -2.1307 -0.3921
11945TIP3    H257327   5.511   4.314   3.121  0.9994  1.1407 -1.1800
11946TIP3   OH257328   6.334   2.578   5.369  0.3486 -0.0527 -0.4326
11946TIP3    H157329   6.429   2.574   5.380  0.3663 -0.5880 -0.7293
11946TIP3    H257330   6.318   2.667   5.336  0.4484  1.0306  2.1915
11947TIP3   OH257331   3.489   0.916  13.429  0.1005 -0.6184  0.0990
11947TIP3    H157332   3.394   0.911  13.418 -0.0825 -0.8835  1.5791
11947TIP3    H257333   3.512   0.837  13.477  0.9951 -0.2777  0.2434
11948TIP3   OH257334   2.218   1.294  16.986  0.0905 -0.1678 -0.0873
11948TIP3    H157335   2.300   1.344  16.989 -0.1011  0.0949  0.9454
11948TIP3    H257336   2.202   1.269  17.077 -1.1741  0.0887 -0.2300
11949TIP3   OH257337   5.742   3.640   3.193  0.6272  0.1500 -0.0329
11949TIP3    H157338   5.674   3.633   3.261 -1.0543  0.9665 -1.5640
11949TIP3    H257339   5.694   3.660   3.113  2.8321  2.8667 -0.8219
11950TIP3   OH257340   5.037   1.072  16.539  0.2333 -0.4179  0.0072
11950TIP3    H157341   5.005   1.017  16.466 -1.9027  0.5183  0.1666
11950TIP3    H257342   5.122   1.104  16.509 -0.5643 -0.1016 -2.0714
11951TIP3   OH257343   0.512   1.167  12.760 -0.3279 -0.3102 -0.3497
11951TIP3    H157344   0.486   1.186  12.670 -0.2547 -0.0533 -0.3174
11951TIP3    H257345   0.495   1.248  12.807 -1.2120 -0.7195  0.0620
11952TIP3   OH257346   3.342   4.965   3.886 -0.4261 -0.1453 -0.4455
11952TIP3    H157347   3.358   4.888   3.941 -0.6211 -0.4503 -0.8134
11952TIP3    H257348   3.371   4.938   3.799 -0.2578  0.2856 -0.5231
11953TIP3   OH257349   0.564   4.758   3.448  0.2141 -0.5305  0.4206
11953TIP3    H157350   0.484   4.800   3.481  1.5070  2.6689 -0.1052
11953TIP3    H257351   0.602   4.715   3.524  0.0678  1.5276  1.7415
11954TIP3   OH257352   5.757   2.100  13.819 -0.5289  0.1307 -0.5308
11954TIP3    H157353   5.819   2.093  13.891 -1.7232  1.0712  0.6420
11954TIP3    H257354   5.777   2.026  13.762  0.2508 -0.8213  0.9260
11955TIP3   OH257355   5.858   4.023   5.653 -0.0752  0.3859  0.1153
11955TIP3    H157356   5.923   4.062   5.711 -0.5713 -0.2302  1.1226
11955TIP3    H257357   5.818   4.098   5.608 -1.4421  1.1740  2.4651
11956TIP3   OH257358   0.804   6.663   3.130 -0.3300  0.4346 -0.2611
11956TIP3    H157359   0.722   6.692   3.089 -0.0008  0.3913 -0.9612
11956TIP3    H257360   0.778   6.592   3.188 -1.0044  1.4364  0.7069
11957TIP3   OH257361   1.154   0.537  16.291 -0.4018  0.3074  0.4502
11957TIP3    H157362   1.117   0.624  16.275 -0.4759  0.2212  0.1474
11957TIP3    H257363   1.082   0.489  16.332 -1.6399 -0.7137 -2.5916
11958TIP3   OH257364   2.146   3.355   0.123 -0.1012 -0.4469  0.0017
11958TIP3    H157365   2.099   3.430   0.086 -1.2579 -1.2941 -0.3112
11958TIP3    H257366   2.144   3.369   0.218  0.9367  0.6192 -0.1174
11959TIP3   OH257367   2.960   2.848  12.493 -0.3840  0.4234  0.5899
11959TIP3    H157368   2.934   2.926  12.542 -1.1191 -0.5808  1.8694
11959TIP3    H257369   3.029   2.808  12.547  0.4632  0.5185 -0.3917
11960TIP3   OH257370   3.479   3.406  11.285 -0.2706  0.3882 -0.3130
11960TIP3    H157371   3.423   3.331  11.307  0.5852 -0.2566 -0.2572
11960TIP3    H257372   3.447   3.435  11.199 -0.3337 -0.3268 -0.5412
11961TIP3   OH257373   3.766   1.287  15.021  0.3099 -0.1583 -0.2672
11961TIP3    H157374   3.753   1.335  14.940  1.4090  0.2818 -0.2033
11961TIP3    H257375   3.843   1.327  15.061  0.2410 -0.8640  0.6276
11962TIP3   OH257376   1.877   5.147  14.763  0.1720  0.3546  0.3038
11962TIP3    H157377   1.852   5.135  14.671  1.2767  2.0901 -0.2625
11962TIP3    H257378   1.840   5.070  14.808 -1.4472  0.0888 -1.3579
11963TIP3   OH257379   3.641   4.660  16.029 -0.1557 -0.5200 -0.1717
11963TIP3    H157380   3.611   4.673  15.939 -0.1903 -1.0775 -0.2452
11963TIP3    H257381   3.648   4.749  16.065 -1.6086 -0.3647 -0.2430
11964TIP3   OH257382   3.581   5.754  15.395  0.3165  0.3483 -0.1257
11964TIP3    H157383   3.653   5.704  15.357  0.5401  1.5885 -1.4514
11964TIP3    H257384   3.623   5.816  15.455  0.5235  1.7215 -1.6084
11965TIP3   OH257385   5.579   5.619   3.475  0.2271  0.0386  0.9368
11965TIP3    H157386   5.632   5.567   3.415 -1.4182  1.1525 -1.6475
11965TIP3    H257387   5.623   5.705   3.477 -1.2171  0.8966 -1.0424
11966TIP3   OH257388   2.162   4.311  15.278  0.7918  0.5466 -0.0588
11966TIP3    H157389   2.181   4.266  15.196 -0.1117  0.7518 -0.3925
11966TIP3    H257390   2.179   4.245  15.346 -1.0436 -0.5421 -0.5594
11967TIP3   OH257391   5.299   6.181   4.638 -0.1401  0.2392  0.1288
11967TIP3    H157392   5.392   6.181   4.662 -0.0025  1.0748 -0.3730
11967TIP3    H257393   5.289   6.105   4.580  0.4172  0.6487 -0.5109
11968TIP3   OH257394   1.057   6.145  12.550 -1.0154  0.1576  0.3172
11968TIP3    H157395   0.974   6.118  12.590 -0.5852  1.5492  2.2908
11968TIP3    H257396   1.120   6.077  12.578 -0.7740  0.9821  1.9050
11969TIP3   OH257397   4.854   6.647  11.580  0.0095  0.1992 -0.0122
11969TIP3    H157398   4.931   6.678  11.629 -0.3151  1.8380 -0.4672
11969TIP3    H257399   4.864   6.685  11.493 -0.8515 -0.3514 -0.3647
11970TIP3   OH257400   1.261   1.023  12.432 -0.2078 -0.1376 -0.4662
11970TIP3    H157401   1.271   0.966  12.508 -2.3232 -0.0901 -0.0699
11970TIP3    H257402   1.336   1.003  12.376  0.8202 -0.9518  1.1330
11971TIP3   OH257403   4.487   5.267  11.431 -0.0162 -0.1806 -0.7037
11971TIP3    H157404   4.466   5.317  11.352  1.6340  0.9501 -0.4920
11971TIP3    H257405   4.574   5.230  11.412  0.5766  0.4348  0.7033
11972TIP3   OH257406   1.585   5.011  17.021 -0.3198  0.0321  0.0898
11972TIP3    H157407   1.652   5.002  16.954 -1.8112  1.2106 -1.6337
11972TIP3    H257408   1.591   5.101  17.051 -1.2136  0.2037 -0.2024
11973TIP3   OH257409   1.865   1.383   6.303  0.3828 -0.3467  0.8051
11973TIP3    H157410   1.787   1.436   6.284  0.3157 -0.2907  1.2155
11973TIP3    H257411   1.939   1.443   6.287  0.2951  0.0022  1.6326
11974TIP3   OH257412   4.073   6.455   1.919 -0.5420  0.1483  0.7568
11974TIP3    H157413   4.108   6.500   1.842 -2.5933  0.8836  0.2019
11974TIP3    H257414   4.093   6.363   1.903  1.0720  0.5192  0.4684
11975TIP3   OH257415   3.757   6.795   1.414 -0.1318  0.1209 -0.1364
11975TIP3    H157416   3.708   6.739   1.353  0.5561 -2.0983  1.2413
11975TIP3    H257417   3.702   6.799   1.492 -0.3373  1.7424 -0.3345
11976TIP3   OH257418   5.822   5.706  11.330  0.0808 -0.4262 -0.3192
11976TIP3    H157419   5.755   5.645  11.364 -1.1264  0.6598 -0.6614
11976TIP3    H257420   5.897   5.650  11.311 -0.1676 -1.4813  1.4941
11977TIP3   OH257421   5.702   3.855  16.170 -0.3517 -0.6027 -0.2769
11977TIP3    H157422   5.645   3.815  16.236 -0.6450  1.4884  0.8397
11977TIP3    H257423   5.780   3.881  16.219 -0.1647  0.1233 -0.9364
11978TIP3   OH257424   1.797   0.751   5.537 -0.1825  0.0941  0.4382
11978TIP3    H157425   1.776   0.657   5.542  0.9814 -0.2438 -0.3996
11978TIP3    H257426   1.739   0.784   5.469 -2.3597  0.5643  2.3959
11979TIP3   OH257427   6.687   4.406   3.832  0.0825  0.2298 -0.2768
11979TIP3    H157428   6.689   4.374   3.741  0.9943 -0.2892 -0.0887
11979TIP3    H257429   6.756   4.472   3.836  0.7220 -0.4540  0.2766
11980TIP3   OH257430   6.199   6.129   2.363 -0.3481  0.0658 -0.4639
11980TIP3    H157431   6.291   6.132   2.338 -0.3762 -0.7635 -0.6756
11980TIP3    H257432   6.163   6.056   2.313 -1.0153  0.0872 -0.0173
11981TIP3   OH257433   5.764   3.829   1.143 -0.1111 -0.0225 -0.4712
11981TIP3    H157434   5.799   3.886   1.212 -0.5082 -0.1967 -0.1154
11981TIP3    H257435   5.841   3.794   1.099  0.1328  1.1605 -1.0104
11982TIP3   OH257436   3.877   2.337  15.285  0.2656 -0.3789 -0.2713
11982TIP3    H157437   3.868   2.431  15.298 -0.9192 -0.6501  1.2078
11982TIP3    H257438   3.936   2.308  15.355  0.7985 -0.7047 -0.8497
11983TIP3   OH257439   6.740   2.476  11.903  0.0313  0.5666  0.1143
11983TIP3    H157440   6.658   2.460  11.855  0.6078 -0.4464 -0.5691
11983TIP3    H257441   6.807   2.430  11.852  0.7621 -0.0308  1.5538
11984TIP3   OH257442   3.597   1.123   5.277 -0.0629 -0.3197 -0.0776
11984TIP3    H157443   3.618   1.163   5.361 -0.9578  0.2367 -0.1027
11984TIP3    H257444   3.658   1.164   5.215  0.8340 -0.9882  0.3472
11985TIP3   OH257445   5.486   0.528   2.289  0.0097  0.3453 -1.0052
11985TIP3    H157446   5.551   0.577   2.339 -1.9044  1.3083  0.6774
11985TIP3    H257447   5.454   0.461   2.350  0.5728 -1.2156 -2.3598
11986TIP3   OH257448   6.131   2.355  15.191 -0.1938 -0.0355  0.1041
11986TIP3    H157449   6.168   2.302  15.120  1.8529  0.2758  0.8699
11986TIP3    H257450   6.178   2.327  15.269 -0.9881  1.0287  1.0019
11987TIP3   OH257451   0.524   0.500  14.002 -0.4891 -0.3549  0.3900
11987TIP3    H157452   0.498   0.474  14.090 -1.3931 -0.7639  0.0189
11987TIP3    H257453   0.444   0.491  13.950  0.7033 -3.3195 -1.1810
11988TIP3   OH257454   4.021   6.292  15.108 -0.0241 -0.2625 -0.0058
11988TIP3    H157455   3.932   6.300  15.073 -0.3280  2.3363  1.1625
11988TIP3    H257456   4.027   6.200  15.135 -1.9785 -0.7521 -1.0171
11989TIP3   OH257457   2.987   0.444  15.513  0.0364 -0.0218 -0.1491
11989TIP3    H157458   3.054   0.381  15.487 -1.2737 -0.7003 -2.1229
11989TIP3    H257459   3.029   0.530  15.499  1.4147 -0.3837  1.3983
11990TIP3   OH257460   2.354   6.032  15.641 -0.0309 -0.1068 -0.0152
11990TIP3    H157461   2.435   5.981  15.650  0.5559  0.7125 -0.4643
11990TIP3    H257462   2.354   6.062  15.550 -2.4149 -2.6221 -0.9702
11991TIP3   OH257463   4.538   2.470   1.709 -0.0627  0.0078  0.5784
11991TIP3    H157464   4.620   2.422   1.694  1.8221  2.7800  1.2912
11991TIP3    H257465   4.525   2.464   1.804 -0.0145  0.5806  0.6214
11992TIP3   OH257466   0.353   0.604   1.999 -0.2877  0.2004 -0.5245
11992TIP3    H157467   0.394   0.649   2.073  0.8805  1.1303 -1.6971
11992TIP3    H257468   0.259   0.616   2.013 -0.3004 -1.8488  2.1400
11993TIP3   OH257469   2.130   1.976  12.784 -0.2584 -0.3306  0.4809
11993TIP3    H157470   2.181   2.056  12.775 -1.5932  0.3079 -3.7016
11993TIP3    H257471   2.039   2.006  12.794 -0.7937 -1.2110 -1.3086
11994TIP3   OH257472   1.772   0.073  13.309 -0.5381 -0.2799 -0.5633
11994TIP3    H157473   1.709   0.049  13.242 -0.2576  0.7217 -1.2040
11994TIP3    H257474   1.810   0.155  13.279 -1.3998  0.9466  1.4805
11995TIP3   OH257475   6.615   4.964  11.766 -0.2561  0.0125  0.2267
11995TIP3    H157476   6.620   4.869  11.754  0.6769 -0.0562  1.0105
11995TIP3    H257477   6.657   5.001  11.689  0.5579 -0.2570  0.5317
11996TIP3   OH257478   5.607   2.049  16.362  0.0257  0.3156 -0.1160
11996TIP3    H157479   5.676   2.116  16.358 -1.8925  2.3529 -0.6598
11996TIP3    H257480   5.565   2.064  16.447  2.1413 -3.0537  1.7806
11997TIP3   OH257481   5.261   4.588  15.717  0.3432  0.5885 -0.2446
11997TIP3    H157482   5.233   4.633  15.637  0.5826  0.3152 -0.4912
11997TIP3    H257483   5.202   4.618  15.785 -0.3384  0.2573 -0.6841
11998TIP3   OH257484   1.585   4.573  14.648  0.7031 -0.0060  0.2933
11998TIP3    H157485   1.522   4.644  14.662  1.6208  0.9577 -0.2913
11998TIP3    H257486   1.575   4.517  14.724 -0.2397  0.6103  0.6410
11999TIP3   OH257487   3.476   3.807   3.916 -0.2568  0.6756  0.2610
11999TIP3    H157488   3.517   3.846   3.839  1.3983  0.5489  1.0457
11999TIP3    H257489   3.545   3.802   3.982 -1.3230 -0.3024  1.3849
12000TIP3   OH257490   2.791   6.203   0.363  0.2753 -0.3608 -0.0065
12000TIP3    H157491   2.757   6.115   0.376 -1.4056  0.2566  0.1573
12000TIP3    H257492   2.853   6.195   0.291 -1.3653 -1.3486 -1.3749
12001TIP3   OH257493   2.668   2.974  16.096 -0.0155 -0.5972  0.6323
12001TIP3    H157494   2.668   2.984  16.191 -1.1839  0.5560  0.5414
12001TIP3    H257495   2.585   3.012  16.068  0.7976  0.1245 -0.9463
12002TIP3   OH257496   6.003   2.328  14.270 -0.3067 -0.3134 -0.4475
12002TIP3    H157497   6.028   2.416  14.299 -0.9390  0.5038 -2.2320
12002TIP3    H257498   5.965   2.287  14.348  0.3964  0.8252  0.5316
12003TIP3   OH257499   0.803   2.879  11.952 -0.0299  0.4529 -0.4099
12003TIP3    H157500   0.731   2.822  11.979 -0.9482  2.1132  0.8229
12003TIP3    H257501   0.781   2.903  11.861 -1.9343  2.1228  0.3953
12004TIP3   OH257502   5.807   0.995   4.495  0.1334  0.0623 -0.0502
12004TIP3    H157503   5.740   1.037   4.441  1.4026  0.2006 -1.6203
12004TIP3    H257504   5.770   0.909   4.516 -1.0284  0.5963  0.1681
12005TIP3   OH257505   1.829   5.102   2.083 -0.0383 -0.1610 -0.1598
12005TIP3    H157506   1.872   5.183   2.109 -1.4542  0.6560 -0.2305
12005TIP3    H257507   1.887   5.033   2.114  0.1867  0.8420  1.8066
12006TIP3   OH257508   4.090   2.105   2.249 -0.2277 -0.2892 -0.2474
12006TIP3    H157509   4.012   2.161   2.248  0.0198  0.3192  2.8655
12006TIP3    H257510   4.158   2.157   2.205 -0.7067  0.6939  0.1388
12007TIP3   OH257511   4.821   6.237  12.002 -0.0560 -0.2973  0.2438
12007TIP3    H157512   4.851   6.156  12.044 -0.3285 -0.5486 -0.0373
12007TIP3    H257513   4.854   6.232  11.913  0.5309  0.2431  0.4322
12008TIP3   OH257514   6.281   1.480   2.465 -0.0682 -0.3206 -0.4249
12008TIP3    H157515   6.241   1.538   2.400  1.8956  0.6557 -0.8578
12008TIP3    H257516   6.287   1.533   2.544  0.1816 -0.5007 -0.3220
12009TIP3   OH257517   1.319   3.399  11.556 -0.4039  0.3409 -0.2622
12009TIP3    H157518   1.316   3.367  11.466  0.7260  0.0097 -0.1907
12009TIP3    H257519   1.297   3.492  11.549 -0.8932  0.1908 -0.8034
12010TIP3   OH257520   5.047   4.425  15.480 -0.1256 -0.5905 -0.2251
12010TIP3    H157521   5.007   4.464  15.402 -2.8600 -0.4211  1.1342
12010TIP3    H257522   5.111   4.489  15.509 -1.6143  1.0296 -0.3737
12011TIP3   OH257523   4.103   1.659  11.458 -0.3877  0.2882  0.4790
12011TIP3    H157524   4.045   1.632  11.529 -0.8145 -3.1926 -0.9773
12011TIP3    H257525   4.190   1.664  11.499 -0.7947 -0.5202  1.4955
12012TIP3   OH257526   2.509   3.354   1.649  0.3332 -0.4464 -0.1183
12012TIP3    H157527   2.531   3.416   1.579  0.1281  0.9416  0.9781
12012TIP3    H257528   2.474   3.278   1.604  0.4476  0.3047 -1.5341
12013TIP3   OH257529   6.041   4.863  13.580  0.1043  0.0030 -0.1705
12013TIP3    H157530   6.134   4.847  13.594  0.4615  1.1346 -1.1219
12013TIP3    H257531   6.020   4.814  13.501 -0.5538 -1.6727  0.9800
12014TIP3   OH257532   6.454   1.664  13.769 -0.4848  0.1957  0.2251
12014TIP3    H157533   6.479   1.575  13.794 -0.1456  0.3678  0.4966
12014TIP3    H257534   6.527   1.719  13.797 -1.5236  0.8207  1.8257
12015TIP3   OH257535   4.642   6.099   1.672 -0.1718 -0.6053 -0.2831
12015TIP3    H157536   4.671   6.166   1.610 -0.4963 -0.8929 -0.7505
12015TIP3    H257537   4.720   6.077   1.721  0.1135 -0.4500 -0.6613
12016TIP3   OH257538   1.071   3.710  16.746 -0.0312 -0.5617 -0.4311
12016TIP3    H157539   1.053   3.735  16.837 -0.3909  1.2170 -0.9481
12016TIP3    H257540   1.072   3.614  16.747 -3.4870 -0.7236  0.8132
12017TIP3   OH257541   3.576   5.393  16.656 -0.0575 -0.5640  0.4900
12017TIP3    H157542   3.606   5.329  16.591  0.9800  0.5731 -0.1851
12017TIP3    H257543   3.486   5.413  16.629  0.5978  0.4368 -1.0750
12018TIP3   OH257544   5.201   6.005  12.299 -0.4826 -0.6327  0.6976
12018TIP3    H157545   5.256   5.954  12.359  2.4203  0.5843 -0.7409
12018TIP3    H257546   5.198   6.092  12.337  1.4145  0.1612 -0.8103
12019TIP3   OH257547   6.069   5.241  13.467 -0.4226 -0.9491  0.0975
12019TIP3    H157548   6.099   5.203  13.384  0.4011 -0.9047  0.3613
12019TIP3    H257549   5.978   5.215  13.474 -0.5002 -0.9657 -0.8181
12020TIP3   OH257550   5.302   3.805  17.040 -0.3498  0.5001 -0.0416
12020TIP3    H157551   5.394   3.830  17.047 -0.4834  0.7408  1.0120
12020TIP3    H257552   5.254   3.885  17.061 -0.7939  0.2426 -0.0772
12021TIP3   OH257553   6.678   3.317  15.865  0.4881  0.1453 -0.0173
12021TIP3    H157554   6.744   3.363  15.813 -0.8521  0.4801 -1.4842
12021TIP3    H257555   6.605   3.378  15.871 -1.6302 -1.8394 -2.5899
12022TIP3   OH257556   6.098   6.754  16.361 -0.0047 -0.0494 -0.6853
12022TIP3    H157557   6.145   6.821  16.310 -0.2332 -0.5263 -1.5484
12022TIP3    H257558   6.096   6.678  16.303 -0.5654 -0.5035 -0.0756
12023TIP3   OH257559   0.435   4.359   1.229  0.0645 -0.1420 -0.0874
12023TIP3    H157560   0.350   4.325   1.203 -0.0558 -1.4258  1.8089
12023TIP3    H257561   0.418   4.411   1.307  0.9248  0.3702 -0.2119
12024TIP3   OH257562   4.143   6.266  12.159 -0.1142 -0.2285 -0.3067
12024TIP3    H157563   4.194   6.198  12.203  0.8008  1.2574  0.9854
12024TIP3    H257564   4.117   6.225  12.076 -0.9504 -2.7212  1.0605
12025TIP3   OH257565   1.981   1.225  16.042 -0.0175  0.0878  0.5020
12025TIP3    H157566   2.057   1.254  16.092 -0.5555  1.1808  0.7210
12025TIP3    H257567   1.998   1.254  15.953  0.3012 -0.6139  0.3307
12026TIP3   OH257568   2.570   5.861   2.526 -0.5052  0.2167 -0.7831
12026TIP3    H157569   2.529   5.858   2.440  1.2436 -4.9650 -1.8292
12026TIP3    H257570   2.531   5.788   2.574 -0.0198  1.7471  2.2077
12027TIP3   OH257571   2.425   0.163  15.493 -0.5906  0.6943 -0.0975
12027TIP3    H157572   2.356   0.212  15.539 -1.6702 -0.7212 -0.1100
12027TIP3    H257573   2.379   0.119  15.421  0.6067  0.8312 -0.9704
12028TIP3   OH257574   6.755   2.211  16.649 -0.2295  0.2572  0.0882
12028TIP3    H157575   6.746   2.115  16.651  1.7489  0.0130 -0.5466
12028TIP3    H257576   6.808   2.232  16.726 -0.9693  0.9062  0.4324
12029TIP3   OH257577   0.244   2.280   3.610 -0.2760  0.4153  0.0358
12029TIP3    H157578   0.208   2.223   3.542  0.7874  0.5033 -0.6198
12029TIP3    H257579   0.246   2.225   3.688  0.5454 -0.4081 -0.5337
12030TIP3   OH257580   5.602   4.279   4.812  0.2788 -0.0286 -0.1633
12030TIP3    H157581   5.610   4.195   4.768  0.7838  0.6515 -1.4375
12030TIP3    H257582   5.646   4.267   4.896  2.2414 -0.4545 -1.1992
12031TIP3   OH257583   4.447   5.436  14.773  0.8227 -0.4237 -0.1618
12031TIP3    H157584   4.434   5.508  14.712 -1.8707  0.1802  0.9921
12031TIP3    H257585   4.394   5.365  14.739  2.2528 -1.3953 -0.4635
12032TIP3   OH257586   6.686   5.784   4.641  0.1845 -0.1208  0.3800
12032TIP3    H157587   6.739   5.863   4.634 -0.1339  0.1114  0.5695
12032TIP3    H257588   6.613   5.809   4.698 -0.8217 -0.0681 -0.8953
12033TIP3   OH257589   4.714   1.963   5.838 -0.3113 -0.3565  0.2739
12033TIP3    H157590   4.798   1.987   5.878  0.2062  1.3886 -1.7204
12033TIP3    H257591   4.658   2.039   5.854 -1.0746 -0.9372  0.3698
12034TIP3   OH257592   5.190   4.972   3.121  0.1919  0.2322  0.0221
12034TIP3    H157593   5.176   4.881   3.095 -2.8906 -0.6563  3.9739
12034TIP3    H257594   5.162   5.023   3.045  1.2277 -1.9858 -1.9968
12035TIP3   OH257595   2.214   6.678  11.021  0.0342  0.7326  0.5481
12035TIP3    H157596   2.226   6.600  10.967  2.1598  0.5417  1.2067
12035TIP3    H257597   2.188   6.746  10.959  0.2240 -0.0115 -0.3692
12036TIP3   OH257598   5.551   1.936   3.094 -0.4250  0.0905 -0.3928
12036TIP3    H157599   5.510   1.853   3.069 -0.8479  0.4747 -1.0124
12036TIP3    H257600   5.515   2.000   3.032  0.0796  0.6917 -0.0780
12037TIP3   OH257601   0.521   4.696  15.577 -0.2449  0.2628  0.5169
12037TIP3    H157602   0.465   4.619  15.586  0.5469 -0.1279  2.5173
12037TIP3    H257603   0.598   4.664  15.529 -0.2543 -0.0034  0.6784
12038TIP3   OH257604   5.202   5.245  15.510  0.0581 -0.3847 -0.0700
12038TIP3    H157605   5.208   5.332  15.472  0.0258  0.7097  2.3080
12038TIP3    H257606   5.274   5.240  15.572 -0.1508 -1.9211  0.0998
12039TIP3   OH257607   2.593   0.067   1.327  0.3435  0.2893 -0.0685
12039TIP3    H157608   2.594   0.041   1.419 -0.0125 -1.1072 -0.4349
12039TIP3    H257609   2.671   0.026   1.289 -1.5155 -2.5393 -1.1994
12040TIP3   OH257610   3.329   2.055   2.958  0.2256 -0.3665 -0.1087
12040TIP3    H157611   3.382   2.133   2.944 -2.1745  1.6193  1.1529
12040TIP3    H257612   3.299   2.030   2.871 -2.7009  3.0185 -0.2894
12041TIP3   OH257613   5.811   2.210  16.253  0.7154 -0.5413  0.2976
12041TIP3    H157614   5.839   2.301  16.259 -0.0068 -0.2262 -0.7805
12041TIP3    H257615   5.725   2.214  16.210 -0.5487 -1.5314  2.5386
12042TIP3   OH257616   6.524   2.525   6.276 -0.2842 -0.3479 -0.1711
12042TIP3    H157617   6.584   2.542   6.348 -1.3478 -1.1446  0.9600
12042TIP3    H257618   6.462   2.598   6.278  0.0206 -0.0671 -0.6703
12043TIP3   OH257619   3.520   2.812  16.477  0.0348  0.2348 -0.2243
12043TIP3    H157620   3.437   2.858  16.465 -0.2395 -0.2494 -0.2382
12043TIP3    H257621   3.494   2.724  16.506  0.5474  0.1216 -0.1006
12044TIP3   OH257622   1.742   2.990  15.218  0.2553 -0.0078  0.1804
12044TIP3    H157623   1.726   2.976  15.125 -0.9127  0.6328  0.2689
12044TIP3    H257624   1.827   2.949  15.234 -0.2281 -1.4956 -0.8397
12045TIP3   OH257625   5.109   3.473  10.355 -0.0264  0.5510 -0.1956
12045TIP3    H157626   5.093   3.536  10.425 -0.6698 -1.0627  1.1706
12045TIP3    H257627   5.022   3.457  10.318 -0.1184 -0.6780  0.5105
12046TIP3   OH257628   3.577   2.099  13.821  0.1348 -0.6487  0.0700
12046TIP3    H157629   3.500   2.114  13.875  1.0394  0.0073  1.1988
12046TIP3    H257630   3.619   2.023  13.861  2.3953  1.5592  2.2059
12047TIP3   OH257631   6.536   5.841   2.434 -0.0749  0.0182  0.1543
12047TIP3    H157632   6.474   5.842   2.507 -0.1222 -0.4896  0.1225
12047TIP3    H257633   6.622   5.835   2.475 -0.0199  1.0841  0.2112
12048TIP3   OH257634   5.023   5.645  14.351 -0.1602 -0.1747 -0.0157
12048TIP3    H157635   4.979   5.705  14.410  1.0784  0.4255  0.3385
12048TIP3    H257636   4.997   5.558  14.382 -0.7192  0.1502  0.4569
12049TIP3   OH257637   3.768   0.890  17.168  0.4121 -0.4953  0.5762
12049TIP3    H157638   3.739   0.902  17.077  0.8439 -2.3246  0.1532
12049TIP3    H257639   3.695   0.922  17.221  0.3959  1.1831 -0.3709
12050TIP3   OH257640   4.156   1.149   1.743 -0.3057  0.1793 -0.2965
12050TIP3    H157641   4.197   1.204   1.810  0.9244 -2.1509  1.0141
12050TIP3    H257642   4.064   1.173   1.745  0.3489  3.0717 -0.7543
12051TIP3   OH257643   1.778   4.648  10.999 -0.0641 -0.0396 -0.5538
12051TIP3    H157644   1.862   4.659  10.955  1.0595  0.8176  1.6574
12051TIP3    H257645   1.746   4.737  11.013 -0.5139 -0.2936  0.1076
12052TIP3   OH257646   4.821   4.240   4.418  0.0353  0.1327 -0.6538
12052TIP3    H157647   4.755   4.182   4.457 -0.5001  1.2530  0.1770
12052TIP3    H257648   4.871   4.273   4.492  1.3086 -0.4070 -1.2477
12053TIP3   OH257649   3.220   5.524   3.306  0.0630  0.1073  0.3461
12053TIP3    H157650   3.139   5.513   3.355 -0.2710  1.2663  0.0911
12053TIP3    H257651   3.217   5.457   3.237  0.4125 -1.3519  1.7040
12054TIP3   OH257652   4.096   1.502   0.558  0.7022 -1.1183 -0.6515
12054TIP3    H157653   4.091   1.459   0.643  1.9677  1.8636  1.0893
12054TIP3    H257654   4.088   1.596   0.578  1.1067 -0.2997 -3.8231
12055TIP3   OH257655   4.207   0.617  15.517  0.1994 -0.5543 -0.5444
12055TIP3    H157656   4.168   0.605  15.604  1.2441 -0.3229 -0.0186
12055TIP3    H257657   4.233   0.529  15.489  1.7227 -0.4248  0.3154
12056TIP3   OH257658   0.157   4.528   4.471 -0.0609 -0.5707 -0.2631
12056TIP3    H157659   0.083   4.509   4.529  0.4868  1.2799  1.1327
12056TIP3    H257660   0.234   4.498   4.520  0.3488  0.2734 -0.3778
12057TIP3   OH257661   0.782   2.501  13.919 -0.8051 -0.1836 -0.0898
12057TIP3    H157662   0.740   2.585  13.935  0.0407  0.2345  0.0277
12057TIP3    H257663   0.795   2.499  13.824  1.9435  1.2556  0.1408
12058TIP3   OH257664   3.086   1.800   0.756  0.0493  0.4758 -0.6315
12058TIP3    H157665   3.118   1.867   0.816 -1.1057  1.1856 -0.7772
12058TIP3    H257666   3.082   1.720   0.808  2.2384  0.2858 -0.6676
12059TIP3   OH257667   6.522   0.951  15.139  0.3134  0.0776 -0.6519
12059TIP3    H157668   6.448   1.001  15.103  0.3851  0.2709 -0.5295
12059TIP3    H257669   6.599   0.988  15.096  0.2270 -1.1084 -1.9035
12060TIP3   OH257670   3.474   4.250   3.907  0.2150  0.0550 -0.2616
12060TIP3    H157671   3.477   4.193   3.984 -1.6541 -0.2821 -0.3875
12060TIP3    H257672   3.552   4.226   3.857 -0.6907 -2.7426 -0.5100
12061TIP3   OH257673   0.732   4.794   1.535 -0.0377  0.0485  0.1254
12061TIP3    H157674   0.735   4.699   1.547  0.3988  0.3237  2.7762
12061TIP3    H257675   0.782   4.829   1.608 -1.8319  2.3771  0.3642
12062TIP3   OH257676   1.691   0.846   0.293  0.1440 -0.3514 -0.3204
12062TIP3    H157677   1.646   0.789   0.355  1.7157 -1.6116 -0.2495
12062TIP3    H257678   1.775   0.865   0.335  0.6193  0.0358 -1.4089
12063TIP3   OH257679   5.248   4.312  11.153  0.5933 -0.0107 -0.1036
12063TIP3    H157680   5.334   4.270  11.160 -0.2043 -1.4494  2.0367
12063TIP3    H257681   5.256   4.390  11.209  0.7774  0.4128 -0.7055
12064TIP3   OH257682   4.481   1.437  11.883  0.3442  0.2254 -0.4397
12064TIP3    H157683   4.433   1.362  11.917 -0.6232  0.4968 -1.1663
12064TIP3    H257684   4.522   1.404  11.802  0.7328  0.2145 -0.2409
12065TIP3   OH257685   0.618   5.962  16.433  0.6110  0.3383 -0.3146
12065TIP3    H157686   0.570   6.007  16.503  0.5474  1.3629 -0.9947
12065TIP3    H257687   0.564   5.976  16.355  1.6465  0.8998 -0.9511
12066TIP3   OH257688   3.592   0.123   0.523 -0.2627  0.0929 -0.1237
12066TIP3    H157689   3.680   0.131   0.485 -0.6609  1.7352 -0.7667
12066TIP3    H257690   3.547   0.204   0.499 -1.0129  0.6360  2.7010
12067TIP3   OH257691   3.507   2.072  11.027 -0.0598 -0.1588 -0.3359
12067TIP3    H157692   3.414   2.072  11.050  0.1933 -0.1481  0.7170
12067TIP3    H257693   3.521   1.987  10.984 -0.4811 -0.3004 -0.1970
12068TIP3   OH257694   4.193   6.404   5.615 -0.1544  0.2389  0.1255
12068TIP3    H157695   4.130   6.343   5.576  0.8548 -0.2699 -0.7678
12068TIP3    H257696   4.268   6.349   5.638 -0.4306  0.6439  2.2106
12069TIP3   OH257697   2.739   6.591   3.703  0.0202 -0.2267 -0.2089
12069TIP3    H157698   2.746   6.506   3.660 -0.1749  0.4182 -1.5805
12069TIP3    H257699   2.829   6.621   3.715  0.0774 -0.4700 -0.0286
12070TIP3   OH257700   4.681   1.450   3.517 -0.0527 -0.4627 -0.5857
12070TIP3    H157701   4.621   1.391   3.471 -1.6579  0.6440  0.0174
12070TIP3    H257702   4.738   1.485   3.448 -2.1646  0.8762 -1.7422
12071TIP3   OH257703   3.600   0.975   0.792 -0.2225 -0.2470 -0.0306
12071TIP3    H157704   3.617   1.045   0.729  0.5351 -2.7971 -2.9317
12071TIP3    H257705   3.505   0.966   0.794 -0.2465 -0.8612 -1.8387
12072TIP3   OH257706   0.156   2.908   2.598 -0.3598 -0.1237  0.3606
12072TIP3    H157707   0.163   2.964   2.676 -0.2815  1.7439 -0.9290
12072TIP3    H257708   0.210   2.952   2.532 -0.2226 -1.7996 -0.7021
12073TIP3   OH257709   0.404   4.296  13.342 -0.1025  0.3603  0.3963
12073TIP3    H157710   0.495   4.323  13.359  0.1067 -0.6849  1.0799
12073TIP3    H257711   0.355   4.330  13.416 -0.2049  0.6188  0.2095
12074TIP3   OH257712   4.959   1.763  15.354 -0.2468  0.8874  0.1529
12074TIP3    H157713   5.043   1.798  15.383 -0.5530  1.1370  0.7799
12074TIP3    H257714   4.951   1.789  15.263 -0.1754  1.9069  0.4261
12075TIP3   OH257715   5.806   2.248  14.465  0.2864 -0.2930  0.7311
12075TIP3    H157716   5.735   2.195  14.427  0.9258 -0.3533 -0.4227
12075TIP3    H257717   5.765   2.333  14.483 -0.2219 -0.5089  0.6228
12076TIP3   OH257718   2.841   1.358  13.830  0.4315 -0.3787  0.1584
12076TIP3    H157719   2.878   1.435  13.786  0.8989 -0.5343  0.2729
12076TIP3    H257720   2.851   1.287  13.767 -0.6803 -0.1993 -0.2405
12077TIP3   OH257721   1.853   3.612   6.572  0.8234 -0.0695 -0.0245
12077TIP3    H157722   1.893   3.699   6.575  1.5456 -0.4177  0.9692
12077TIP3    H257723   1.760   3.628   6.593  0.9259  0.4724  0.0381
12078TIP3   OH257724   5.818   5.591   1.303 -0.2845 -0.1735 -0.6350
12078TIP3    H157725   5.749   5.636   1.351  0.8802  1.6633 -0.5989
12078TIP3    H257726   5.832   5.510   1.352  0.8261  1.5888  2.1960
12079TIP3   OH257727   6.521   3.942   0.545  0.1657  0.8631 -0.5919
12079TIP3    H157728   6.500   3.929   0.637  1.6204  0.6603 -0.2673
12079TIP3    H257729   6.439   3.925   0.499 -0.2171 -0.5663  0.5490
12080TIP3   OH257730   4.684   3.829  15.312  0.1728 -0.1907  0.4480
12080TIP3    H157731   4.692   3.753  15.253  2.3749  1.2115 -1.2611
12080TIP3    H257732   4.774   3.845  15.341 -0.4191  1.1296  1.6285
12081TIP3   OH257733   6.399   5.473   1.568  0.2663  0.1095 -0.3317
12081TIP3    H157734   6.332   5.519   1.518  1.2688  0.5604 -1.3176
12081TIP3    H257735   6.432   5.538   1.630 -0.8605 -0.4005  0.8344
12082TIP3   OH257736   3.622   6.298  12.714 -0.4904  0.4322  0.5366
12082TIP3    H157737   3.594   6.389  12.727 -0.2913  0.5640  0.0559
12082TIP3    H257738   3.592   6.253  12.793 -3.0206  0.3190 -0.4117
12083TIP3   OH257739   3.260   3.044  12.577 -0.4996 -0.3201 -0.4996
12083TIP3    H157740   3.312   3.043  12.658 -0.7151  3.4424 -0.1184
12083TIP3    H257741   3.184   2.990  12.597  0.4845 -1.2389  1.0148
12084TIP3   OH257742   6.147   3.961  16.409  0.0363  0.0537 -0.2389
12084TIP3    H157743   6.125   3.877  16.449  0.4998 -0.2685 -0.6534
12084TIP3    H257744   6.094   3.963  16.329  0.2757  0.0034 -0.4006
12085TIP3   OH257745   5.830   4.638  12.270 -0.0001 -0.6237  0.4826
12085TIP3    H157746   5.819   4.546  12.247  0.9885 -1.2836  2.4359
12085TIP3    H257747   5.812   4.686  12.188 -1.0250 -2.4909 -0.4410
12086TIP3   OH257748   4.291   2.164  11.525  0.2859  0.7231 -0.2679
12086TIP3    H157749   4.293   2.156  11.621 -0.4002 -0.6774 -0.3544
12086TIP3    H257750   4.204   2.200  11.506 -0.1722 -0.4197 -0.4313
12087TIP3   OH257751   5.495   4.020  16.032 -0.8826  0.2428  0.0444
12087TIP3    H157752   5.533   4.105  16.011 -1.3231  0.9214  1.8146
12087TIP3    H257753   5.558   3.980  16.092 -0.8532 -0.5517 -0.4879
12088TIP3   OH257754   0.322   6.606  14.784 -0.3315  0.3710 -0.3759
12088TIP3    H157755   0.370   6.684  14.812 -2.5800  2.1333 -1.0554
12088TIP3    H257756   0.318   6.613  14.688 -2.3138  0.6249 -0.3247
12089TIP3   OH257757   5.308   1.330   0.876 -0.3222 -0.3924  0.4163
12089TIP3    H157758   5.299   1.299   0.786  0.1807 -0.2687  0.3206
12089TIP3    H257759   5.269   1.261   0.930 -0.2039 -0.6823  0.1323
12090TIP3   OH257760   6.362   0.154   5.605  0.2775 -0.0743  0.7911
12090TIP3    H157761   6.449   0.131   5.636  0.8034  1.2662  0.3756
12090TIP3    H257762   6.308   0.077   5.625  1.9243 -1.6765 -0.6070
12091TIP3   OH257763   5.061   4.463   3.812 -0.3108 -0.7002  0.8823
12091TIP3    H157764   5.005   4.541   3.807 -0.2143 -0.6199  1.0449
12091TIP3    H257765   5.099   4.455   3.725 -0.2914 -0.5424  0.8755
12092TIP3   OH257766   4.510   1.075   1.565  0.9920 -0.2507  0.1466
12092TIP3    H157767   4.417   1.097   1.572  1.0295 -0.2002  0.5335
12092TIP3    H257768   4.550   1.155   1.531  1.0101  0.0165  0.7786
12093TIP3   OH257769   2.990   0.396  11.078  0.4953  0.2043 -0.5165
12093TIP3    H157770   2.957   0.481  11.047 -3.4645 -1.2875 -0.9860
12093TIP3    H257771   2.970   0.336  11.006 -0.5779 -1.8056  1.3757
12094TIP3   OH257772   5.556   3.307   1.391  0.4092 -0.2544  0.4401
12094TIP3    H157773   5.648   3.327   1.371  1.1372 -2.5946  1.0846
12094TIP3    H257774   5.506   3.359   1.329  2.2836 -0.9422 -1.7900
12095TIP3   OH257775   0.501   4.900  16.034  0.0291 -0.0600  0.1598
12095TIP3    H157776   0.544   4.880  15.951 -0.3139 -0.8313  0.1561
12095TIP3    H257777   0.565   4.950  16.083 -0.0463  1.1013 -0.8710
12096TIP3   OH257778   6.669   6.207  15.106  0.2303 -0.1458  0.6487
12096TIP3    H157779   6.633   6.296  15.109 -0.5712 -0.4435  0.2468
12096TIP3    H257780   6.726   6.206  15.030  1.2513  0.3824  1.3875
12097TIP3   OH257781   2.595   2.136   0.386 -0.2749 -0.1846 -0.1791
12097TIP3    H157782   2.542   2.089   0.450 -0.6751 -0.6776 -0.8688
12097TIP3    H257783   2.663   2.179   0.439 -0.9130 -0.1472  0.6327
12098TIP3   OH257784   1.432   6.125   2.879 -0.2605 -0.0092  0.1466
12098TIP3    H157785   1.414   6.032   2.867  1.3054 -0.5127  1.2939
12098TIP3    H257786   1.501   6.144   2.815  0.3969 -0.0030  0.8419
12099TIP3   OH257787   2.791   5.911   4.787 -1.0634 -0.2419 -0.4491
12099TIP3    H157788   2.871   5.859   4.785 -0.9606 -0.0937 -0.2098
12099TIP3    H257789   2.795   5.958   4.870 -0.9082  0.5427 -0.8898
12100TIP3   OH257790   3.155   4.592  14.768 -0.4358  0.1544  0.0725
12100TIP3    H157791   3.078   4.577  14.713  1.0345 -2.3421 -1.4964
12100TIP3    H257792   3.153   4.522  14.833 -0.4732  1.1988  1.2172
12101TIP3   OH257793   5.614   4.929   5.298 -0.0349  0.0059  0.0429
12101TIP3    H157794   5.707   4.919   5.320  0.0361  0.8448  0.1543
12101TIP3    H257795   5.608   5.016   5.261 -0.5882 -0.4680 -1.0193
12102TIP3   OH257796   6.650   1.926  12.440  0.1221 -0.1738  0.2680
12102TIP3    H157797   6.600   2.005  12.420  0.8434  0.4045  0.6764
12102TIP3    H257798   6.628   1.906  12.531 -1.0945 -1.2441 -0.2308
12103TIP3   OH257799   0.981   3.647   4.961 -0.0155 -0.4519 -0.1004
12103TIP3    H157800   1.005   3.694   5.041 -0.7745 -0.3887  0.1041
12103TIP3    H257801   0.940   3.714   4.906  0.1324 -0.5839 -0.3726
12104TIP3   OH257802   1.841   5.296   5.368 -0.1118 -0.7024 -0.9134
12104TIP3    H157803   1.884   5.368   5.322 -0.9459  0.0972 -0.5015
12104TIP3    H257804   1.762   5.278   5.316 -0.3235 -0.7563 -0.5789
12105TIP3   OH257805   2.902   1.067  11.857  0.1633  0.2024  0.1599
12105TIP3    H157806   2.853   1.098  11.933  0.2000 -2.2990  1.2937
12105TIP3    H257807   2.843   1.007  11.812  0.3781  1.1402 -1.4661
12106TIP3   OH257808   1.869   4.824   1.627  0.1464 -0.3280 -0.5411
12106TIP3    H157809   1.858   4.799   1.535  0.3268 -1.1601 -0.3472
12106TIP3    H257810   1.831   4.751   1.676  3.0187 -1.5503  0.0825
12107TIP3   OH257811   6.432   0.441  14.459  0.0041  0.0213  0.8332
12107TIP3    H157812   6.471   0.508  14.515 -0.6362  0.4014  0.8277
12107TIP3    H257813   6.367   0.488  14.406  0.5111 -0.3529 -0.1454
12108TIP3   OH257814   0.554   6.289  13.477  0.6491 -0.2975  0.5083
12108TIP3    H157815   0.602   6.321  13.401  1.7989 -3.0736 -0.0581
12108TIP3    H257816   0.462   6.295  13.452  0.7138  2.7286  0.6191
12109TIP3   OH257817   0.313   0.249  11.245  0.4143 -0.0942 -0.2523
12109TIP3    H157818   0.376   0.177  11.255 -1.4763 -1.6447  1.2169
12109TIP3    H257819   0.264   0.227  11.166 -0.6740 -0.8794  0.6177
12110TIP3   OH257820   3.498   6.583   5.901 -0.5140  0.4525  0.7799
12110TIP3    H157821   3.583   6.570   5.943 -0.3366 -0.3417  0.1943
12110TIP3    H257822   3.434   6.568   5.971 -0.1933  0.4172  1.0679
12111TIP3   OH257823   5.941   1.579  12.750  0.3362  0.3280 -0.0798
12111TIP3    H157824   5.883   1.606  12.821 -0.3233 -1.5869  0.1664
12111TIP3    H257825   6.017   1.636  12.758  0.0456  0.5063  1.8342
12112TIP3   OH257826   0.702   1.976   5.549  0.3954 -0.0299  0.5016
12112TIP3    H157827   0.789   1.938   5.561  0.6426  0.1142 -0.7074
12112TIP3    H257828   0.695   2.042   5.618  0.7243 -0.9184  1.4106
12113TIP3   OH257829   5.971   3.666   3.920 -0.6253  0.0738  0.1799
12113TIP3    H157830   5.933   3.713   3.994 -0.7499  1.9678 -1.0099
12113TIP3    H257831   6.017   3.734   3.870 -1.5865 -0.8683 -2.1232
12114TIP3   OH257832   5.283   2.301  16.284 -0.0621 -0.8842  0.8216
12114TIP3    H157833   5.263   2.294  16.191 -0.1612 -0.4593  0.8093
12114TIP3    H257834   5.272   2.212  16.317  0.6439 -1.1772  0.2963
12115TIP3   OH257835   6.061   0.398   3.459  0.1145 -0.0536 -0.1245
12115TIP3    H157836   5.993   0.413   3.393  0.0280 -1.2744 -0.3328
12115TIP3    H257837   6.014   0.358   3.532  0.4805 -0.1956  0.0326
12116TIP3   OH257838   3.741   1.963   1.420 -0.1100 -0.2131 -0.2025
12116TIP3    H157839   3.756   1.957   1.514  2.8854 -2.0830 -0.6659
12116TIP3    H257840   3.817   1.921   1.380 -2.1213 -1.2382 -3.4354
12117TIP3   OH257841   3.358   3.571   3.909  0.4905  0.0457 -0.4827
12117TIP3    H157842   3.321   3.580   3.821  1.3602  0.3197 -0.8378
12117TIP3    H257843   3.396   3.656   3.928 -0.9000  0.4213  0.7583
12118TIP3   OH257844   1.955   3.756   3.348 -0.1745  0.3029 -0.1681
12118TIP3    H157845   1.912   3.690   3.402  0.9986 -0.3546  0.0047
12118TIP3    H257846   1.893   3.829   3.345 -0.1899  0.4839  2.2829
12119TIP3   OH257847   5.430   0.635   4.298  0.2709 -0.0062  0.0294
12119TIP3    H157848   5.428   0.639   4.394  0.0485  0.9077 -0.0034
12119TIP3    H257849   5.386   0.554   4.276 -1.5054  0.7535  0.6469
12120TIP3   OH257850   3.962   2.124   4.136  0.5061 -0.1571 -0.4542
12120TIP3    H157851   3.937   2.195   4.195  0.1250  0.9077 -1.8511
12120TIP3    H257852   4.005   2.061   4.193  1.6509  1.5756  0.7199
12121TIP3   OH257853   0.040   1.904   5.067 -0.3975  0.0234 -0.0359
12121TIP3    H157854   0.117   1.951   5.037 -0.0311 -0.3325  0.3285
12121TIP3    H257855   0.061   1.878   5.157 -0.0138 -2.0162 -0.6523
12122TIP3   OH257856   2.766   4.039   2.864 -0.3671 -0.1807  0.1094
12122TIP3    H157857   2.751   3.995   2.780  1.8080 -2.5891  0.8550
12122TIP3    H257858   2.689   4.017   2.916  0.0376 -2.0933 -0.0116
12123TIP3   OH257859   6.487   6.632   2.445 -0.0855 -0.0294 -0.2466
12123TIP3    H157860   6.560   6.680   2.484 -0.1947 -0.9661  1.1869
12123TIP3    H257861   6.423   6.625   2.515 -1.7023  1.0123 -1.5678
12124TIP3   OH257862   1.668   5.571   2.647  0.1429  0.0216 -0.1204
12124TIP3    H157863   1.719   5.631   2.702  0.0942 -1.2574  1.3875
12124TIP3    H257864   1.606   5.628   2.601  0.5635  1.2111  0.7255
12125TIP3   OH257865   2.862   3.529  13.765 -0.4821  0.1598 -0.5851
12125TIP3    H157866   2.794   3.538  13.697 -2.0914 -3.4056  0.3451
12125TIP3    H257867   2.815   3.540  13.847  0.1156 -1.7603  0.0642
12126TIP3   OH257868   6.803   4.489  13.835  0.3809 -0.4577 -0.1402
12126TIP3    H157869   6.808   4.427  13.908  0.0861 -0.2341  0.0704
12126TIP3    H257870   6.894   4.505  13.812  0.4948 -0.1368  0.5132
12127TIP3   OH257871   3.685   1.873  13.134  0.6779  0.1507 -0.4909
12127TIP3    H157872   3.764   1.862  13.081  2.1688  0.4167  1.5232
12127TIP3    H257873   3.687   1.798  13.194  0.4036  1.0972  0.7461
12128TIP3   OH257874   3.632   2.344  12.878 -0.3396  0.1745  0.4714
12128TIP3    H157875   3.616   2.436  12.901  0.2170  0.0558  1.3820
12128TIP3    H257876   3.545   2.309  12.857 -0.7503  0.5559  1.4807
12129TIP3   OH257877   3.219   5.866  15.887  0.1970 -0.2611 -0.2046
12129TIP3    H157878   3.212   5.771  15.882  1.1574 -0.4200  0.8906
12129TIP3    H257879   3.238   5.883  15.980  2.6985  0.7722 -0.8313
12130TIP3   OH257880   5.069   6.364  13.894  0.1299  0.1661  0.0878
12130TIP3    H157881   5.069   6.297  13.962  1.1762 -0.2787 -0.3247
12130TIP3    H257882   5.161   6.373  13.869 -0.2425  0.1625 -1.4107
12131TIP3   OH257883   3.042   2.881   5.008  0.3120 -0.1240  0.1129
12131TIP3    H157884   3.089   2.816   4.957  0.6778  0.6741 -0.6007
12131TIP3    H257885   2.951   2.851   5.009  0.3027 -0.1476 -1.0213
12132TIP3   OH257886   6.638   1.756   3.272  0.4665 -0.5449  0.2573
12132TIP3    H157887   6.640   1.778   3.365 -1.9211  0.5480  0.1305
12132TIP3    H257888   6.616   1.663   3.271 -0.5925 -0.3290  0.8346
12133TIP3   OH257889   6.576   4.435   4.092  0.8925  0.3175 -0.1338
12133TIP3    H157890   6.598   4.401   4.005  0.4494  3.9869 -1.8538
12133TIP3    H257891   6.656   4.476   4.123  1.4198 -2.0236  1.8846
12134TIP3   OH257892   0.887   4.254   3.409  0.1959 -0.4940  0.2559
12134TIP3    H157893   0.884   4.173   3.358  3.2753 -0.2870 -0.5027
12134TIP3    H257894   0.903   4.322   3.344  0.6680  0.2839  1.1634
12135TIP3   OH257895   0.102   2.470  15.779 -0.0513  0.0642  0.1865
12135TIP3    H157896   0.160   2.544  15.763  0.5214 -0.3243  0.4104
12135TIP3    H257897   0.021   2.492  15.735  0.9129 -0.2570 -1.8509
12136TIP3   OH257898   2.645   2.168  13.870  0.1951  0.5689 -0.2347
12136TIP3    H157899   2.632   2.253  13.912  0.1207 -0.2449  1.4833
12136TIP3    H257900   2.556   2.139  13.847  0.1722  0.7587 -0.3804
12137TIP3   OH257901   6.506   2.153   4.999 -0.0846 -0.0271  0.2204
12137TIP3    H157902   6.437   2.207   4.961  1.5247  1.2058 -1.1380
12137TIP3    H257903   6.460   2.086   5.050 -2.2667  0.4504 -1.0065
12138TIP3   OH257904   2.543   2.098  10.623  0.0119  0.1357  0.1278
12138TIP3    H157905   2.623   2.045  10.624 -0.6237 -0.9160 -1.0187
12138TIP3    H257906   2.524   2.115  10.715 -0.1774 -2.3789  0.6514
12139TIP3   OH257907   4.172   4.894  16.120  0.4878  0.1175  0.0792
12139TIP3    H157908   4.181   4.953  16.045  0.2171 -0.3766 -0.3481
12139TIP3    H257909   4.256   4.899  16.165  0.7013  0.3078 -0.3355
12140TIP3   OH257910   6.563   3.157   5.034 -0.0409 -0.2402  0.3842
12140TIP3    H157911   6.572   3.231   4.973 -0.5736 -0.4379  0.0575
12140TIP3    H257912   6.484   3.112   5.005  1.6337 -2.4527 -1.0239
12141TIP3   OH257913   5.479   4.908   0.985 -0.4537  0.1986 -0.7222
12141TIP3    H157914   5.386   4.893   0.967 -0.2126  0.1377 -2.0333
12141TIP3    H257915   5.482   4.929   1.078 -1.6914 -0.5125 -0.4980
12142TIP3   OH257916   5.155   2.142   5.167 -0.1337 -0.2231  0.2960
12142TIP3    H157917   5.083   2.081   5.181  1.0102 -2.3933 -2.3425
12142TIP3    H257918   5.214   2.127   5.241 -0.1687 -1.9747  0.0138
12143TIP3   OH257919   0.628   6.164   0.249  0.3608  0.0169  0.0043
12143TIP3    H157920   0.683   6.091   0.278 -0.7711 -0.8679  0.0153
12143TIP3    H257921   0.550   6.121   0.214  0.1688  1.1995 -1.0549
12144TIP3   OH257922   4.174   2.256  12.398 -0.2250 -0.1436 -0.2625
12144TIP3    H157923   4.090   2.217  12.420 -0.8202  1.5936  0.7345
12144TIP3    H257924   4.162   2.350  12.415  1.2897  0.4249 -2.0224
12145TIP3   OH257925   5.001   2.204   4.764 -0.5331 -0.7758 -0.7127
12145TIP3    H157926   4.928   2.142   4.760 -1.1339 -0.0944 -0.6069
12145TIP3    H257927   4.979   2.271   4.700  0.3445 -0.9033 -1.1633
12146TIP3   OH257928   6.457   3.583  14.560  0.0866 -0.8442 -0.4668
12146TIP3    H157929   6.475   3.595  14.653  2.4169 -3.2518 -0.4734
12146TIP3    H257930   6.368   3.616  14.548  0.5100  1.6092  2.1007
12147TIP3   OH257931   6.647   5.490   5.438 -0.1731 -0.3117 -0.1754
12147TIP3    H157932   6.636   5.571   5.490  4.2587  0.9129 -0.7774
12147TIP3    H257933   6.636   5.519   5.347 -0.2841 -0.8093 -0.3219
12148TIP3   OH257934   6.497   3.939   0.827 -0.2874  0.1426  0.0198
12148TIP3    H157935   6.485   4.013   0.887 -0.7081 -0.0520  0.1830
12148TIP3    H257936   6.567   3.887   0.867  1.0856  1.2308 -0.8811
12149TIP3   OH257937   4.895   1.612  12.006  0.2796  0.1559 -0.0241
12149TIP3    H157938   4.814   1.591  11.960  0.9857 -0.1761 -1.1296
12149TIP3    H257939   4.905   1.542  12.070 -0.0800 -0.0375 -0.1792
12150TIP3   OH257940   0.173   2.564   1.494  0.4224 -0.1450 -0.2125
12150TIP3    H157941   0.229   2.641   1.507  0.2513 -0.1233  0.4216
12150TIP3    H257942   0.115   2.588   1.422  0.3137  0.3456  0.0399
12151TIP3   OH257943   5.123   5.115   2.185 -0.0612  0.7878 -0.2661
12151TIP3    H157944   5.203   5.081   2.145 -1.1685 -0.6353 -1.3722
12151TIP3    H257945   5.086   5.041   2.233 -1.2218  1.1420 -0.5761
12152TIP3   OH257946   2.175   4.134  15.080  0.4784 -0.2988 -0.4556
12152TIP3    H157947   2.157   4.115  14.988 -2.8800  0.2946 -0.0469
12152TIP3    H257948   2.117   4.076  15.129  0.0155  1.4331  1.1906
12153TIP3   OH257949   3.343   0.028  16.311  0.0594 -0.0327  0.4455
12153TIP3    H157950   3.317  -0.019  16.391  3.4354 -2.6970  0.2334
12153TIP3    H257951   3.307  -0.024  16.240  0.8118 -0.2964  0.2439
12154TIP3   OH257952   2.940   2.479  13.575 -0.0430  0.2153  0.2352
12154TIP3    H157953   2.869   2.459  13.636 -0.1266  2.3385  0.8988
12154TIP3    H257954   3.005   2.410  13.590 -2.2464 -2.3016 -1.0194
12155TIP3   OH257955   5.313   6.606   4.632  0.6069 -0.3028  0.4364
12155TIP3    H157956   5.220   6.627   4.620  0.0272 -1.9749  1.5879
12155TIP3    H257957   5.337   6.555   4.555  0.8682  0.9845 -0.3500
12156TIP3   OH257958   1.568   1.143  14.543  0.4124  0.4970 -0.1640
12156TIP3    H157959   1.574   1.049  14.558  1.1075  0.6100  0.3333
12156TIP3    H257960   1.628   1.181  14.607 -0.3074  1.3172  0.0479
12157TIP3   OH257961   2.584   3.741   2.816 -0.3741  0.6547 -0.6315
12157TIP3    H157962   2.565   3.657   2.776 -1.2035  0.2313  0.6097
12157TIP3    H257963   2.602   3.799   2.742 -2.4888  0.0723 -1.6885
12158TIP3   OH257964   2.013   5.866  15.490 -0.3075  0.0966 -0.2779
12158TIP3    H157965   2.086   5.876  15.428 -0.2783  1.0342 -0.1106
12158TIP3    H257966   1.975   5.954  15.495  0.5869  0.4098  2.1582
12159TIP3   OH257967   6.620   0.999   0.538  0.1494 -0.3999  0.7171
12159TIP3    H157968   6.690   0.980   0.600  2.5204  0.9645 -1.3739
12159TIP3    H257969   6.611   0.918   0.488  1.5654 -0.0385 -0.1743
12160TIP3   OH257970   0.324   2.986   6.509  0.3536  0.2248  0.2888
12160TIP3    H157971   0.374   2.913   6.544 -1.6506 -1.0354  0.6731
12160TIP3    H257972   0.390   3.047   6.477  2.1605 -0.5702  2.2578
12161TIP3   OH257973   5.802   4.983   1.862 -0.2783  0.0707 -0.3345
12161TIP3    H157974   5.865   4.999   1.792  2.0461  0.3755  1.6612
12161TIP3    H257975   5.750   5.063   1.866 -0.5011  0.0184 -1.7117
12162TIP3   OH257976   6.324   2.278   3.075 -0.0935  0.1098  0.2095
12162TIP3    H157977   6.412   2.243   3.086  0.2292  1.0208  0.6633
12162TIP3    H257978   6.325   2.316   2.986  0.2829  0.9232  0.5440
12163TIP3   OH257979   3.956   3.022  12.935  0.2755 -0.4205 -0.5240
12163TIP3    H157980   3.867   3.019  12.968 -0.1457  2.5575 -1.0411
12163TIP3    H257981   4.010   3.043  13.012  0.0912  0.6603 -0.6700
12164TIP3   OH257982   0.291   3.165  14.107  0.3369 -0.1413 -0.1341
12164TIP3    H157983   0.330   3.078  14.111  0.2408 -0.1641  0.4004
12164TIP3    H257984   0.317   3.206  14.190  1.3998  0.7697 -0.8951
12165TIP3   OH257985   2.073   2.381  15.236 -0.1635 -0.5261  0.1503
12165TIP3    H157986   2.163   2.408  15.218 -1.1281  1.7118 -1.7725
12165TIP3    H257987   2.071   2.288  15.213  1.7601 -0.8068  0.8947
12166TIP3   OH257988   3.552   3.626  12.049  0.2014 -0.2675  0.1708
12166TIP3    H157989   3.492   3.580  12.107  0.4529  1.7812  2.1947
12166TIP3    H257990   3.633   3.634  12.100  0.6083  1.1597 -0.6401
12167TIP3   OH257991   3.550   6.128   4.956  0.0890  0.1952  0.0501
12167TIP3    H157992   3.622   6.103   4.899  0.2901  0.4663  0.1793
12167TIP3    H257993   3.508   6.046   4.979  0.1036  0.0716 -0.3598
12168TIP3   OH257994   4.820   1.178   0.675 -0.5680 -0.0951 -0.1281
12168TIP3    H157995   4.777   1.262   0.662  0.8438  0.7127  0.2314
12168TIP3    H257996   4.777   1.119   0.613 -2.1076  0.6776  0.1611
12169TIP3   OH257997   0.782   4.138   4.194  0.0524  0.5659  0.5389
12169TIP3    H157998   0.768   4.102   4.106 -1.7822 -0.4240  1.1742
12169TIP3    H257999   0.706   4.108   4.244  1.1420  0.9571  2.5248
12170TIP3   OH258000   4.429   4.013  16.052 -0.4636 -0.0405 -0.0732
12170TIP3    H158001   4.496   4.030  15.986  1.7354 -2.2928  1.3678
12170TIP3    H258002   4.385   4.097  16.064 -0.0775  0.7862 -3.3468
12171TIP3   OH258003   0.489   5.597  14.736  0.1352 -0.1172 -0.2401
12171TIP3    H158004   0.465   5.606  14.828 -4.4502 -0.7539 -1.1363
12171TIP3    H258005   0.481   5.503  14.718  0.2864  0.0784 -1.4331
12172TIP3   OH258006   5.089   3.118  14.700 -0.1881  0.2326  0.1299
12172TIP3    H158007   5.091   3.054  14.629  0.1007  0.2730  0.1005
12172TIP3    H258008   5.173   3.108  14.744 -0.0293  0.7663 -0.0357
12173TIP3   OH258009   1.821   4.506  15.484 -0.4117  0.6015 -0.0919
12173TIP3    H158010   1.853   4.438  15.543 -0.6104 -0.5633 -1.2729
12173TIP3    H258011   1.726   4.500  15.490 -0.4275  1.2439  0.3113
12174TIP3   OH258012   3.472   0.456  13.026  0.3018 -0.1263 -0.1939
12174TIP3    H158013   3.474   0.475  12.933 -0.4298  0.7720 -0.0408
12174TIP3    H258014   3.526   0.525  13.066 -1.8261  1.3642  0.3023
12175TIP3   OH258015   5.618   0.852   1.930 -0.0753 -0.0693 -0.7025
12175TIP3    H158016   5.592   0.778   1.985  2.6489 -0.5098  0.1592
12175TIP3    H258017   5.656   0.812   1.852  0.9383  0.3969 -0.4708
12176TIP3   OH258018   5.401   6.140   2.441  0.8574 -0.1559 -0.5807
12176TIP3    H158019   5.356   6.063   2.477 -0.6933  0.9419 -0.0506
12176TIP3    H258020   5.483   6.105   2.405  0.5281 -1.9397  0.2625
12177TIP3   OH258021   0.368   0.488   2.869 -0.3499 -0.7071 -0.4561
12177TIP3    H158022   0.315   0.553   2.821  3.2839  1.8327 -1.4431
12177TIP3    H258023   0.315   0.466   2.945 -2.7418  1.7607 -1.2376
12178TIP3   OH258024   5.673   0.773   4.168  0.1763  0.2410 -0.5111
12178TIP3    H158025   5.626   0.781   4.085  0.9478  1.9170 -0.8276
12178TIP3    H258026   5.608   0.738   4.229 -0.5978 -0.3571 -1.6411
12179TIP3   OH258027   0.233   0.999   2.200 -0.0151 -0.4908  0.1320
12179TIP3    H158028   0.274   0.959   2.277  0.5491 -0.9395 -0.3891
12179TIP3    H258029   0.260   0.943   2.127  3.3739  2.4064 -1.1410
12180TIP3   OH258030   1.884   6.180  16.027  0.1800 -0.1269  0.1423
12180TIP3    H158031   1.828   6.184  16.105  0.4466 -1.0710  0.3959
12180TIP3    H258032   1.966   6.221  16.055  0.1458 -0.1235  0.2395
12181TIP3   OH258033   0.255   4.284  13.041 -0.8342  0.2939  0.0088
12181TIP3    H158034   0.191   4.329  12.987  0.9987  5.9710  1.8458
12181TIP3    H258035   0.214   4.278  13.127 -0.3594  0.2571  0.2398
12182TIP3   OH258036   0.423   5.242   1.885 -0.4364  0.1134 -1.0907
12182TIP3    H158037   0.515   5.218   1.901 -0.3857  1.2208  0.5883
12182TIP3    H258038   0.383   5.162   1.853  0.9927 -0.5565 -1.2947
12183TIP3   OH258039   6.167   5.871   1.369 -0.0526  0.5332  0.2448
12183TIP3    H158040   6.237   5.884   1.304  0.6075  0.2435  0.8910
12183TIP3    H258041   6.086   5.883   1.319  0.4550  1.2964 -0.4250
12184TIP3   OH258042   4.545   1.864  15.225 -0.3217  0.3001 -0.2215
12184TIP3    H158043   4.563   1.773  15.202 -0.6393  0.9239 -3.3242
12184TIP3    H258044   4.466   1.859  15.280 -0.2579 -1.2843 -0.2211
12185TIP3   OH258045   1.276   0.740   3.912  0.1145  0.2157 -0.3330
12185TIP3    H158046   1.187   0.771   3.931 -1.3384 -2.5623 -1.8982
12185TIP3    H258047   1.323   0.748   3.995 -1.3693  2.2989  0.3986
12186TIP3   OH258048   5.420   3.957   4.562 -0.3115  0.2566 -0.2131
12186TIP3    H158049   5.406   3.999   4.647 -0.1107  0.2291 -0.1658
12186TIP3    H258050   5.340   3.975   4.513 -0.7894 -0.4724  0.2877
12187TIP3   OH258051   2.055   1.378   3.657  0.2323  0.0372 -0.5235
12187TIP3    H158052   2.072   1.316   3.586  0.0636 -0.3694 -0.2114
12187TIP3    H258053   2.003   1.447   3.616 -0.9083 -0.8035 -0.5320
12188TIP3   OH258054   1.315   5.226   2.757  0.6157 -0.3377  0.2737
12188TIP3    H158055   1.305   5.319   2.738 -0.5774 -0.8964 -2.2643
12188TIP3    H258056   1.401   5.203   2.724  0.4699 -0.3554 -0.0915
12189TIP3   OH258057   5.044   6.534   1.090 -0.1074 -0.0448  0.3277
12189TIP3    H158058   5.109   6.604   1.079  2.0931 -2.1555 -1.1637
12189TIP3    H258059   5.082   6.477   1.157 -0.6124 -1.1119 -0.2794
12190TIP3   OH258060   3.926   3.862  14.552  0.5078  0.6261  0.2550
12190TIP3    H158061   3.969   3.913  14.621  0.9060  0.2160  0.3233
12190TIP3    H258062   3.947   3.908  14.471  1.6663  0.0691  0.2145
12191TIP3   OH258063   3.015   5.204   4.799  0.0212  0.0627  0.0298
12191TIP3    H158064   3.061   5.283   4.824  0.0475  0.6723 -1.8112
12191TIP3    H258065   2.922   5.228   4.799  0.1475  0.9384 -3.0101
12192TIP3   OH258066   0.857   1.126  11.106 -0.5116  0.5968  0.7810
12192TIP3    H158067   0.925   1.113  11.039 -0.1686 -0.1306  1.2510
12192TIP3    H258068   0.776   1.097  11.064 -0.3612  0.5012  0.5513
12193TIP3   OH258069   3.895   0.532   6.436 -0.2515  0.4902  1.2225
12193TIP3    H158070   3.962   0.536   6.368 -0.9472  2.0015  0.5572
12193TIP3    H258071   3.920   0.600   6.498 -1.4523  1.5352  0.6249
12194TIP3   OH258072   6.597   0.379   3.113 -0.5259 -0.4437 -0.0084
12194TIP3    H158073   6.549   0.315   3.060 -0.9858 -0.8164  0.8480
12194TIP3    H258074   6.547   0.460   3.104  0.0169 -0.1923 -1.0352
12195TIP3   OH258075   2.622   6.755  12.942 -0.0395  0.1372 -0.6396
12195TIP3    H158076   2.593   6.839  12.907  0.7376  0.4134 -0.6371
12195TIP3    H258077   2.692   6.727  12.883  2.3165  1.2962  1.3772
12196TIP3   OH258078   2.391   4.019   1.552  0.6342  0.2607  0.1669
12196TIP3    H158079   2.461   4.081   1.532 -0.5461  1.4038 -0.6083
12196TIP3    H258080   2.323   4.073   1.592 -0.3391 -0.5847 -0.3209
12197TIP3   OH258081   3.255   0.565   1.218 -0.0466  0.2277  0.2673
12197TIP3    H158082   3.282   0.485   1.263 -0.9934 -0.8756 -1.0286
12197TIP3    H258083   3.160   0.557   1.210 -0.0009  0.8044 -1.1126
12198TIP3   OH258084   6.562   6.716  13.490  0.0451 -0.0548 -0.0463
12198TIP3    H158085   6.472   6.710  13.459  0.5744  0.8338 -1.8783
12198TIP3    H258086   6.615   6.695  13.413  1.4204  1.4309  0.4558
12199TIP3   OH258087   5.874   4.079   4.391 -0.7753 -0.5948  0.0211
12199TIP3    H158088   5.786   4.109   4.409 -0.2654  0.8099  0.2784
12199TIP3    H258089   5.868   4.034   4.306 -1.3889  1.1551 -0.8980
12200TIP3   OH258090   4.564   3.462  15.303  0.5337  0.2626  0.0725
12200TIP3    H158091   4.639   3.520  15.286 -1.2257  1.8673 -3.2154
12200TIP3    H258092   4.598   3.374  15.286  2.1187  0.7376  0.5497
12201TIP3   OH258093   2.645   5.544   3.172  0.1966  0.2889 -0.2098
12201TIP3    H158094   2.585   5.585   3.109  1.0879  0.8051 -0.7497
12201TIP3    H258095   2.722   5.601   3.172  0.8818 -0.6134  0.1058
12202TIP3   OH258096   3.959   6.428  11.656 -0.2229  0.4045 -0.1000
12202TIP3    H158097   4.027   6.361  11.641 -0.0905  0.6720 -0.7379
12202TIP3    H258098   4.008   6.505  11.684 -0.2239  0.7139 -0.9392
12203TIP3   OH258099   3.621   1.384   2.766 -0.0528 -0.1339  0.0549
12203TIP3    H158100   3.572   1.461   2.737 -0.0078 -0.3555 -0.6253
12203TIP3    H258101   3.711   1.414   2.773 -0.1438  0.0551  0.4959
12204TIP3   OH258102   1.693   4.745   2.270 -0.0843 -0.0459  0.0942
12204TIP3    H158103   1.768   4.749   2.330 -0.7683 -0.8483  1.0193
12204TIP3    H258104   1.733   4.738   2.183  0.9361 -1.3545  0.6398
12205TIP3   OH258105   1.043   3.135  14.669 -0.2168  0.2582 -0.0929
12205TIP3    H158106   0.996   3.053  14.655 -0.4489  0.5297 -1.0103
12205TIP3    H258107   1.006   3.171  14.749 -0.5219 -0.2564 -0.0007
12206TIP3   OH258108   1.185   6.503  10.894  0.2385 -0.7223 -0.4242
12206TIP3    H158109   1.244   6.576  10.878  0.1922 -0.0046  2.2521
12206TIP3    H258110   1.192   6.449  10.815  3.0245  0.2962 -1.0025
12207TIP3   OH258111   5.792   0.186  10.917  0.6722  0.2580  0.1352
12207TIP3    H158112   5.708   0.146  10.942  0.1177  2.2012  1.6126
12207TIP3    H258113   5.772   0.234  10.837  1.0066 -1.1995 -0.8653
12208TIP3   OH258114   5.173   4.279  11.847  0.4916  0.1757 -0.6065
12208TIP3    H158115   5.092   4.318  11.814  0.3402  0.6353  0.2747
12208TIP3    H258116   5.143   4.213  11.910  0.7593  2.6789  2.3803
12209TIP3   OH258117   5.671   1.206   3.286  0.3749 -0.3345 -0.0017
12209TIP3    H158118   5.616   1.153   3.228 -0.0650 -0.6094  0.6571
12209TIP3    H258119   5.720   1.143   3.338  1.6057 -0.0917 -0.8337
12210TIP3   OH258120   6.738   6.190  17.198 -0.3364 -0.1368  0.2674
12210TIP3    H158121   6.715   6.282  17.202  0.0159  0.0561 -1.3709
12210TIP3    H258122   6.675   6.146  17.255 -0.9846  1.0344  0.4693
12211TIP3   OH258123   2.936   6.043   2.665  0.2902  0.1881  0.5023
12211TIP3    H158124   3.005   6.107   2.680  0.1214  0.0316  2.0904
12211TIP3    H258125   2.854   6.092   2.677  0.1351  0.0419  0.0698
12212TIP3   OH258126   1.270   2.926  11.231 -0.1078 -0.3750  0.0384
12212TIP3    H158127   1.277   2.833  11.252  1.3230 -0.1391  0.7117
12212TIP3    H258128   1.305   2.971  11.308 -1.2791  0.7481 -0.0622
12213TIP3   OH258129   3.409   0.695   5.425  0.3253  0.1231  0.5088
12213TIP3    H158130   3.389   0.764   5.487  0.1624 -0.4267  1.0824
12213TIP3    H258131   3.475   0.641   5.469 -0.2423 -0.6207  0.4605
12214TIP3   OH258132   1.012   5.455  17.017 -0.0212 -0.6527 -0.0965
12214TIP3    H158133   1.062   5.452  16.936 -0.7497  2.8492 -0.8146
12214TIP3    H258134   1.046   5.531  17.064 -2.5661  0.0382  0.7888
12215TIP3   OH258135   5.012   1.862  16.925  0.1664 -0.6013 -0.2552
12215TIP3    H158136   5.023   1.774  16.891  0.4929 -0.5013 -0.4110
12215TIP3    H258137   4.927   1.891  16.890  0.7693 -0.2759 -1.4872
12216TIP3   OH258138   6.361   4.056   1.815 -0.1720  0.2199 -0.5785
12216TIP3    H158139   6.351   4.149   1.797 -0.4675  0.5542  1.1029
12216TIP3    H258140   6.452   4.036   1.792  0.0948  1.0895 -0.3257
12217TIP3   OH258141   6.337   2.119  12.971  0.1113  0.6172  0.0225
12217TIP3    H158142   6.346   2.025  12.987 -1.1626  0.3270 -0.7917
12217TIP3    H258143   6.400   2.160  13.030  2.2854 -0.8265 -1.1447
12218TIP3   OH258144   2.453   1.590  14.219 -0.3581  0.2615  0.1121
12218TIP3    H158145   2.430   1.498  14.211  0.1072  0.0945  0.6335
12218TIP3    H258146   2.456   1.606  14.313 -0.4537  0.8140  0.0253
12219TIP3   OH258147   2.926   0.724  16.667 -0.0021  0.5175 -0.0766
12219TIP3    H158148   3.013   0.724  16.626  1.2776  1.5615  2.4010
12219TIP3    H258149   2.935   0.664  16.741 -1.2374  0.9933  0.4905
12220TIP3   OH258150   4.174   3.266   4.564  0.3142 -0.5905  0.0726
12220TIP3    H158151   4.199   3.174   4.557  2.2233 -0.3097  2.2801
12220TIP3    H258152   4.256   3.315   4.557 -0.7485  1.1052 -2.0877
12221TIP3   OH258153   3.314   5.763   2.728 -0.5927 -0.0206 -0.1299
12221TIP3    H158154   3.242   5.766   2.664 -0.3562 -1.7367 -0.5311
12221TIP3    H258155   3.353   5.677   2.716  3.0069  1.5760 -1.4917
12222TIP3   OH258156   2.174   4.766   6.091 -0.0773  0.2939 -0.2921
12222TIP3    H158157   2.142   4.829   6.156  0.9627  0.3095  0.2233
12222TIP3    H258158   2.266   4.789   6.078  0.5370 -1.5334  0.4323
12223TIP3   OH258159   2.094   2.271  13.402 -0.2672  0.3119 -0.6452
12223TIP3    H158160   2.120   2.361  13.382 -0.5980  0.5085 -0.1953
12223TIP3    H258161   2.006   2.279  13.439  0.3343 -0.0356  0.9124
12224TIP3   OH258162   2.768   6.609  12.475  0.4921 -0.4405  0.7637
12224TIP3    H158163   2.732   6.538  12.527  0.3458 -1.2548 -0.4070
12224TIP3    H258164   2.837   6.568  12.422  0.7011  0.3753  0.3783
12225TIP3   OH258165   5.887   3.977   5.991  0.0171 -0.2367 -0.1323
12225TIP3    H158166   5.977   3.951   5.969  0.2219  0.2874  0.0898
12225TIP3    H258167   5.896   4.064   6.029 -0.6514  0.0891 -0.7104
12226TIP3   OH258168   0.607   3.330  14.343 -0.4052  0.0518  0.3282
12226TIP3    H158169   0.519   3.296  14.329  0.0172 -1.9588  1.9532
12226TIP3    H258170   0.660   3.285  14.277  0.0969 -2.4789  2.2727
12227TIP3   OH258171   5.533   2.649   4.662 -0.5501  0.0988  0.0927
12227TIP3    H158172   5.588   2.666   4.585 -0.3176 -0.1118  0.2083
12227TIP3    H258173   5.577   2.577   4.707 -0.5672  0.3671  0.5430
12228TIP3   OH258174   1.246   2.452  16.909 -0.1889 -0.0655  0.3229
12228TIP3    H158175   1.238   2.480  16.818  1.0704  0.1530  0.2665
12228TIP3    H258176   1.156   2.432  16.935 -0.5333 -0.4534 -1.0574
12229TIP3   OH258177   3.002   2.738   1.301  0.0567 -0.0041 -0.1585
12229TIP3    H158178   3.067   2.800   1.269  1.0318 -0.3466  1.0884
12229TIP3    H258179   3.045   2.693   1.374 -2.1634  0.9718  1.8635
12230TIP3   OH258180   3.806   3.188  16.657  0.5342 -0.6596  0.5379
12230TIP3    H158181   3.743   3.154  16.722  1.8784 -2.2982  1.0578
12230TIP3    H258182   3.770   3.161  16.573  0.6837 -1.8870  0.8508
12231TIP3   OH258183   1.755   4.654  17.202  0.3083  1.0437 -0.3102
12231TIP3    H158184   1.782   4.739  17.169 -1.4522  1.2975 -1.2368
12231TIP3    H258185   1.782   4.653  17.293  0.2414  2.6468 -0.2546
12232TIP3   OH258186   4.084   2.536  13.792  0.3699 -0.2410  0.0435
12232TIP3    H158187   4.106   2.524  13.699  1.1257 -0.5702  0.2528
12232TIP3    H258188   4.021   2.608  13.792  1.1462  0.4791 -0.6512
12233TIP3   OH258189   4.323   0.135  15.240  0.5723 -0.2256  0.6953
12233TIP3    H158190   4.367   0.088  15.169 -0.1509 -1.2307  0.8911
12233TIP3    H258191   4.256   0.074  15.271 -1.1214  1.3118  0.2577
12234TIP3   OH258192   0.363   2.116   2.712  0.1126 -0.1513 -0.7121
12234TIP3    H158193   0.317   2.191   2.675 -0.0737  0.2641  0.3333
12234TIP3    H258194   0.394   2.067   2.636 -0.5947  0.4657 -1.4120
12235TIP3   OH258195   5.175   1.557  14.494 -0.3095 -0.1573 -0.0072
12235TIP3    H158196   5.106   1.501  14.529 -0.7468 -0.2184 -0.9425
12235TIP3    H258197   5.227   1.500  14.438 -1.1880  0.4869 -1.5511
12236TIP3   OH258198   0.798   5.082  12.492 -0.2843  1.1074  0.3731
12236TIP3    H158199   0.875   5.040  12.453 -1.2534  0.2080 -0.6432
12236TIP3    H258200   0.814   5.079  12.586  0.0197 -0.9198  0.2923
12237TIP3   OH258201   4.032   3.688  12.392  0.5323  0.1233  0.4224
12237TIP3    H158202   3.997   3.770  12.428  0.3058 -0.1060  0.7273
12237TIP3    H258203   3.956   3.630  12.388  0.2633  0.5517 -1.6522
12238TIP3   OH258204   6.197   1.053  15.445  0.6509 -0.0484  0.1641
12238TIP3    H158205   6.116   1.103  15.460  0.6560  0.4192 -1.2659
12238TIP3    H258206   6.189   1.020  15.356  2.0554  0.0119 -0.0023
12239TIP3   OH258207   0.601   6.107  15.187  0.8921  0.1629  0.3780
12239TIP3    H158208   0.575   6.159  15.264  1.1610  0.2874  0.3841
12239TIP3    H258209   0.538   6.132  15.119  1.3216  0.8629  0.2326
12240TIP3   OH258210   0.343   1.415  12.953 -0.1348 -0.0019  0.0978
12240TIP3    H158211   0.288   1.491  12.970  0.8431  0.3932  1.7129
12240TIP3    H258212   0.433   1.446  12.970  0.2769 -1.4901  0.8399
12241TIP3   OH258213   5.531   2.621   6.091  0.0427 -0.0491 -0.4956
12241TIP3    H158214   5.461   2.556   6.081 -0.5500  0.6567 -1.0727
12241TIP3    H258215   5.488   2.696   6.132  0.6035  0.1753 -0.3082
12242TIP3   OH258216   5.275   0.565  13.448  0.1554 -0.2796 -0.5962
12242TIP3    H158217   5.228   0.490  13.411 -1.8173  0.0301  1.0924
12242TIP3    H258218   5.207   0.618  13.490  1.4763  2.4230 -1.5847
12243TIP3   OH258219   3.198   5.671   0.239  0.1249 -0.3004 -0.5808
12243TIP3    H158220   3.294   5.673   0.238  0.1150  1.2798 -0.9055
12243TIP3    H258221   3.174   5.629   0.156  0.5050 -2.5067  0.3411
12244TIP3   OH258222   2.141   2.034  16.017 -0.3173  0.1003 -0.0327
12244TIP3    H158223   2.122   1.970  15.949  1.5664 -0.0975 -0.4488
12244TIP3    H258224   2.237   2.043  16.015 -0.4481  2.2757  0.6070
12245TIP3   OH258225   5.999   4.295   0.795  0.2681  0.5574 -0.0572
12245TIP3    H158226   5.994   4.238   0.719  0.7399 -0.1995  0.4751
12245TIP3    H258227   5.996   4.236   0.870  0.1528  1.2715  0.5091
12246TIP3   OH258228   0.393   1.311   5.415  0.4711 -0.6075 -0.2857
12246TIP3    H158229   0.358   1.222   5.415 -0.4858 -0.3026  2.2404
12246TIP3    H258230   0.316   1.367   5.426  1.1457  0.4865 -0.9939
12247TIP3   OH258231   3.174   5.027  11.961 -0.3268  0.0632  0.3426
12247TIP3    H158232   3.240   5.051  11.896  0.5053 -0.1063  1.1202
12247TIP3    H258233   3.204   5.068  12.042 -2.2393  1.7393  0.2881
12248TIP3   OH258234   3.327   0.850   5.954  0.0372  0.4868 -0.3163
12248TIP3    H158235   3.361   0.764   5.932  2.4072  0.9425  1.2762
12248TIP3    H258236   3.357   0.907   5.883  0.2567  0.3821 -0.3062
12249TIP3   OH258237   3.352   6.235  13.196  0.0567  0.5540  0.4898
12249TIP3    H158238   3.366   6.178  13.272  0.1443 -0.0312  0.0486
12249TIP3    H258239   3.395   6.317  13.219  0.5540  0.2016  0.8591
12250TIP3   OH258240   3.285   0.074   4.970 -0.2775 -0.0387 -0.6700
12250TIP3    H158241   3.329   0.159   4.968 -0.5627  0.1018 -1.3671
12250TIP3    H258242   3.309   0.033   4.887  0.1061 -0.7673 -0.1988
12251TIP3   OH258243   3.470   3.150  15.613 -0.2862  0.1470 -0.4472
12251TIP3    H158244   3.421   3.140  15.531 -0.1985 -1.8495 -0.2993
12251TIP3    H258245   3.415   3.109  15.679  1.7911 -2.8077 -0.3875
12252TIP3   OH258246   2.714   1.372  14.082  0.1377 -0.1159  0.2112
12252TIP3    H158247   2.746   1.348  13.995 -0.0108 -1.0349  0.3958
12252TIP3    H258248   2.637   1.317  14.095  0.8294 -0.8503  1.3845
12253TIP3   OH258249   4.262   1.044   2.367 -0.1037 -0.6219 -0.3950
12253TIP3    H158250   4.226   0.970   2.416  1.5720 -0.8588  0.5575
12253TIP3    H258251   4.356   1.033   2.375  0.1731  1.2423 -0.8280
12254TIP3   OH258252   2.383   0.412  13.297  0.7323 -0.1764 -0.0701
12254TIP3    H158253   2.432   0.457  13.365  1.5667 -1.3767  0.1462
12254TIP3    H258254   2.293   0.446  13.305  1.5168  2.1922 -0.5941
12255TIP3   OH258255   5.952   6.075   4.621 -0.5107 -0.5949  0.6682
12255TIP3    H158256   5.991   6.063   4.707  0.7749 -1.1288  0.0449
12255TIP3    H258257   6.008   6.139   4.577 -0.6472 -0.9554 -0.0594
12256TIP3   OH258258   5.779   3.208  14.626 -0.3853  0.1761  0.5296
12256TIP3    H158259   5.743   3.186  14.712 -0.1849  1.4821  0.9680
12256TIP3    H258260   5.703   3.215  14.569 -0.6558  0.8279  0.9617
12257TIP3   OH258261   0.350   5.010   2.282  0.3069  0.0614 -0.0867
12257TIP3    H158262   0.368   4.943   2.217  0.6995  1.4961 -1.5186
12257TIP3    H258263   0.312   5.082   2.232  2.5606  2.0475  0.8506
12258TIP3   OH258264   1.184   3.677   5.850  0.3811 -0.2629 -0.0268
12258TIP3    H158265   1.133   3.668   5.769 -0.3866 -0.2271  0.4424
12258TIP3    H258266   1.148   3.610   5.908  1.0548 -0.4090  0.2241
12259TIP3   OH258267   1.002   1.617  14.988 -0.0986 -0.3116  0.0485
12259TIP3    H158268   1.009   1.679  15.061 -0.3774 -0.6550  0.3751
12259TIP3    H258269   0.963   1.539  15.027 -0.4152 -0.4376 -0.5084
12260TIP3   OH258270   3.845   3.956  12.692  0.2524 -0.7438 -0.0794
12260TIP3    H158271   3.939   3.963  12.703  0.1092  0.4891  0.5127
12260TIP3    H258272   3.828   3.861  12.694  1.3420 -0.9434  0.9427
12261TIP3   OH258273   0.456   2.620   4.201 -0.0380 -0.0555  0.2349
12261TIP3    H158274   0.491   2.613   4.290  1.5381 -1.9422 -0.4575
12261TIP3    H258275   0.373   2.572   4.204 -0.8748  1.3680  1.0493
12262TIP3   OH258276   4.528   0.354   3.518 -0.5290  0.2029  0.1294
12262TIP3    H158277   4.616   0.352   3.556 -0.2261 -1.7138 -0.5210
12262TIP3    H258278   4.474   0.399   3.583  0.0818 -2.4400  2.6726
12263TIP3   OH258279   4.329   0.070  12.861 -0.2122  0.0496 -0.4459
12263TIP3    H158280   4.252   0.032  12.819 -0.9185  0.6077  0.3226
12263TIP3    H258281   4.314   0.058  12.955 -0.2398  1.7917 -0.1961
12264TIP3   OH258282   6.086   0.335  16.307  0.2511  0.5726 -0.1733
12264TIP3    H158283   6.030   0.390  16.252  1.3865  1.4173 -0.5300
12264TIP3    H258284   6.067   0.365  16.396  0.2208  0.9412 -0.3008
12265TIP3   OH258285   6.132   5.873   3.117 -0.8741 -0.3666  0.0665
12265TIP3    H158286   6.077   5.951   3.104  0.6273  0.9289  1.0861
12265TIP3    H258287   6.184   5.868   3.037  0.2122  0.7236  0.6706
12266TIP3   OH258288   2.979   3.636  14.093 -0.1894  0.1893 -0.2887
12266TIP3    H158289   2.920   3.679  14.031 -2.3077 -1.2688  0.5758
12266TIP3    H258290   2.940   3.654  14.178  1.5615  0.5116  0.4685
12267TIP3   OH258291   4.355   6.184  14.236 -0.0600  0.2561  0.3675
12267TIP3    H158292   4.448   6.176  14.257  0.0231 -0.0231 -0.0933
12267TIP3    H258293   4.324   6.253  14.294 -0.0269 -1.0177  1.9788
12268TIP3   OH258294   6.593   5.313   3.567  0.1580 -0.3361 -0.4387
12268TIP3    H158295   6.626   5.232   3.605 -2.1026 -0.2596  1.9320
12268TIP3    H258296   6.506   5.291   3.536 -0.2899  1.0543 -0.2177
12269TIP3   OH258297   2.064   4.578   0.754  0.0613  0.2447  0.2189
12269TIP3    H158298   2.120   4.509   0.718  1.2169 -0.0099  2.3522
12269TIP3    H258299   1.984   4.573   0.701  0.9246 -1.3314 -1.0382
12270TIP3   OH258300   2.219   0.121  12.699  0.3016  0.5056 -0.0503
12270TIP3    H158301   2.280   0.113  12.772 -0.2153 -0.5221  0.2943
12270TIP3    H258302   2.273   0.113  12.620  0.3989 -3.3465  0.1958
12271TIP3   OH258303   1.132   1.115  10.415  0.0746 -0.6100  1.0700
12271TIP3    H158304   1.130   1.024  10.445  0.6615 -0.6193  1.1009
12271TIP3    H258305   1.208   1.119  10.357 -0.1172 -0.2067  0.8424
12272TIP3   OH258306   0.212   5.680   1.428 -0.1915 -0.5346  0.2182
12272TIP3    H158307   0.164   5.754   1.465 -1.4132 -1.4895  0.6174
12272TIP3    H258308   0.294   5.718   1.395 -1.1020  1.0978 -0.2542
12273TIP3   OH258309   3.911   4.574  12.659 -0.1091 -0.3437 -0.6748
12273TIP3    H158310   3.977   4.635  12.626  0.2382  0.0115  0.6210
12273TIP3    H258311   3.899   4.600  12.750 -0.5171 -1.7388 -0.3221
12274TIP3   OH258312   1.660   6.062   0.304  0.2610 -0.6290 -0.5846
12274TIP3    H158313   1.677   6.012   0.384 -1.1881  1.8542  1.4523
12274TIP3    H258314   1.695   6.149   0.322 -2.6640  0.8474 -1.3719
12275TIP3   OH258315   6.220   0.417  15.659  0.2485  0.7893 -0.4688
12275TIP3    H158316   6.272   0.356  15.710  0.8282  1.2325 -0.5183
12275TIP3    H258317   6.226   0.384  15.569  0.2755  0.7265 -0.4439
12276TIP3   OH258318   5.297   5.931   4.515  0.7752  0.1571 -0.6111
12276TIP3    H158319   5.207   5.897   4.521  1.1624 -0.7478  0.2943
12276TIP3    H258320   5.334   5.886   4.439  0.0335  1.6212 -1.8928
12277TIP3   OH258321   6.181   3.416   2.322 -0.0227  0.3080 -0.3954
12277TIP3    H158322   6.113   3.381   2.264  1.1256 -0.8523 -1.1025
12277TIP3    H258323   6.221   3.338   2.361 -0.3543  1.0422  1.5195
12278TIP3   OH258324   6.308   1.529   0.488  0.3584 -0.1021  0.1332
12278TIP3    H158325   6.340   1.569   0.568 -1.1422  0.6477  0.4126
12278TIP3    H258326   6.235   1.473   0.516  0.2461 -0.3558 -0.6264
12279TIP3   OH258327   1.849   1.533   2.607  0.0262  0.1404  0.2339
12279TIP3    H158328   1.803   1.570   2.682 -1.7438 -1.8252  0.1914
12279TIP3    H258329   1.790   1.547   2.533 -0.0472 -1.4462 -0.0310
12280TIP3   OH258330   1.471   3.480  15.889  0.3627 -0.2434 -0.5594
12280TIP3    H158331   1.450   3.569  15.918  2.8811  0.1306  0.3564
12280TIP3    H258332   1.401   3.458  15.828  0.6330  3.1071 -2.3160
12281TIP3   OH258333   6.366   1.617   3.281  0.1040 -0.1680  0.7504
12281TIP3    H158334   6.276   1.644   3.298  0.4356  0.9211  0.8836
12281TIP3    H258335   6.419   1.693   3.307  0.9726 -0.3146 -0.4783
12282TIP3   OH258336   0.686   6.581   5.974 -0.9742  0.2964  0.0940
12282TIP3    H158337   0.700   6.660   6.027  0.8943  0.4407 -0.5207
12282TIP3    H258338   0.714   6.606   5.886 -0.2237 -1.0613 -0.0880
12283TIP3   OH258339   0.845   2.428  16.615 -0.3543 -0.2349  0.0154
12283TIP3    H158340   0.933   2.417  16.578 -1.6462  0.0287 -3.4634
12283TIP3    H258341   0.851   2.509  16.666  1.6271 -0.7653  0.7286
12284TIP3   OH258342   4.345   5.790   4.416 -0.0942 -0.2193  0.0736
12284TIP3    H158343   4.342   5.696   4.431 -0.4232  0.0220  1.6841
12284TIP3    H258344   4.417   5.802   4.354 -0.7435 -1.6065 -1.0106
12285TIP3   OH258345   0.155   0.041  14.163 -0.2284 -0.0272  0.2637
12285TIP3    H158346   0.146  -0.023  14.092  2.5915 -1.5379  1.1284
12285TIP3    H258347   0.194  -0.008  14.235 -2.8086  1.4888  2.9193
12286TIP3   OH258348   6.079   5.460  13.668  0.4771  0.2392  0.2052
12286TIP3    H158349   6.115   5.392  13.611  3.3930 -1.5278  3.7303
12286TIP3    H258350   6.010   5.416  13.717  1.8848 -0.1347  1.9783
12287TIP3   OH258351   4.079   3.558  13.520 -0.2807  0.0889  0.1164
12287TIP3    H158352   4.005   3.520  13.473  0.0014 -0.3546  0.0207
12287TIP3    H258353   4.075   3.651  13.500 -1.1925  0.1661  0.6446
12288TIP3   OH258354   6.611   0.855  15.804  0.4496  0.0565 -0.4158
12288TIP3    H158355   6.576   0.917  15.739 -0.6667 -1.2369 -1.0972
12288TIP3    H258356   6.577   0.886  15.887 -0.8559 -0.1220 -0.8578
12289TIP3   OH258357   3.820   1.039   1.999  0.4126  0.1958 -0.0249
12289TIP3    H158358   3.899   0.997   2.035  0.9059  1.1449  0.0317
12289TIP3    H258359   3.837   1.132   2.008 -0.2096  0.4240 -1.1439
12290TIP3   OH258360   2.582   1.096  13.903 -0.5606  0.1602 -0.2508
12290TIP3    H158361   2.653   1.084  13.840 -0.7453  0.6613 -0.5656
12290TIP3    H258362   2.515   1.145  13.854 -0.5052  0.9872  0.4741
12291TIP3   OH258363   4.578   5.466   3.569 -0.2130 -0.8443 -0.1485
12291TIP3    H158364   4.615   5.436   3.652 -1.8377 -0.9589  0.5638
12291TIP3    H258365   4.560   5.559   3.582 -1.2500 -1.0508 -0.0709
12292TIP3   OH258366   2.399   1.769   1.720  0.8649  0.1190 -0.4898
12292TIP3    H158367   2.448   1.686   1.715  1.7534  0.5647  0.5587
12292TIP3    H258368   2.348   1.770   1.639  0.9379 -1.3898 -0.5964
12293TIP3   OH258369   3.672   6.088   2.576 -0.4044 -0.7687 -0.1152
12293TIP3    H158370   3.603   6.101   2.510 -1.1468 -0.2568  0.7381
12293TIP3    H258371   3.735   6.158   2.559  0.0518 -1.3759 -1.0471
12294TIP3   OH258372   5.520   4.136   0.379 -0.0856  0.5397  0.2813
12294TIP3    H158373   5.484   4.049   0.394  0.8105  0.3558  1.5883
12294TIP3    H258374   5.510   4.181   0.463 -0.5888  1.7232 -0.3938
12295TIP3   OH258375   2.905   4.832  11.417  0.3290  0.1278  0.0603
12295TIP3    H158376   2.898   4.833  11.512 -0.1279  1.6632  0.0404
12295TIP3    H258377   2.831   4.779  11.388 -0.8228  1.4155  0.5175
12296TIP3   OH258378   3.656   4.267  14.984 -0.3711  0.1236  0.1762
12296TIP3    H158379   3.586   4.329  15.005 -1.4680 -0.9319 -0.2179
12296TIP3    H258380   3.655   4.261  14.888  0.8137  0.6900  0.1104
12297TIP3   OH258381   0.903   5.627   6.002 -0.1480  0.1570  0.5324
12297TIP3    H158382   0.825   5.672   6.035 -0.2663 -0.0883  0.5835
12297TIP3    H258383   0.907   5.652   5.910 -0.4752 -0.0989  0.4488
12298TIP3   OH258384   6.141   1.386  12.228  0.1179  0.0887 -0.1652
12298TIP3    H158385   6.208   1.332  12.270  1.9484  3.0532  1.0088
12298TIP3    H258386   6.082   1.410  12.300 -1.2680 -1.0469 -0.8659
12299TIP3   OH258387   5.645   0.856  16.368  0.8182  0.0168  0.0604
12299TIP3    H158388   5.703   0.801  16.314  1.5464 -0.1938  1.0310
12299TIP3    H258389   5.697   0.934  16.387  0.0056  0.7916 -0.8033
12300TIP3   OH258390   4.620   2.863   1.819 -0.2293 -0.0298  0.3661
12300TIP3    H158391   4.540   2.888   1.865 -1.0001  0.6268 -1.2385
12300TIP3    H258392   4.690   2.899   1.872 -1.1614  2.2063  0.2074
12301TIP3   OH258393   2.208   6.641  13.640 -0.0003  0.5640  0.3947
12301TIP3    H158394   2.266   6.565  13.631  0.1765  0.4366  2.2560
12301TIP3    H258395   2.161   6.645  13.557  1.0608 -0.6839 -0.3037
12302TIP3   OH258396   6.065   3.542  14.312  0.2020  0.1691  0.1333
12302TIP3    H158397   6.040   3.457  14.347  0.7442 -1.4816 -3.0853
12302TIP3    H258398   6.136   3.522  14.250 -0.6232  2.7449 -1.8025
12303TIP3   OH258399   1.601   3.808   0.698  0.0441  0.3398  0.3282
12303TIP3    H158400   1.590   3.817   0.793 -0.0989 -2.0318  0.6094
12303TIP3    H258401   1.522   3.762   0.669  0.9453 -0.6748 -0.6112
12304TIP3   OH258402   5.988   2.262  17.162  0.4710  0.4322 -0.5286
12304TIP3    H158403   5.969   2.235  17.072  3.7299  0.8163 -1.4931
12304TIP3    H258404   6.039   2.190  17.198 -1.1369  0.1161  1.2093
12305TIP3   OH258405   4.380   1.399   3.455 -0.1601  0.4457 -0.2337
12305TIP3    H158406   4.381   1.359   3.542 -0.2761  0.8133 -0.0609
12305TIP3    H258407   4.403   1.491   3.470  0.1241  0.4442 -0.6280
12306TIP3   OH258408   6.578   0.895  11.393  0.0868  0.1310  0.0840
12306TIP3    H158409   6.510   0.956  11.421 -0.7316 -0.2169 -1.0828
12306TIP3    H258410   6.530   0.822  11.354  1.1216  0.1093 -1.2145
12307TIP3   OH258411   0.352   1.592   0.829  0.1303  0.3506  0.3490
12307TIP3    H158412   0.361   1.550   0.914 -1.4529 -2.3972 -0.7066
12307TIP3    H258413   0.296   1.668   0.845 -1.4337 -0.9946  1.5603
12308TIP3   OH258414   3.318   6.633  16.113 -0.1866 -0.4199  0.3917
12308TIP3    H158415   3.349   6.558  16.165  0.4737 -1.4539 -1.4021
12308TIP3    H258416   3.394   6.660  16.062 -0.8618  0.4429 -0.1862
12309TIP3   OH258417   1.890   3.891  16.898  0.2046 -0.0579  0.2646
12309TIP3    H158418   1.826   3.877  16.968  0.4032  1.1988  0.7117
12309TIP3    H258419   1.890   3.985  16.883 -0.0061 -0.3174 -1.6073
12310TIP3   OH258420   6.201   5.027  15.370 -0.2400  0.0583 -0.5961
12310TIP3    H158421   6.186   5.072  15.453 -0.9391  1.7324 -1.5669
12310TIP3    H258422   6.288   5.056  15.342 -0.6093  0.6705 -1.1322
12311TIP3   OH258423   3.314   4.502   1.001 -0.3630 -0.1121  0.3679
12311TIP3    H158424   3.264   4.576   0.968 -0.2740 -0.7520 -1.3387
12311TIP3    H258425   3.405   4.531   0.997 -0.4250  0.2490  1.2978
12312TIP3   OH258426   6.351   6.011  14.534  0.5052 -0.6711 -0.6622
12312TIP3    H158427   6.440   5.999  14.502  1.5720 -0.6323  2.0825
12312TIP3    H258428   6.356   6.084  14.595 -1.7328  0.2857 -1.5038
12313TIP3   OH258429   0.646   4.522   1.911  0.1299 -0.1856 -0.0945
12313TIP3    H158430   0.661   4.430   1.891 -1.8118 -0.4415 -0.5584
12313TIP3    H258431   0.590   4.522   1.988  0.4309  0.6319  0.1423
12314TIP3   OH258432   4.264   1.855   1.536  0.9910  0.1424  0.0599
12314TIP3    H158433   4.324   1.912   1.488 -0.0084  2.0016  0.8877
12314TIP3    H258434   4.215   1.915   1.592  1.1025 -1.7629  2.3398
12315TIP3   OH258435   1.129   3.137  12.143  0.3478 -0.1020  1.0430
12315TIP3    H158436   1.221   3.127  12.170  1.0475  0.6263 -0.8887
12315TIP3    H258437   1.118   3.231  12.130 -0.7625 -0.1600  1.4774
12316TIP3   OH258438   4.169   1.792  14.555 -0.1099  0.6411  0.3278
12316TIP3    H158439   4.110   1.725  14.522 -0.8083  1.4694 -0.1574
12316TIP3    H258440   4.234   1.804  14.485  0.0602  0.4142  0.4477
12317TIP3   OH258441   3.885   3.727   6.191 -0.3107 -0.0642  0.0528
12317TIP3    H158442   3.871   3.633   6.189  0.0495 -0.1106 -0.8256
12317TIP3    H258443   3.977   3.738   6.166 -0.0198  0.4646  1.2948
12318TIP3   OH258444   1.496   5.523  14.016  0.6505  0.1171 -0.2684
12318TIP3    H158445   1.586   5.556  14.026  0.6658  0.2849 -0.8898
12318TIP3    H258446   1.492   5.494  13.925 -0.4020  1.5758 -0.7095
12319TIP3   OH258447   0.844   1.393  12.669  0.0095 -0.3948  0.0591
12319TIP3    H158448   0.881   1.445  12.598  0.8908 -1.1252 -0.0391
12319TIP3    H258449   0.781   1.335  12.626 -1.7521  1.2497  0.3022
12320TIP3   OH258450   2.201   2.410   0.268  0.1764  0.3887  0.1133
12320TIP3    H158451   2.123   2.452   0.303 -0.3815 -1.9123  1.9391
12320TIP3    H258452   2.240   2.366   0.343  2.8829  0.8751 -0.8886
12321TIP3   OH258453   2.742   4.288   2.809 -0.5143 -0.0379 -0.0203
12321TIP3    H158454   2.749   4.196   2.830 -0.2286 -0.2460 -0.9493
12321TIP3    H258455   2.832   4.321   2.814 -0.6532  0.2621  0.5932
12322TIP3   OH258456   1.961   5.230  11.469  0.1674  0.2032 -0.4386
12322TIP3    H158457   1.899   5.171  11.513  0.3837  1.5352  1.7980
12322TIP3    H258458   2.024   5.171  11.427 -0.0015 -1.1889  1.1404
12323TIP3   OH258459   6.598   1.468  11.389 -0.3987  0.0168  0.5029
12323TIP3    H158460   6.573   1.539  11.330 -3.1614 -0.0359  1.4700
12323TIP3    H258461   6.691   1.484  11.408 -0.3416  1.9898 -1.1365
12324TIP3   OH258462   4.062   1.509   2.473  0.4041 -0.1962  0.8302
12324TIP3    H158463   4.129   1.457   2.518 -0.3719 -0.5923  1.5658
12324TIP3    H258464   3.989   1.448   2.461  0.8603 -0.3585 -1.7320
12325TIP3   OH258465   5.090   0.961  13.006 -0.5278 -0.0575 -0.6385
12325TIP3    H158466   5.079   1.056  13.004 -0.3158 -0.0472 -1.6290
12325TIP3    H258467   5.176   0.949  13.046 -1.5587  0.0486  1.8192
12326TIP3   OH258468   5.374   1.948   4.653  0.5112  0.0527 -0.1201
12326TIP3    H158469   5.381   1.957   4.748  1.8537  0.5575 -0.2569
12326TIP3    H258470   5.448   1.894   4.628  0.0492 -0.2501 -0.8744
12327TIP3   OH258471   6.154   0.323  15.388 -0.2158  0.0725  0.5064
12327TIP3    H158472   6.062   0.296  15.395 -0.1871 -0.1831 -0.0371
12327TIP3    H258473   6.197   0.249  15.346  0.2262  0.2258  0.6894
12328TIP3   OH258474   2.024   5.774   3.992  0.1499 -0.7255  0.0549
12328TIP3    H158475   2.017   5.836   3.920  0.4461  0.3709  0.9497
12328TIP3    H258476   1.979   5.695   3.960  0.8905 -0.5306 -1.5862
12329TIP3   OH258477   5.024   5.021  15.113  0.3084  0.4107 -0.6408
12329TIP3    H158478   4.948   5.018  15.055  0.2220 -0.0449 -0.5066
12329TIP3    H258479   5.098   4.994  15.058  0.1810 -0.2957 -0.4676
12330TIP3   OH258480   5.648   0.139   1.547 -0.5292  0.6473 -0.2471
12330TIP3    H158481   5.589   0.089   1.603  0.7775 -0.3414  0.2745
12330TIP3    H258482   5.698   0.194   1.608  0.5423 -0.0585 -0.4753
12331TIP3   OH258483   0.509   5.334  13.420 -0.4002 -0.2831 -0.0238
12331TIP3    H158484   0.431   5.347  13.475 -1.3495  0.3267 -1.4683
12331TIP3    H258485   0.551   5.420  13.418 -0.1535 -0.4005  0.0382
12332TIP3   OH258486   2.132   6.053  16.595 -0.0606 -0.6049  0.3103
12332TIP3    H158487   2.188   6.073  16.670  0.5402  1.3160 -0.5873
12332TIP3    H258488   2.192   6.038  16.523 -0.6434  0.7669 -0.5063
12333TIP3   OH258489   0.503   4.416   1.548  0.0909 -0.2320  0.1998
12333TIP3    H158490   0.473   4.506   1.557  0.3798 -0.1896  0.7408
12333TIP3    H258491   0.569   4.420   1.478 -1.4057 -0.3951 -1.2848
12334TIP3   OH258492   2.348   1.810  14.381  0.6011 -0.1201  0.2066
12334TIP3    H158493   2.256   1.835  14.392  0.3096 -1.3457  0.7783
12334TIP3    H258494   2.355   1.788  14.288  0.7632  1.5832 -0.2127
12335TIP3   OH258495   0.099   0.659   0.877  0.1864 -0.2395 -0.7132
12335TIP3    H158496   0.038   0.640   0.806 -0.7623  0.1763 -0.0192
12335TIP3    H258497   0.103   0.578   0.928 -0.4209 -0.0133 -0.2973
12336TIP3   OH258498   3.672   5.768   6.178 -0.0563  0.4492 -0.0967
12336TIP3    H158499   3.594   5.823   6.185 -0.2078  0.3393 -0.7955
12336TIP3    H258500   3.668   5.710   6.254  0.4018  1.7550  0.9775
12337TIP3   OH258501   3.913   0.175  14.831 -0.6934  0.8033 -0.4568
12337TIP3    H158502   3.870   0.089  14.836  0.0874  0.4041 -0.4096
12337TIP3    H258503   3.916   0.206  14.921 -0.3502  0.5554 -0.3801
12338TIP3   OH258504   4.094   2.330  11.008  0.4333  0.0754 -0.1490
12338TIP3    H158505   4.152   2.405  10.995 -1.2351  1.6503  0.9067
12338TIP3    H258506   4.076   2.330  11.102  1.0544 -2.2253  0.0267
12339TIP3   OH258507   6.411   0.153   1.354  0.0890  0.6109 -0.3861
12339TIP3    H158508   6.397   0.069   1.396  0.7836  1.0445  0.7446
12339TIP3    H258509   6.335   0.206   1.380 -0.0892  0.5001 -0.6762
12340TIP3   OH258510   2.017   3.269   5.638 -0.9146  0.0900 -0.0867
12340TIP3    H158511   2.078   3.332   5.599 -1.0094  0.0095 -0.3697
12340TIP3    H258512   1.972   3.318   5.706 -0.9157  0.3004 -0.2380
12341TIP3   OH258513   1.218   1.563  15.541 -0.4034  0.4181  0.4459
12341TIP3    H158514   1.303   1.519  15.548 -0.7365 -0.6561 -1.6100
12341TIP3    H258515   1.232   1.629  15.472 -1.1219  0.5177  0.3939
12342TIP3   OH258516   3.189   3.896  15.662  0.7649 -0.2001  0.1503
12342TIP3    H158517   3.176   3.905  15.568  0.4341  0.2209  0.2321
12342TIP3    H258518   3.238   3.974  15.687  1.3491 -0.5858  0.2428
12343TIP3   OH258519   2.035   4.765  14.244  0.0350 -0.3590  0.1787
12343TIP3    H158520   2.088   4.732  14.171 -0.6245 -1.6228  0.2345
12343TIP3    H258521   2.032   4.692  14.306 -0.6046  0.1953  0.8185
12344TIP3   OH258522   6.261   2.304  13.485  0.1100 -0.1574  0.0798
12344TIP3    H158523   6.277   2.210  13.497 -1.0267 -0.1958  1.5068
12344TIP3    H258524   6.169   2.310  13.460  0.6020  0.4928 -1.7540
12345TIP3   OH258525   6.795   5.679   6.196  0.4818  0.1290 -0.1261
12345TIP3    H158526   6.753   5.633   6.270 -1.0937 -0.4707 -1.3418
12345TIP3    H258527   6.839   5.753   6.237  1.8389 -1.5844  1.7361
12346TIP3   OH258528   5.702   4.660   5.769 -0.9044 -0.2107 -0.0052
12346TIP3    H158529   5.669   4.735   5.819 -0.2331 -0.8565  1.4534
12346TIP3    H258530   5.732   4.698   5.686 -0.0396  1.2248  0.9266
12347TIP3   OH258531   2.731   4.598   3.817 -0.0073 -0.2723 -0.1530
12347TIP3    H158532   2.818   4.558   3.808  0.0837  0.3153 -2.8116
12347TIP3    H258533   2.686   4.544   3.881  1.0843 -2.9172 -1.4620
12348TIP3   OH258534   4.189   4.544   4.195  0.1306 -0.2182 -0.5237
12348TIP3    H158535   4.101   4.583   4.189  0.1263 -0.2501 -0.6687
12348TIP3    H258536   4.173   4.454   4.224  0.2367  0.3088  1.2425
12349TIP3   OH258537   2.290   4.985   5.022  0.0881  0.3435  0.0959
12349TIP3    H158538   2.323   4.896   5.009 -0.8194  0.0130 -0.0289
12349TIP3    H258539   2.289   5.023   4.935 -0.4271  0.1445  0.0125
12350TIP3   OH258540   1.333   3.213  12.771 -0.3421  0.3327 -0.8439
12350TIP3    H158541   1.349   3.119  12.777 -0.9697  0.2826  0.3942
12350TIP3    H258542   1.238   3.221  12.764 -0.1904  0.8152 -3.1788
12351TIP3   OH258543   4.112   5.828   2.870 -0.4020 -0.0849  0.6287
12351TIP3    H158544   4.042   5.892   2.856  0.9620  1.2286 -0.4897
12351TIP3    H258545   4.139   5.841   2.961  0.0948  1.1934  0.3113
12352TIP3   OH258546   2.484   5.768   6.338 -0.3238  0.4713  0.3109
12352TIP3    H158547   2.391   5.747   6.327 -0.7181  2.0089  0.4767
12352TIP3    H258548   2.492   5.797   6.429  0.1416  1.1075  0.0795
12353TIP3   OH258549   3.388   3.846  13.715  0.8525  0.0302  0.7695
12353TIP3    H158550   3.342   3.853  13.799  2.2914  2.0280  1.4676
12353TIP3    H258551   3.479   3.828  13.738  1.3385  0.9556 -0.3084
12354TIP3   OH258552   5.445   0.390  17.044 -0.0353 -0.1721  0.5581
12354TIP3    H158553   5.363   0.395  16.994 -1.9716 -1.1954  3.3448
12354TIP3    H258554   5.443   0.467  17.101  0.9427 -0.2226  0.6789
12355TIP3   OH258555   6.224   1.210  16.657  0.5923 -0.5753 -0.3156
12355TIP3    H158556   6.155   1.154  16.619  0.5780 -0.5343 -0.3489
12355TIP3    H258557   6.243   1.274  16.589  1.3128 -1.1471 -0.6559
12356TIP3   OH258558   5.562   0.083  14.749 -0.1513  0.2838  0.3163
12356TIP3    H158559   5.647   0.123  14.765  0.7305 -0.7810 -1.4528
12356TIP3    H258560   5.500   0.156  14.750  1.1677  1.4891 -1.0651
12357TIP3   OH258561   0.063   0.796  14.539  0.1307  0.0907  0.2912
12357TIP3    H158562   0.067   0.785  14.444 -1.5793  1.8176 -0.0459
12357TIP3    H258563   0.153   0.785  14.569  0.7955  0.0946 -1.5879
12358TIP3   OH258564   4.691   0.254  15.240  1.0238  0.1882 -0.5860
12358TIP3    H158565   4.646   0.307  15.175  4.1970  1.2335 -2.1397
12358TIP3    H258566   4.762   0.310  15.272  1.6791 -1.5250  1.1812
12359TIP3   OH258567   6.184   2.712  11.833  0.1261  0.2640 -0.4562
12359TIP3    H158568   6.179   2.709  11.737 -1.1554 -0.1705 -0.3953
12359TIP3    H258569   6.115   2.773  11.859  1.4832  1.6209  0.1543
12360TIP3   OH258570   2.077   5.737  12.337 -0.0737  0.2391  0.4293
12360TIP3    H158571   2.147   5.788  12.298 -0.7673  0.1723 -0.9472
12360TIP3    H258572   2.123   5.669  12.388  0.9136 -0.6443 -1.5209
12361TIP3   OH258573   2.237   6.724   2.725 -0.0956 -0.5143 -0.7643
12361TIP3    H158574   2.237   6.800   2.667  2.9433  1.1423  1.1409
12361TIP3    H258575   2.217   6.761   2.812 -1.8812 -2.4937 -0.2508
12362TIP3   OH258576   1.715   4.350   5.697 -0.0241  0.4297 -0.0289
12362TIP3    H158577   1.736   4.256   5.695 -0.8165  0.2548 -1.2874
12362TIP3    H258578   1.794   4.392   5.662  0.6979  0.3289  1.4206
12363TIP3   OH258579   1.075   3.066   5.928  0.2014 -0.0022  0.7460
12363TIP3    H158580   1.018   3.026   5.993  1.2635 -0.9465  1.1060
12363TIP3    H258581   1.127   2.994   5.893  0.5986  0.7118 -0.1923
12364TIP3   OH258582   1.028   2.332   2.954  0.1632 -0.0401 -0.0756
12364TIP3    H158583   1.061   2.248   2.921  0.6009  0.0425  0.1447
12364TIP3    H258584   1.099   2.393   2.935 -0.0953  0.2525 -0.0980
12365TIP3   OH258585   3.493   1.739   3.315  0.5180 -0.4827 -0.3299
12365TIP3    H158586   3.455   1.753   3.402  1.0731  1.5024 -0.3683
12365TIP3    H258587   3.585   1.764   3.324  0.4591  0.2765 -1.5991
12366TIP3   OH258588   1.744   6.319  11.492  0.1505 -0.2756 -0.2733
12366TIP3    H158589   1.681   6.375  11.537 -0.6309  0.1193 -1.8158
12366TIP3    H258590   1.785   6.375  11.428  1.1318 -0.8765 -0.1913
12367TIP3   OH258591   1.830   6.250   2.326  0.0353  0.4592  0.1089
12367TIP3    H158592   1.909   6.299   2.350  0.5375 -0.7112  0.9224
12367TIP3    H258593   1.848   6.215   2.239  1.2549 -1.4348  1.0675
12368TIP3   OH258594   0.548   6.310   4.434 -0.1955  1.0224  0.0279
12368TIP3    H158595   0.555   6.233   4.377  2.1670  0.2122  1.2633
12368TIP3    H258596   0.486   6.368   4.389 -0.8392 -0.9108 -1.7294
12369TIP3   OH258597   4.706   4.950  15.917 -0.3245  0.2348 -0.7216
12369TIP3    H158598   4.658   4.925  15.996 -0.3503 -1.9707 -1.3643
12369TIP3    H258599   4.731   5.042  15.931 -3.9309  1.2418  0.0286
12370TIP3   OH258600   6.384   5.197  12.162 -0.6741 -0.5710  0.1374
12370TIP3    H158601   6.311   5.222  12.219 -1.8185 -1.1296 -1.0063
12370TIP3    H258602   6.462   5.218  12.211 -1.6179 -0.0653  1.4732
12371TIP3   OH258603   6.712   1.138  11.346  0.5640 -0.2840 -0.4482
12371TIP3    H158604   6.727   1.048  11.375  2.5512 -0.1253 -0.8510
12371TIP3    H258605   6.633   1.133  11.291 -0.3233 -1.4522  0.8576
12372TIP3   OH258606   1.136   1.396  10.567  0.2117 -0.1255  0.4779
12372TIP3    H158607   1.108   1.327  10.507 -2.5531  0.9413  0.3681
12372TIP3    H258608   1.213   1.434  10.526  0.9732 -2.2195 -0.1458
12373TIP3   OH258609   0.647   0.107  11.664 -0.2731 -0.3400 -0.3630
12373TIP3    H158610   0.566   0.059  11.683 -0.3112  0.0498  0.5444
12373TIP3    H258611   0.637   0.137  11.574 -1.8764  1.0633  0.2208
12374TIP3   OH258612   1.592   5.169   4.225  0.2761 -0.7861  0.0703
12374TIP3    H158613   1.627   5.080   4.233  1.4678 -0.4936 -1.5724
12374TIP3    H258614   1.514   5.159   4.170  0.3958 -0.8182 -0.0936
12375TIP3   OH258615   4.743   6.613   2.282 -0.5930 -0.0288  0.7349
12375TIP3    H158616   4.693   6.569   2.214 -0.9597  0.3555  0.7546
12375TIP3    H258617   4.807   6.547   2.311 -0.1139 -0.0305 -0.3109
12376TIP3   OH258618   3.556   6.594  15.988  0.4471 -0.0313 -0.1213
12376TIP3    H158619   3.608   6.514  15.999 -2.1487 -1.7180  0.9019
12376TIP3    H258620   3.494   6.572  15.919 -1.2157  0.5578  1.1312
12377TIP3   OH258621   2.273   6.076  15.899 -0.3578  0.0148  0.6621
12377TIP3    H158622   2.297   6.085  15.807  1.2125  1.3375  1.1420
12377TIP3    H258623   2.355   6.090  15.947 -0.7476 -2.4612  2.2394
12378TIP3   OH258624   4.967   2.553  16.587  0.0212  0.2008  0.0306
12378TIP3    H158625   5.042   2.512  16.543 -0.0316 -1.2878  1.2175
12378TIP3    H258626   4.904   2.482  16.597  0.0423  0.4272  2.4421
12379TIP3   OH258627   4.047   5.698   4.233 -0.1554 -0.0794  0.3019
12379TIP3    H158628   3.980   5.647   4.279  0.9273 -1.1712  0.7300
12379TIP3    H258629   4.121   5.638   4.225  1.4047  1.6059  1.3440
12380TIP3   OH258630   1.816   1.290  11.913 -0.1807  0.2396 -0.4774
12380TIP3    H158631   1.722   1.273  11.899 -0.2587  0.7699 -0.6550
12380TIP3    H258632   1.838   1.241  11.991 -0.9998  1.3789  0.5152
12381TIP3   OH258633   4.581   5.280   1.348  0.0741  0.5988  0.3788
12381TIP3    H158634   4.498   5.267   1.301  0.5801  1.1257 -0.6903
12381TIP3    H258635   4.642   5.309   1.281  1.2096 -0.0458  1.1040
12382TIP3   OH258636   6.473   2.601   0.046 -0.4455  0.4877  0.2584
12382TIP3    H158637   6.501   2.691   0.031 -0.1961  0.6826  1.7037
12382TIP3    H258638   6.434   2.602   0.134 -1.0771 -0.6736  0.0159
12383TIP3   OH258639   4.073   2.816   1.961  0.8133 -0.2073  0.0866
12383TIP3    H158640   4.121   2.834   1.880  0.0909  0.3447 -0.2305
12383TIP3    H258641   4.074   2.900   2.008  0.0696 -0.1553  0.0218
12384TIP3   OH258642   0.109   5.747   3.334  0.4194  0.1966  0.0202
12384TIP3    H158643   0.070   5.681   3.391  0.5504 -0.7250 -0.9218
12384TIP3    H258644   0.061   5.827   3.353  1.1196  0.1753  2.1299
12385TIP3   OH258645   2.095   0.462   3.736  0.2617 -0.3624 -0.3420
12385TIP3    H158646   2.097   0.423   3.823  1.5960 -0.6455 -0.4823
12385TIP3    H258647   2.004   0.492   3.725  0.0392 -0.4792  1.0618
12386TIP3   OH258648   0.339   4.076  10.696 -0.0067  0.3833 -0.2760
12386TIP3    H158649   0.358   4.124  10.615  1.8734 -2.6166 -1.8139
12386TIP3    H258650   0.396   4.116  10.762  0.7402  0.9241 -1.2241
12387TIP3   OH258651   2.834   0.213   0.082  0.2930 -0.1691  0.5179
12387TIP3    H158652   2.849   0.234  -0.010 -0.8736 -0.2672  0.2912
12387TIP3    H258653   2.844   0.296   0.128  0.0226  0.0520  0.1826
12388TIP3   OH258654   4.799   4.546   2.515 -0.5443 -0.1331 -0.1191
12388TIP3    H158655   4.886   4.516   2.543 -0.1088  2.3519  1.5131
12388TIP3    H258656   4.789   4.510   2.427  1.3638 -1.9379  0.3191
12389TIP3   OH258657   3.869   3.242  14.778 -0.0082 -0.3117  0.0666
12389TIP3    H158658   3.850   3.204  14.863  0.3816  0.5897  0.5613
12389TIP3    H258659   3.791   3.291  14.754 -0.2056 -0.7523 -0.2079
12390TIP3   OH258660   4.301   1.426   4.058  0.4802 -0.5953 -0.1551
12390TIP3    H158661   4.268   1.336   4.056 -2.2173  0.2532  1.4793
12390TIP3    H258662   4.313   1.445   4.151  2.1692  0.3949 -0.5329
12391TIP3   OH258663   0.180   5.087   0.145  0.1602  0.2829 -0.3843
12391TIP3    H158664   0.204   5.171   0.105  1.4913  0.4709  0.7081
12391TIP3    H258665   0.139   5.037   0.074  1.6933  0.8989 -1.7697
12392TIP3   OH258666   5.061   6.018  15.717 -0.0638 -0.3207  0.4516
12392TIP3    H158667   5.007   5.956  15.767  0.0884  0.4460  1.5889
12392TIP3    H258668   5.089   5.968  15.640 -0.9595 -1.2746  0.7252
12393TIP3   OH258669   4.289   5.362  16.496  0.4633 -0.4911  0.6164
12393TIP3    H158670   4.349   5.306  16.546  0.5224  1.7721  3.3408
12393TIP3    H258671   4.343   5.436  16.468 -0.3584 -0.0369  0.1922
12394TIP3   OH258672   5.976   0.694  11.310 -0.6452 -0.0430  0.3541
12394TIP3    H158673   5.885   0.724  11.309 -0.3513  0.8510 -0.1342
12394TIP3    H258674   5.998   0.678  11.218 -0.0525  0.5491  0.3861
12395TIP3   OH258675   4.224   4.226   5.435  0.4443  0.5099  0.4229
12395TIP3    H158676   4.243   4.290   5.504 -1.9548  1.4820  0.2619
12395TIP3    H258677   4.267   4.261   5.357  1.8626  0.2050  1.0380
12396TIP3   OH258678   1.268   5.807  13.614 -0.1211 -0.9206 -0.0274
12396TIP3    H158679   1.349   5.782  13.659  0.3408  0.5186 -0.0311
12396TIP3    H258680   1.199   5.776  13.672  0.4580  0.4790  1.4757
12397TIP3   OH258681   5.680   0.843  11.331 -0.6856 -0.1428 -0.2334
12397TIP3    H158682   5.585   0.830  11.343 -0.5874 -0.4470  0.2852
12397TIP3    H258683   5.691   0.937  11.325 -1.1421 -0.1466 -1.4183
12398TIP3   OH258684   4.151   4.216  10.586 -0.6115  0.3526  0.8990
12398TIP3    H158685   4.135   4.133  10.631 -1.1975  0.8784  1.6794
12398TIP3    H258686   4.240   4.240  10.612 -1.2443  1.0809  2.5198
12399TIP3   OH258687   2.067   1.553   2.799 -0.4266 -0.2831 -0.2199
12399TIP3    H158688   1.990   1.522   2.750 -0.2970 -1.3031  0.1920
12399TIP3    H258689   2.133   1.485   2.784 -0.3220 -0.5114  1.1967
12400TIP3   OH258690   4.392   1.539  14.453  0.3083 -0.2599  0.2846
12400TIP3    H158691   4.434   1.503  14.375  1.2330  0.7269  0.3095
12400TIP3    H258692   4.428   1.627  14.462 -1.8289  0.6517  0.2949
12401TIP3   OH258693   2.591   2.905   5.293  0.4212 -0.1308 -0.5026
12401TIP3    H158694   2.623   2.817   5.313 -2.7587 -1.3987 -0.4402
12401TIP3    H258695   2.586   2.907   5.198 -0.7325 -0.5577 -0.4690
12402TIP3   OH258696   2.999   4.104  11.733 -0.0819 -0.0296  0.2039
12402TIP3    H158697   3.077   4.077  11.685 -0.2692 -0.4997  0.1606
12402TIP3    H258698   2.978   4.030  11.789  0.3022  0.6282  1.2395
12403TIP3   OH258699   2.330   1.409   1.339  0.6816  0.1493 -0.2679
12403TIP3    H158700   2.312   1.408   1.434  0.2723 -2.0630 -0.3150
12403TIP3    H258701   2.395   1.340   1.326 -0.9250 -1.1759 -1.8444
12404TIP3   OH258702   0.208   0.752  15.738  0.9631  0.3828  0.0502
12404TIP3    H158703   0.156   0.734  15.816  0.6471  0.7969 -0.0558
12404TIP3    H258704   0.297   0.766  15.770  1.1845 -1.1425  0.1499
12405TIP3   OH258705   5.488   2.467  13.789  0.5281 -0.4931  0.0636
12405TIP3    H158706   5.516   2.521  13.863 -0.5227 -0.2971  0.3414
12405TIP3    H258707   5.404   2.429  13.818  1.7091 -3.1564  0.3194
12406TIP3   OH258708   2.291   3.284   3.381  0.1984 -0.0490 -0.7189
12406TIP3    H158709   2.308   3.355   3.320  1.0909 -1.0351 -1.6558
12406TIP3    H258710   2.221   3.317   3.438  0.9922  1.7798 -0.7505
12407TIP3   OH258711   6.723   4.290   1.047 -0.7734  0.2124 -0.1915
12407TIP3    H158712   6.735   4.371   0.996 -0.4455  1.6232  2.0015
12407TIP3    H258713   6.683   4.319   1.129  1.9256 -1.4102  1.8773
12408TIP3   OH258714   4.157   0.878  13.297  0.0357  0.3959 -0.6041
12408TIP3    H158715   4.170   0.963  13.256  2.0295  0.5280  0.2040
12408TIP3    H258716   4.232   0.826  13.271  0.1545 -0.2746  0.9413
12409TIP3   OH258717   0.642   4.943  14.701  0.5302  0.1358 -0.1808
12409TIP3    H158718   0.649   5.038  14.688 -0.4199  0.1324 -0.7853
12409TIP3    H258719   0.585   4.933  14.777  2.2191  0.0615  1.1361
12410TIP3   OH258720   3.955   3.576  16.873  0.7384 -0.3869  0.1831
12410TIP3    H158721   3.956   3.638  16.800  1.1149 -1.6572 -0.9252
12410TIP3    H258722   3.862   3.569  16.897  0.7335  0.9269  0.6431
12411TIP3   OH258723   5.812   2.361  11.156 -0.4214 -0.5361 -0.3363
12411TIP3    H158724   5.726   2.335  11.189  0.2628 -1.6886  0.6538
12411TIP3    H258725   5.821   2.316  11.072 -1.2927  0.6563 -1.0999
12412TIP3   OH258726   2.870   2.458  15.721  0.2199 -0.1853 -0.2771
12412TIP3    H158727   2.837   2.406  15.795  0.5175 -0.7199 -0.5161
12412TIP3    H258728   2.954   2.492  15.752  0.2311 -0.2113 -0.2788
12413TIP3   OH258729   6.044   2.179   3.982  0.1731 -0.1684  0.3766
12413TIP3    H158730   6.131   2.204   4.013  0.0779 -0.8206  1.2107
12413TIP3    H258731   6.024   2.099   4.030  0.2031 -1.4903 -1.7092
12414TIP3   OH258732   0.039   3.365  14.681 -0.3625 -0.5889  0.3382
12414TIP3    H158733   0.002   3.294  14.734  2.2374  0.5880  4.1153
12414TIP3    H258734  -0.012   3.442  14.704 -1.0586 -0.5369 -1.2305
12415TIP3   OH258735   2.958   5.478  14.041 -0.2248 -0.0240 -0.1884
12415TIP3    H158736   2.953   5.404  14.101 -2.1664 -0.2667 -0.5873
12415TIP3    H258737   2.985   5.552  14.096 -0.0352 -0.6489  0.5707
12416TIP3   OH258738   4.618   0.360   4.746 -0.1899  0.0827 -0.1589
12416TIP3    H158739   4.648   0.430   4.688  1.8516  0.3476  1.1052
12416TIP3    H258740   4.531   0.337   4.714  0.5065  0.7982 -2.7439
12417TIP3   OH258741   2.891   6.213  14.062 -0.2794 -0.3315 -0.2361
12417TIP3    H158742   2.961   6.226  13.999 -0.0353  2.9260  0.5042
12417TIP3    H258743   2.870   6.301  14.093 -2.5043 -1.4880  1.9522
12418TIP3   OH258744   4.940   6.407  16.474  0.1778 -0.1084 -0.0731
12418TIP3    H158745   4.897   6.334  16.520  0.9738 -0.1172  0.6977
12418TIP3    H258746   5.029   6.407  16.509  0.4362  0.6977 -0.7096
12419TIP3   OH258747   2.747   5.405   1.174 -0.2067 -0.3250  0.7591
12419TIP3    H158748   2.739   5.442   1.086 -2.1854  0.7861  1.3394
12419TIP3    H258749   2.825   5.350   1.170  0.3677  0.5442 -1.3730
12420TIP3   OH258750   1.150   6.599   0.719  0.0755  0.0704 -0.0535
12420TIP3    H158751   1.138   6.507   0.696 -1.4152  0.2645 -0.1633
12420TIP3    H258752   1.087   6.615   0.789  0.4643  0.9601  0.1133
12421TIP3   OH258753   2.144   3.190  17.138 -0.0097 -0.0685  0.4572
12421TIP3    H158754   2.131   3.283  17.121  2.3305  0.1692 -0.4078
12421TIP3    H258755   2.152   3.183  17.233 -2.2110  0.2670  0.7074
12422TIP3   OH258756   3.767   3.000  11.348  0.5443  0.1936  0.3835
12422TIP3    H158757   3.766   2.920  11.400 -1.7379  0.4021  0.7620
12422TIP3    H258758   3.850   3.042  11.371  2.0127 -2.1884 -0.1274
12423TIP3   OH258759   2.008   5.626   1.374  0.1759  0.2846  0.2092
12423TIP3    H158760   2.064   5.704   1.374 -0.0423  0.4614 -0.7772
12423TIP3    H258761   2.069   5.552   1.373  0.4270  0.4772 -1.4122
12424TIP3   OH258762   2.876   1.464  12.325 -0.1020  0.3607  0.0987
12424TIP3    H158763   2.816   1.530  12.358  0.4626  0.5413  0.8099
12424TIP3    H258764   2.839   1.435  12.242 -1.6085 -0.1331  0.9072
12425TIP3   OH258765   2.040   1.648   3.245 -0.2691  0.0512 -0.2043
12425TIP3    H158766   2.135   1.659   3.256 -0.3447  1.5449 -0.8101
12425TIP3    H258767   2.020   1.695   3.164 -1.3645 -1.2393 -0.7146
12426TIP3   OH258768   2.140   4.352   4.754 -0.5027  0.1865 -0.0896
12426TIP3    H158769   2.121   4.392   4.670 -0.2957 -1.4537 -0.9530
12426TIP3    H258770   2.236   4.349   4.758 -0.4840 -2.0448 -0.9948
12427TIP3   OH258771   5.585   0.896  11.849 -0.5582 -0.8364  0.1744
12427TIP3    H158772   5.501   0.923  11.810  0.9768  0.6562 -2.4155
12427TIP3    H258773   5.588   0.801  11.836 -1.8011 -0.9034  0.2607
12428TIP3   OH258774   2.193   1.916  11.647  0.0803 -0.4036 -0.1592
12428TIP3    H158775   2.286   1.935  11.655 -0.2556  1.3528 -0.0130
12428TIP3    H258776   2.175   1.922  11.553 -0.1041  0.5367 -0.0777
12429TIP3   OH258777   3.674   6.749  14.249  0.6817  0.9518 -0.4753
12429TIP3    H158778   3.698   6.694  14.324 -0.5169 -0.5623 -1.1459
12429TIP3    H258779   3.756   6.789  14.221  1.4321  0.2155  0.5949
12430TIP3   OH258780   4.364   3.304   5.991  0.6904  0.6828 -0.1845
12430TIP3    H158781   4.286   3.350   5.959 -0.7431  1.0126  3.3050
12430TIP3    H258782   4.406   3.367   6.050 -0.0961 -1.5432  2.9976
12431TIP3   OH258783   1.430   5.880   6.299  0.4589  0.0268 -0.7200
12431TIP3    H158784   1.420   5.833   6.216  0.2204 -0.4913 -0.4040
12431TIP3    H258785   1.524   5.886   6.312  0.5020  0.3624 -1.1700
12432TIP3   OH258786   1.988   6.630  13.808  0.7091 -0.0935  0.4670
12432TIP3    H158787   2.073   6.600  13.778  2.2654  1.3266  3.0468
12432TIP3    H258788   1.977   6.716  13.767  2.0643  1.1096  2.4447
12433TIP3   OH258789   4.224   5.579   5.912  0.4720 -0.0614  0.1734
12433TIP3    H158790   4.237   5.627   5.994 -0.3163 -1.7293  1.3210
12433TIP3    H258791   4.283   5.622   5.850  1.2507  1.1126  1.6621
12434TIP3   OH258792   4.520   6.680  14.718  0.4382  0.2974 -0.2057
12434TIP3    H158793   4.434   6.662  14.758  0.6475  2.2894  1.2995
12434TIP3    H258794   4.522   6.626  14.640 -1.2521 -1.5423  0.9320
12435TIP3   OH258795   1.252   5.630   0.966 -0.1818 -0.2108  0.2364
12435TIP3    H158796   1.204   5.646   0.885 -1.1684  1.8941  1.1589
12435TIP3    H258797   1.187   5.592   1.026 -0.3237  1.1798  1.0005
12436TIP3   OH258798   4.209   4.219   2.288 -0.1828 -0.1047  0.1458
12436TIP3    H158799   4.241   4.136   2.252  0.9159  1.2945 -2.3784
12436TIP3    H258800   4.208   4.279   2.213 -0.3987  2.3376  1.9743
12437TIP3   OH258801   5.101   0.384   3.962  0.0018 -0.1822 -0.2683
12437TIP3    H158802   5.087   0.346   3.876  0.1160  1.7019 -1.1840
12437TIP3    H258803   5.101   0.479   3.947 -0.1842  0.2179  1.8379
12438TIP3   OH258804   1.382   1.591  16.188  0.6031 -0.3245  0.7978
12438TIP3    H158805   1.412   1.682  16.198 -0.2864  0.1976 -0.9074
12438TIP3    H258806   1.293   1.591  16.222  0.2008 -0.2679 -0.2157
12439TIP3   OH258807   1.018   2.439  16.323 -0.1697  0.3837 -0.2760
12439TIP3    H158808   1.083   2.493  16.367  1.1977 -0.3918 -1.2807
12439TIP3    H258809   1.057   2.418  16.238 -0.9060 -1.6860 -0.1463
12440TIP3   OH258810   2.767   2.655  12.453  0.6851 -0.6384 -0.0850
12440TIP3    H158811   2.708   2.708  12.508  1.3999 -1.5346  1.6427
12440TIP3    H258812   2.848   2.706  12.450  0.5790 -0.4949 -0.4773
12441TIP3   OH258813   3.335   6.220  12.512 -0.3094 -0.4925  0.0130
12441TIP3    H158814   3.323   6.236  12.418 -1.2213  0.3568  0.2573
12441TIP3    H258815   3.426   6.193  12.520 -0.1983 -0.4961 -1.1120
12442TIP3   OH258816   0.929   0.571  13.614  0.0954  0.4069  0.5591
12442TIP3    H158817   0.876   0.645  13.644  0.6626  1.3498 -0.6668
12442TIP3    H258818   0.949   0.591  13.523 -0.1036 -1.4989  0.0463
12443TIP3   OH258819   2.997   6.705   6.073  0.9593 -0.1336 -0.5663
12443TIP3    H158820   2.968   6.641   6.137 -2.3631  0.0671 -1.6677
12443TIP3    H258821   3.019   6.782   6.124 -0.4920 -0.3521  0.4497
12444TIP3   OH258822   1.113   2.015  11.795 -0.0572  0.1986 -1.2860
12444TIP3    H158823   1.148   1.926  11.798  2.9480  1.2789  1.4117
12444TIP3    H258824   1.043   2.017  11.860 -0.1780 -0.1900 -1.4038
12445TIP3   OH258825   0.915   6.085   3.444  0.0747 -0.4253  0.1005
12445TIP3    H158826   0.881   6.158   3.394 -1.0496 -0.7654  0.3439
12445TIP3    H258827   0.857   6.012   3.423  0.7787 -1.0815  0.3727
12446TIP3   OH258828   0.448   4.747   5.668  0.4101  0.1949 -0.2138
12446TIP3    H158829   0.430   4.678   5.604  0.2677  0.0926 -0.0622
12446TIP3    H258830   0.473   4.822   5.615  0.1166  0.1629 -0.3962
12447TIP3   OH258831   6.094   5.435  10.774  0.1556 -0.1958 -0.1345
12447TIP3    H158832   6.046   5.359  10.807 -2.4425  1.3932  0.0061
12447TIP3    H258833   6.030   5.483  10.721  1.0908  2.8779  1.3071
12448TIP3   OH258834   1.867   4.347   1.846  0.2638  0.2243 -0.0461
12448TIP3    H158835   1.826   4.382   1.767 -0.0650 -2.9490 -1.4489
12448TIP3    H258836   1.957   4.326   1.818  0.3970 -0.1518  0.6439
12449TIP3   OH258837   4.377   0.502  13.070  0.5534 -0.1291 -0.0471
12449TIP3    H158838   4.432   0.427  13.050  0.2556  0.0887 -1.9096
12449TIP3    H258839   4.304   0.495  13.008 -0.6642  0.4786  1.2544
12450TIP3   OH258840   1.781   2.886   2.072  0.2596 -0.2010  0.0753
12450TIP3    H158841   1.807   2.965   2.120  1.4333 -1.0515  0.8933
12450TIP3    H258842   1.863   2.840   2.057 -0.2063 -0.4567 -1.8954
12451TIP3   OH258843   4.683   0.738   6.471  0.0739 -0.0827 -0.2606
12451TIP3    H158844   4.764   0.779   6.439  2.4688 -2.0305  2.7943
12451TIP3    H258845   4.695   0.645   6.456 -1.8624 -0.3903 -0.1533
12452TIP3   OH258846   4.001   4.480   1.496 -0.0091  0.2809  0.4715
12452TIP3    H158847   3.950   4.399   1.491 -0.1319  0.4384 -2.1453
12452TIP3    H258848   3.935   4.549   1.502  0.0543  0.2958  1.1044
12453TIP3   OH258849   4.034   3.438   5.652  0.1744  0.0398 -0.0592
12453TIP3    H158850   4.020   3.343   5.657  1.2949 -0.0934  0.9723
12453TIP3    H258851   4.124   3.450   5.682  0.6039  1.2838 -1.7103
12454TIP3   OH258852   1.775   6.278  16.530 -0.0980  0.1834  0.2529
12454TIP3    H158853   1.764   6.321  16.445  0.2558  2.3532  1.2369
12454TIP3    H258854   1.860   6.308  16.562 -0.2809 -0.4838  1.4429
12455TIP3   OH258855   2.592   0.056  15.029 -0.0726  0.4063 -0.0460
12455TIP3    H158856   2.557   0.090  15.111 -1.7208 -0.3481 -0.4079
12455TIP3    H258857   2.549   0.107  14.960  1.7284  1.4421 -0.4815
12456TIP3   OH258858   0.765   0.237  14.949 -0.3693 -0.1275 -1.0992
12456TIP3    H158859   0.723   0.259  14.866  0.0118  3.3224 -0.5451
12456TIP3    H258860   0.854   0.271  14.940 -0.0872 -0.3946  0.4296
12457TIP3   OH258861   4.121   1.663   3.490  0.0253  0.4413 -0.3745
12457TIP3    H158862   4.183   1.703   3.429 -0.9717  3.1451  0.2378
12457TIP3    H258863   4.176   1.618   3.554  1.1554 -0.5838 -1.9889
12458TIP3   OH258864   4.488   4.197  15.339  0.3116 -0.7464 -0.3624
12458TIP3    H158865   4.510   4.198  15.246  0.2107  0.5083 -0.3978
12458TIP3    H258866   4.553   4.256  15.379 -0.3871 -0.3196  0.1617
12459TIP3   OH258867   5.208   1.692   6.079  0.5233 -0.6189  0.3613
12459TIP3    H158868   5.242   1.765   6.026  1.6616 -0.5207  1.1979
12459TIP3    H258869   5.165   1.635   6.015  0.8428  0.0802 -0.5035
12460TIP3   OH258870   3.396   4.963  13.813  0.2141  0.1127  0.9561
12460TIP3    H158871   3.482   4.923  13.798 -0.6511 -1.2971 -0.7047
12460TIP3    H258872   3.405   5.053  13.783  0.6924 -0.5064 -0.8542
12461TIP3   OH258873   6.616   4.172  10.698  0.1060  0.2220 -0.1868
12461TIP3    H158874   6.704   4.210  10.693  0.0559  0.6037  1.4119
12461TIP3    H258875   6.631   4.083  10.730  0.0372 -0.3884 -1.7632
12462TIP3   OH258876   6.718   0.492  14.855  0.4307  0.1888  0.0379
12462TIP3    H158877   6.647   0.539  14.812 -0.7613 -0.4058  1.2788
12462TIP3    H258878   6.744   0.425  14.792  0.0460  0.5599 -0.5216
12463TIP3   OH258879   4.461   6.567  14.426  0.3356  0.0996 -0.3465
12463TIP3    H158880   4.430   6.593  14.339 -0.6981  0.8462  0.2195
12463TIP3    H258881   4.422   6.481  14.441  0.2039  0.1364 -0.4756
12464TIP3   OH258882   1.048   1.222   1.895  0.4029  0.0355 -1.0605
12464TIP3    H158883   1.143   1.226   1.904  0.4041 -0.5313 -0.8096
12464TIP3    H258884   1.032   1.235   1.801  0.6818  0.8536 -0.9988
12465TIP3   OH258885   6.552   0.333  13.406  0.4100 -0.3324 -0.3690
12465TIP3    H158886   6.533   0.401  13.472  0.6191  0.2743 -0.9268
12465TIP3    H258887   6.640   0.302  13.429  0.9959  0.7393 -1.0731
12466TIP3   OH258888   3.130   0.246  15.930 -0.9025  0.2908 -0.0883
12466TIP3    H158889   3.075   0.184  15.882 -1.0734  0.3291  0.0533
12466TIP3    H258890   3.217   0.235  15.894 -0.5190 -1.3743  1.1943
12467TIP3   OH258891   3.134   6.147  15.527  0.1766  0.0170 -0.0639
12467TIP3    H158892   3.094   6.107  15.450  2.2222  0.3035 -1.3489
12467TIP3    H258893   3.211   6.093  15.545  2.3444  2.5062 -1.1226
12468TIP3   OH258894   6.152   6.709   2.979 -0.0015 -0.0219 -0.6700
12468TIP3    H158895   6.153   6.676   3.069 -0.4095 -0.0579 -0.6749
12468TIP3    H258896   6.169   6.631   2.925  0.6554  0.0756 -0.6065
12469TIP3   OH258897   4.138   5.380  15.832 -0.5618  0.2016 -0.2730
12469TIP3    H158898   4.131   5.449  15.898  1.4140 -0.7902  1.0854
12469TIP3    H258899   4.205   5.411  15.771  0.3887 -0.4907  0.3833
12470TIP3   OH258900   0.011   1.283   1.536 -0.2070 -0.1241 -0.0651
12470TIP3    H158901   0.017   1.191   1.512 -0.8996  0.1089 -1.1714
12470TIP3    H258902  -0.047   1.283   1.612  1.7658 -0.8261  1.5435
12471TIP3   OH258903   1.984   3.934   5.687 -0.7228 -0.2727  0.1277
12471TIP3    H158904   2.037   4.014   5.682 -0.1703 -0.6833 -1.7757
12471TIP3    H258905   1.914   3.954   5.748 -1.2835  2.1094 -1.1779
12472TIP3   OH258906   5.940   5.860  14.890 -0.0581 -0.1662 -0.1682
12472TIP3    H158907   5.891   5.903  14.960 -1.5407 -1.9753 -0.0204
12472TIP3    H258908   5.908   5.770  14.890  0.5374 -0.4519 -2.5944
12473TIP3   OH258909   4.649   4.009   3.101 -0.0232 -0.2578 -0.0183
12473TIP3    H158910   4.608   4.095   3.090 -0.0301 -0.3653 -0.8800
12473TIP3    H258911   4.580   3.946   3.079 -0.5075 -0.5585  2.1268
12474TIP3   OH258912   1.557   0.850  14.622  0.3451  0.4660 -0.0016
12474TIP3    H158913   1.535   0.889  14.707  0.1579  1.0381 -0.3056
12474TIP3    H258914   1.653   0.857  14.616  0.9388 -3.3297  1.9545
12475TIP3   OH258915   2.079   5.162  13.155  0.4695 -0.2559 -0.1480
12475TIP3    H158916   2.035   5.079  13.174  0.6505 -0.1935  0.5354
12475TIP3    H258917   2.054   5.181  13.064  0.8264 -1.3038 -0.4876
12476TIP3   OH258918   2.751   5.971   5.939  0.1249  0.2076 -0.1184
12476TIP3    H158919   2.754   5.914   6.016 -0.1471  0.9810  0.4775
12476TIP3    H258920   2.737   5.912   5.865 -0.5422 -0.4554  0.5325
12477TIP3   OH258921   1.639   0.496   5.567  0.1944  0.3219 -0.0867
12477TIP3    H158922   1.640   0.403   5.544  1.5114  0.2033  0.3749
12477TIP3    H258923   1.549   0.523   5.551 -0.3321 -1.1505  0.2015
12478TIP3   OH258924   1.502   4.189  14.292  0.2430 -0.1620 -0.1098
12478TIP3    H158925   1.506   4.095  14.277 -0.9637 -0.1658 -0.5328
12478TIP3    H258926   1.408   4.208  14.297  0.4458  1.1476 -0.8968
12479TIP3   OH258927   0.418   2.541  12.212 -0.3240  0.3952 -0.0442
12479TIP3    H158928   0.330   2.519  12.180 -0.1770  1.3573 -1.1456
12479TIP3    H258929   0.415   2.519  12.305 -1.7891  0.5717 -0.0205
12480TIP3   OH258930   5.105   6.413   5.631  0.1009 -0.2010 -0.1873
12480TIP3    H158931   5.111   6.441   5.540 -0.6119 -0.8325 -0.4386
12480TIP3    H258932   5.036   6.467   5.669 -1.0495 -1.3380 -0.5871
12481TIP3   OH258933   4.203   2.726  15.722 -0.0649 -0.6138  0.5943
12481TIP3    H158934   4.185   2.711  15.814  0.0584  0.4287  0.8012
12481TIP3    H258935   4.119   2.709  15.678 -0.2147 -0.7642  0.9430
12482TIP3   OH258936   1.638   0.924  12.731 -0.3867  0.2262  0.0636
12482TIP3    H158937   1.622   0.844  12.680 -0.7734 -0.9593  1.9547
12482TIP3    H258938   1.686   0.981  12.671 -1.2912 -0.8681 -1.7947
12483TIP3   OH258939   1.395   2.554   3.686 -0.3355 -0.0144  0.2161
12483TIP3    H158940   1.363   2.561   3.776 -1.2093 -2.0232  0.1149
12483TIP3    H258941   1.316   2.552   3.633 -0.0644 -2.8360 -0.2292
12484TIP3   OH258942   5.611   0.568  15.169 -0.1861  0.1024  0.1070
12484TIP3    H158943   5.574   0.647  15.130 -1.2912  0.3653  1.6083
12484TIP3    H258944   5.550   0.498  15.147  0.8485 -0.3971 -1.3149
12485TIP3   OH258945   4.459   3.433   2.493 -0.1482  0.5145 -0.0448
12485TIP3    H158946   4.471   3.388   2.409  0.8838 -0.4860  0.5974
12485TIP3    H258947   4.458   3.526   2.471  1.5200  0.3322 -1.0495
12486TIP3   OH258948   3.080   6.163   5.722 -0.5108  0.1118  0.2663
12486TIP3    H158949   2.987   6.161   5.743 -0.8176  0.0676 -0.9904
12486TIP3    H258950   3.083   6.182   5.628  0.7810  1.3256  0.5197
12487TIP3   OH258951   6.754   4.985   3.879 -0.0210  0.5038 -0.1781
12487TIP3    H158952   6.848   5.002   3.876  0.2876 -1.0474 -0.1003
12487TIP3    H258953   6.729   5.005   3.969 -0.3129  3.4038 -0.8328
12488TIP3   OH258954   0.105   2.001   5.393  0.1736 -0.2825  0.6041
12488TIP3    H158955   0.014   2.020   5.415 -0.3630 -2.9138  0.9191
12488TIP3    H258956   0.127   2.065   5.325 -0.7214  2.7074  2.8951
12489TIP3   OH258957   1.944   1.585   3.490  0.0889 -0.5383  0.1370
12489TIP3    H158958   1.855   1.557   3.471  0.3994 -1.9384  0.5848
12489TIP3    H258959   1.981   1.607   3.405 -0.1201 -1.7696 -0.2919
12490TIP3   OH258960   0.504   6.058  11.150  0.3250 -0.2628  0.7238
12490TIP3    H158961   0.588   6.012  11.157 -0.1764 -1.9724 -2.4832
12490TIP3    H258962   0.513   6.112  11.071 -0.8894  1.2486  1.5651
12491TIP3   OH258963   2.647   1.889  10.813 -0.1316 -0.0664 -0.3912
12491TIP3    H158964   2.717   1.942  10.849 -0.2242  0.7469 -1.3559
12491TIP3    H258965   2.691   1.818  10.767  0.1509  0.9912 -1.8522
12492TIP3   OH258966   2.910   1.926   3.653  0.0164 -0.2790  0.5520
12492TIP3    H158967   2.946   1.837   3.660 -0.6912 -0.4494  2.8753
12492TIP3    H258968   2.819   1.913   3.625  0.7751 -0.0038 -2.4588
12493TIP3   OH258969   0.697   1.928   2.680 -0.0204 -0.0578  0.3124
12493TIP3    H158970   0.760   1.876   2.730  0.3098  0.8970  0.9059
12493TIP3    H258971   0.725   2.018   2.691 -0.7015  0.2798 -0.5501
12494TIP3   OH258972   6.362   5.248  14.389  0.0850 -0.4171 -0.0822
12494TIP3    H158973   6.345   5.199  14.309 -0.2609 -2.1485  0.9990
12494TIP3    H258974   6.277   5.254  14.433  0.3595  0.0484  0.4026
12495TIP3   OH258975   2.892   4.722  13.631 -0.2653 -0.3505 -0.0538
12495TIP3    H158976   2.950   4.716  13.556 -1.4441  0.7876 -1.1079
12495TIP3    H258977   2.880   4.816  13.645 -0.9442 -0.5514  0.8576
12496TIP3   OH258978   0.201   1.017  16.584 -0.0225 -0.1990  0.3192
12496TIP3    H158979   0.119   0.969  16.598  0.2656 -0.7968  0.0125
12496TIP3    H258980   0.197   1.090  16.645 -0.6406 -0.4087  0.5356
12497TIP3   OH258981   3.020   0.902   3.812  0.4291  0.0658  0.5047
12497TIP3    H158982   3.029   0.879   3.905 -1.4118  0.2841  0.7749
12497TIP3    H258983   2.959   0.976   3.812  0.7349  0.3337 -0.8628
12498TIP3   OH258984   5.293   3.915   5.556 -0.1930  0.7101 -0.2119
12498TIP3    H158985   5.331   3.926   5.643 -0.0152  1.3873 -0.3736
12498TIP3    H258986   5.274   4.003   5.526 -2.8214  0.3837  0.2346
12499TIP3   OH258987   2.259   1.019   2.744  0.2032 -0.3087 -0.5013
12499TIP3    H158988   2.317   0.943   2.746 -0.5046 -0.9262 -1.8310
12499TIP3    H258989   2.174   0.983   2.716 -0.1285  0.9828 -1.2317
12500TIP3   OH258990   2.813   3.287   5.264  0.4206  0.0069 -0.2003
12500TIP3    H158991   2.826   3.193   5.252 -2.1248 -0.3983 -0.1921
12500TIP3    H258992   2.794   3.298   5.357  0.5456  0.5082 -0.2306
12501TIP3   OH258993   5.687   2.730   1.318 -0.1096 -0.3888  0.1095
12501TIP3    H158994   5.646   2.731   1.404 -1.4749  0.7634 -0.5054
12501TIP3    H258995   5.655   2.810   1.276  1.8033 -0.0893 -0.8873
12502TIP3   OH258996   4.697   0.496   6.323  0.6839  0.0316  0.3628
12502TIP3    H158997   4.777   0.467   6.279  0.1943  1.7962 -1.9418
12502TIP3    H258998   4.654   0.415   6.350  1.1824 -1.2600 -2.3010
12503TIP3   OH258999   5.231   4.637   5.378  0.1084  0.0616  0.1220
12503TIP3    H159000   5.187   4.572   5.433  1.6529 -1.9001 -0.8326
12503TIP3    H259001   5.171   4.711   5.377 -1.8215 -1.3761  1.1639
12504TIP3   OH259002   4.215   4.844   5.896  0.1054  0.5333 -0.7387
12504TIP3    H159003   4.165   4.775   5.853  1.4647  0.2014 -1.8577
12504TIP3    H259004   4.209   4.823   5.990 -1.3671  0.2123 -0.8840
12505TIP3   OH259005   0.120   0.503   0.423 -0.4638  0.2430 -0.0956
12505TIP3    H159006   0.056   0.517   0.493  0.4795  1.0260  0.6345
12505TIP3    H259007   0.112   0.410   0.402 -0.2123 -0.2093  1.6312
12506TIP3   OH259008   2.700   6.057  12.410  0.1152  0.9230 -0.0303
12506TIP3    H159009   2.785   6.081  12.445 -0.0726  0.9222  0.4301
12506TIP3    H259010   2.695   5.962  12.422 -0.5602  1.1066  1.3298
12507TIP3   OH259011   3.302   6.217   1.135  1.0016 -0.3055 -0.0669
12507TIP3    H159012   3.285   6.201   1.042 -0.2023  1.4055 -0.1894
12507TIP3    H259013   3.222   6.188   1.179  1.2812 -0.4378  0.3573
12508TIP3   OH259014   3.589   1.208   1.014  0.3183 -0.0895  0.1920
12508TIP3    H159015   3.517   1.197   0.952 -0.2819 -1.4902  1.0802
12508TIP3    H259016   3.607   1.302   1.014 -1.2523  0.2407 -0.3532
12509TIP3   OH259017   3.167   2.783  12.661  0.1040 -0.4187 -0.1077
12509TIP3    H159018   3.254   2.792  12.701  1.6456 -0.9434 -3.0379
12509TIP3    H259019   3.113   2.742  12.729  1.6816  1.3013  2.3223
12510TIP3   OH259020   6.177   4.776   4.210  0.7823 -0.2036  0.1353
12510TIP3    H159021   6.097   4.757   4.161  1.4385 -0.5231 -0.8474
12510TIP3    H259022   6.188   4.871   4.204 -0.2159  0.0061  1.3992
12511TIP3   OH259023   4.551   3.693  11.310  0.4169 -0.0027 -0.3687
12511TIP3    H159024   4.500   3.633  11.365  0.2195  0.2848 -0.2385
12511TIP3    H259025   4.541   3.659  11.222  0.2810 -0.1469 -0.2982
12512TIP3   OH259026   5.317   6.024   3.950  0.2322 -0.1345  0.7392
12512TIP3    H159027   5.402   5.984   3.969 -0.2290 -1.9749 -0.8095
12512TIP3    H259028   5.311   6.024   3.855 -2.5267 -2.4581  0.7854
12513TIP3   OH259029   4.842   6.190   4.130 -0.0422  0.1057  0.2897
12513TIP3    H159030   4.838   6.256   4.060 -1.5502  0.4161  0.6390
12513TIP3    H259031   4.871   6.110   4.086  0.7329  0.7123 -0.3494
12514TIP3   OH259032   6.651   2.514  15.736  0.1080 -0.0206 -0.1175
12514TIP3    H159033   6.606   2.446  15.787 -0.4925  0.2412 -0.2888
12514TIP3    H259034   6.586   2.543  15.672  0.8905 -0.4573 -1.1487
12515TIP3   OH259035   3.625   1.021   0.106  0.1617  0.2063 -0.4671
12515TIP3    H159036   3.542   1.065   0.125  0.3699  0.8937 -1.1396
12515TIP3    H259037   3.678   1.087   0.063  1.7589  0.3702  1.5863
12516TIP3   OH259038   3.263   5.195   1.453 -0.2973 -0.6540  0.1541
12516TIP3    H159039   3.197   5.205   1.522 -1.2188 -2.0563 -0.4683
12516TIP3    H259040   3.234   5.254   1.383  0.3168  0.3303  0.7044
12517TIP3   OH259041   5.597   3.199   4.383 -0.2739  0.0494 -0.1207
12517TIP3    H159042   5.652   3.191   4.305 -0.9293  0.2557 -0.6076
12517TIP3    H259043   5.520   3.248   4.354 -0.4261  0.3191  0.7066
12518TIP3   OH259044   2.409   1.619   3.912 -0.7311 -0.3224  0.0319
12518TIP3    H159045   2.404   1.551   3.980  0.5863 -0.8019 -0.3214
12518TIP3    H259046   2.346   1.592   3.846  0.6222 -1.8990 -0.6827
12519TIP3   OH259047   1.233   0.525  12.163  0.4172 -0.3968  0.5805
12519TIP3    H159048   1.152   0.501  12.208 -0.3816  0.1846 -0.5028
12519TIP3    H259049   1.264   0.443  12.125 -1.3292 -0.1484 -1.5698
12520TIP3   OH259050   1.023   3.124  13.981  0.3674  0.0035 -0.0700
12520TIP3    H159051   0.963   3.089  14.046 -1.1349  1.7991 -0.4008
12520TIP3    H259052   1.105   3.140  14.029 -0.8411  1.7232  1.5561
12521TIP3   OH259053   0.948   2.161   4.006  0.1372  0.0802 -0.2306
12521TIP3    H159054   0.952   2.170   4.101  0.9081  2.3283 -0.4165
12521TIP3    H259055   0.989   2.241   3.972  1.2148 -1.3190 -2.4701
12522TIP3   OH259056   3.431   5.679  16.145  0.0254  0.2917  0.2936
12522TIP3    H159057   3.366   5.691  16.214  0.5704  1.7662  0.5829
12522TIP3    H259058   3.480   5.761  16.144  1.6178 -0.6250 -0.1982
12523TIP3   OH259059   0.055   4.931   5.728  0.4629 -0.0347  0.2971
12523TIP3    H159060   0.056   4.963   5.638  2.1390  0.4387  0.4422
12523TIP3    H259061  -0.035   4.945   5.758 -0.5437 -1.5606 -1.7376
12524TIP3   OH259062   0.406   2.097  14.123 -0.0401 -0.5011  0.7579
12524TIP3    H159063   0.394   2.002  14.129  0.6066 -0.5156  2.3406
12524TIP3    H259064   0.345   2.133  14.188 -0.1220  0.1644  0.3209
12525TIP3   OH259065   1.696   0.872  11.533  0.3202 -0.0733  0.2204
12525TIP3    H159066   1.687   0.850  11.440 -0.3088  0.8285  0.0541
12525TIP3    H259067   1.677   0.966  11.537  2.6228  0.4156  0.9455
12526TIP3   OH259068   6.149   1.023  15.189 -0.2699  0.2548  0.2819
12526TIP3    H159069   6.176   0.982  15.107 -1.5388  0.4191 -0.2389
12526TIP3    H259070   6.061   0.990  15.205  0.0375  0.0301  1.7279
12527TIP3   OH259071   2.092   6.402  14.872 -0.3461 -0.3190  0.1957
12527TIP3    H159072   2.072   6.489  14.906  2.2534  0.7907 -0.8697
12527TIP3    H259073   2.030   6.390  14.799 -1.7421 -0.0667  1.3011
12528TIP3   OH259074   6.352   5.046   2.369 -0.0703 -0.6187  0.0653
12528TIP3    H159075   6.428   5.102   2.355  0.4232 -1.0960  0.8078
12528TIP3    H259076   6.283   5.105   2.398 -0.5242  0.0916 -2.2276
12529TIP3   OH259077   5.328   0.534   0.134 -0.4822  0.5060 -0.2852
12529TIP3    H159078   5.263   0.495   0.075 -0.8796  0.5445  0.1175
12529TIP3    H259079   5.360   0.611   0.087 -0.3903  0.2323 -0.6807
12530TIP3   OH259080   2.074   5.017   1.550 -0.6245 -0.2530 -0.2057
12530TIP3    H159081   2.114   4.960   1.485  2.4615 -0.2650  1.5399
12530TIP3    H259082   2.025   4.957   1.607  0.6537 -0.9043  0.2465
12531TIP3   OH259083   0.780   3.254   1.964  0.0572 -0.2271 -0.1564
12531TIP3    H159084   0.818   3.337   1.934  0.4705 -0.1118  0.6610
12531TIP3    H259085   0.853   3.193   1.963  0.2136 -0.0902  1.0915
12532TIP3   OH259086   6.443   5.525   2.868 -0.4744  0.0381  0.2230
12532TIP3    H159087   6.389   5.467   2.814  1.0569  0.1662 -1.5431
12532TIP3    H259088   6.512   5.469   2.903  0.0592  0.4688 -0.1309
12533TIP3   OH259089   1.035   6.413  10.610 -0.0753  0.8033  0.3184
12533TIP3    H159090   1.099   6.354  10.650 -1.8216 -0.9886  0.6601
12533TIP3    H259091   0.954   6.395  10.658 -1.0249  2.4059 -0.6151
12534TIP3   OH259092   2.527   3.618  15.312  0.9000  0.0244 -0.1817
12534TIP3    H159093   2.451   3.571  15.279  3.7133 -2.6685 -3.6112
12534TIP3    H259094   2.516   3.708  15.281 -1.0275 -0.1588 -0.1355
12535TIP3   OH259095   0.148   3.609  14.578  0.6041 -0.4068 -0.6074
12535TIP3    H159096   0.079   3.654  14.626  0.5135 -0.3847 -0.7591
12535TIP3    H259097   0.159   3.526  14.625 -1.0763 -1.4194 -1.8595
12536TIP3   OH259098   2.138   2.341   1.815 -0.8341 -0.2614 -0.3596
12536TIP3    H159099   2.157   2.320   1.723  0.6120  0.0987 -0.1731
12536TIP3    H259100   2.223   2.368   1.851 -1.2529 -0.9723  1.2410
12537TIP3   OH259101   5.118   6.028   2.817  0.3857 -0.1718  0.0680
12537TIP3    H159102   5.183   5.969   2.778 -0.3293 -0.6564 -0.4189
12537TIP3    H259103   5.063   6.055   2.743  0.9112  1.4026  0.2193
12538TIP3   OH259104   6.016   6.738   2.155  0.3424  0.0177  0.0654
12538TIP3    H159105   5.940   6.742   2.213  1.1784  0.9417  1.1450
12538TIP3    H259106   6.001   6.808   2.091  0.5284  0.5325  0.5853
12539TIP3   OH259107   2.760   2.822  13.036  0.3807  0.2833 -0.2379
12539TIP3    H159108   2.714   2.738  13.036  1.7547 -0.5293 -2.0447
12539TIP3    H259109   2.771   2.844  13.129 -0.7235 -1.1014  0.2534
12540TIP3   OH259110   5.897   6.185   2.198  0.4466 -0.0491 -0.4717
12540TIP3    H159111   5.868   6.217   2.113  3.0315  1.8134 -0.7829
12540TIP3    H259112   5.930   6.097   2.181 -0.1973 -0.1747 -1.1230
12541TIP3   OH259113   5.239   5.204  11.617  0.3254 -0.4265  0.3511
12541TIP3    H159114   5.240   5.126  11.672  1.6904 -0.9929 -0.4501
12541TIP3    H259115   5.316   5.254  11.645  0.5183 -0.2875 -0.4295
12542TIP3   OH259116   2.770   5.329  13.816 -0.5056 -0.2403  0.5313
12542TIP3    H159117   2.707   5.281  13.871 -1.2291  0.9508  0.7619
12542TIP3    H259118   2.831   5.368  13.879 -0.2023 -0.4413  0.3656
12543TIP3   OH259119   6.554   1.583   5.011  0.1963 -0.0438 -0.4683
12543TIP3    H159120   6.581   1.618   5.096  0.1460 -0.6375 -0.1988
12543TIP3    H259121   6.636   1.565   4.965  0.2477 -0.7416 -0.1138
12544TIP3   OH259122   4.320   5.074   3.085 -0.2122  0.0854  0.0635
12544TIP3    H159123   4.404   5.036   3.112  0.2068  0.8143 -0.1972
12544TIP3    H259124   4.266   4.998   3.061 -0.1028 -0.4923  1.5265
12545TIP3   OH259125   3.828   5.570   4.356  0.3848  0.2998 -0.6544
12545TIP3    H159126   3.774   5.645   4.382 -0.0991 -0.4156  0.4553
12545TIP3    H259127   3.819   5.508   4.428  1.3203 -0.5529 -1.2555
12546TIP3   OH259128   4.994   5.716   5.454 -0.6049 -0.2423 -1.1873
12546TIP3    H159129   4.924   5.676   5.402 -2.0604  0.1573  0.3757
12546TIP3    H259130   5.009   5.654   5.525 -0.2263  0.2529 -0.8315
12547TIP3   OH259131   0.113   3.581  17.097  0.0030 -0.0125  0.1447
12547TIP3    H159132   0.103   3.674  17.115  0.2999 -0.0661  0.5873
12547TIP3    H259133   0.120   3.540  17.183 -1.5149 -0.6119  0.0053
12548TIP3   OH259134   2.853   1.786  11.144 -0.3639  0.2847 -0.3866
12548TIP3    H159135   2.874   1.726  11.072  1.0766  0.8181 -0.4424
12548TIP3    H259136   2.790   1.847  11.107 -2.9543 -1.9564  0.0615
12549TIP3   OH259137   5.282   3.692   2.640  0.4529 -0.5387 -0.0495
12549TIP3    H159138   5.358   3.712   2.586  1.0224  1.1125  1.2778
12549TIP3    H259139   5.217   3.757   2.614 -0.2524 -1.4276 -0.5925
12550TIP3   OH259140   0.766   3.476  13.746  0.1640  0.1427 -0.3199
12550TIP3    H159141   0.818   3.493  13.668 -1.7598  0.2169 -1.6312
12550TIP3    H259142   0.718   3.557  13.761  2.3660  1.1099  2.5473
12551TIP3   OH259143   2.290   2.755   5.701 -0.2817  0.5085 -0.0337
12551TIP3    H159144   2.218   2.703   5.736  2.2600 -1.5238  2.8044
12551TIP3    H259145   2.250   2.834   5.667 -3.7349 -0.2183  1.9417
12552TIP3   OH259146   1.305   1.038  12.001 -0.6182  0.1125 -0.2897
12552TIP3    H159147   1.229   1.053  11.946 -0.1468 -1.7393 -1.5419
12552TIP3    H259148   1.307   0.943  12.015  1.9852 -0.0614 -1.1624
12553TIP3   OH259149   4.727   1.091  13.378  0.1855  0.2140 -0.1369
12553TIP3    H159150   4.802   1.031  13.383  0.1251  0.2246  1.1396
12553TIP3    H259151   4.655   1.044  13.420  0.4468  1.5924  1.9938
12554TIP3   OH259152   0.440   3.132   4.449  0.0964 -1.1154 -0.2944
12554TIP3    H159153   0.406   3.091   4.370  0.0413 -0.8709 -0.3980
12554TIP3    H259154   0.398   3.084   4.521 -0.7993 -0.5462 -0.4179
12555TIP3   OH259155   1.755   0.574  12.366 -0.0613  0.3319 -0.0989
12555TIP3    H159156   1.746   0.610  12.278 -0.5965  1.2907  0.3336
12555TIP3    H259157   1.849   0.568  12.381  0.0307  0.6104 -0.5565
12556TIP3   OH259158   1.455   4.182   5.754  0.1689  0.8403 -0.2963
12556TIP3    H159159   1.480   4.264   5.798  0.0624 -0.3755  2.2220
12556TIP3    H259160   1.388   4.145   5.811 -0.1398 -0.7829 -1.6556
12557TIP3   OH259161   5.927   0.260  14.473 -0.3428 -0.2672 -0.2554
12557TIP3    H159162   5.904   0.174  14.508 -0.2763  0.1792  0.9577
12557TIP3    H259163   6.012   0.280  14.512 -0.0537  0.0775 -1.0445
12558TIP3   OH259164   6.591   0.921   1.617 -0.4226 -0.0270  0.4299
12558TIP3    H159165   6.659   0.971   1.660  0.5064  0.0780 -1.0725
12558TIP3    H259166   6.635   0.843   1.584 -1.5421 -1.1333  1.4720
12559TIP3   OH259167   4.090   4.925   4.704 -0.5771  0.2487  0.0844
12559TIP3    H159168   4.182   4.946   4.689 -0.5666  0.7657  0.8214
12559TIP3    H259169   4.090   4.869   4.782 -1.0128  1.6577  1.1255
12560TIP3   OH259170   3.131   3.815   5.151  0.1644 -0.5287  0.2750
12560TIP3    H159171   3.205   3.875   5.148  0.7381 -1.0687  2.2757
12560TIP3    H259172   3.143   3.758   5.075  0.8446  0.4488 -0.3768
12561TIP3   OH259173   1.991   5.530   2.069 -0.2626  0.3428 -0.6522
12561TIP3    H159174   2.077   5.548   2.031 -2.0688  1.7789 -4.5703
12561TIP3    H259175   1.959   5.616   2.096 -0.4339 -0.2259  1.0885
12562TIP3   OH259176   4.983   5.987   0.447  0.7776  0.1033 -0.0921
12562TIP3    H159177   5.044   6.052   0.482  0.6376 -0.2334  0.7871
12562TIP3    H259178   4.897   6.024   0.463  0.7169  0.1045 -0.4052
12563TIP3   OH259179   2.063   0.952  17.043 -0.1902  0.0741  0.1713
12563TIP3    H159180   2.013   1.032  17.056  0.0014  0.1813  0.2677
12563TIP3    H259181   2.055   0.932  16.950 -1.0234 -0.3247  0.3219
12564TIP3   OH259182   1.890   6.818   4.332 -0.0182 -0.0269 -0.0572
12564TIP3    H159183   1.904   6.842   4.240  0.1559  0.8643  0.1903
12564TIP3    H259184   1.806   6.771   4.331 -0.0024 -0.0554 -0.6795
12565TIP3   OH259185   6.673   2.018  15.750  0.2097 -0.2719  0.0787
12565TIP3    H159186   6.638   1.998  15.837  0.4953 -0.6112  0.1211
12565TIP3    H259187   6.767   2.003  15.759  0.2999  0.1640 -0.1612
12566TIP3   OH259188   5.108   0.766  12.281 -0.0548  0.2573 -0.0495
12566TIP3    H159189   5.182   0.783  12.340 -1.0783  1.7742  0.8734
12566TIP3    H259190   5.123   0.825  12.207  0.1570 -0.1554 -0.3405
12567TIP3   OH259191   4.657   3.644   2.177 -0.1613 -0.1175 -0.3988
12567TIP3    H159192   4.699   3.729   2.165  0.4352 -0.3063  0.2379
12567TIP3    H259193   4.595   3.637   2.105 -2.0627  1.9551  0.9256
12568TIP3   OH259194   3.475   3.004  11.882 -0.5665  0.1993 -0.3789
12568TIP3    H159195   3.552   2.949  11.893 -0.6815  0.0449 -0.3471
12568TIP3    H259196   3.443   2.985  11.794 -2.8247 -2.6476  0.8757
12569TIP3   OH259197   6.188   5.665   2.156  1.3179  1.1617 -0.5203
12569TIP3    H159198   6.104   5.639   2.118  1.0930 -0.0905  0.7318
12569TIP3    H259199   6.251   5.604   2.118  1.0642 -0.2141  1.1133
12570TIP3   OH259200   1.611   2.451   2.912  0.5287  0.3653 -0.5409
12570TIP3    H159201   1.643   2.470   2.824 -0.9004 -3.2666 -2.0558
12570TIP3    H259202   1.664   2.376   2.940  1.5612  1.9467  2.2031
12571TIP3   OH259203   6.515   3.389   0.347  0.1094  0.1807 -0.2687
12571TIP3    H159204   6.570   3.323   0.304 -0.1744  0.4818 -1.1113
12571TIP3    H259205   6.543   3.472   0.309  0.0952  0.4990  0.3972
12572TIP3   OH259206   2.708   6.800  14.635  0.4326 -0.4552  0.2827
12572TIP3    H159207   2.674   6.883  14.668  0.2932 -1.3474  2.5798
12572TIP3    H259208   2.718   6.814  14.541  0.1692  2.0556  0.5536
12573TIP3   OH259209   4.139   2.093   0.535  0.0094  0.0768 -0.5941
12573TIP3    H159210   4.145   2.152   0.610 -0.0838 -1.6378  0.8326
12573TIP3    H259211   4.197   2.132   0.469  2.5702  0.0610  1.4878
12574TIP3   OH259212   4.750   3.360  13.386 -0.1764 -0.4261 -0.3520
12574TIP3    H159213   4.729   3.439  13.337 -1.3369 -0.7908 -0.4728
12574TIP3    H259214   4.667   3.334  13.426 -0.0346 -2.0945 -1.0673
12575TIP3   OH259215   3.284   0.045   0.781 -0.2552 -0.1962  0.1601
12575TIP3    H159216   3.374   0.073   0.768 -0.5482  0.7868  0.1849
12575TIP3    H259217   3.285  -0.003   0.864 -0.1243  1.5369  1.1955
12576TIP3   OH259218   2.270   4.815   1.849 -0.1004  0.0286  0.7086
12576TIP3    H159219   2.223   4.770   1.778 -1.2110 -0.1195  1.5262
12576TIP3    H259220   2.350   4.762   1.860 -1.1397 -1.4873  1.3036
12577TIP3   OH259221   6.591   5.279  15.150 -0.1978  0.1769  0.2708
12577TIP3    H159222   6.645   5.358  15.159 -1.0170  0.7078  0.6630
12577TIP3    H259223   6.653   5.208  15.137  0.5298  0.9921 -0.8328
12578TIP3   OH259224   5.792   2.290   0.375  0.6523  0.1261 -0.2346
12578TIP3    H159225   5.785   2.287   0.279 -0.4632  0.8157 -0.1958
12578TIP3    H259226   5.712   2.249   0.406  0.5382  0.7973  0.3855
12579TIP3   OH259227   2.360   4.529   5.207  0.0860  0.1175  0.6931
12579TIP3    H159228   2.266   4.509   5.210 -0.1644  0.8023 -1.2922
12579TIP3    H259229   2.402   4.444   5.193 -0.6056  0.1675 -2.5456
12580TIP3   OH259230   0.665   6.443  12.752  0.2306  0.5294  0.3966
12580TIP3    H159231   0.607   6.475  12.821 -2.7753 -0.0735 -1.6798
12580TIP3    H259232   0.714   6.372  12.793 -1.9225 -0.2529  1.7732
12581TIP3   OH259233   5.032   0.784  13.939  0.1257 -0.0902  1.0350
12581TIP3    H159234   5.046   0.868  13.896 -1.1829 -0.3476  0.0717
12581TIP3    H259235   4.978   0.805  14.015  1.2565  0.1601  1.7987
12582TIP3   OH259236   4.514   4.155  13.990  0.2235  0.4936 -0.3984
12582TIP3    H159237   4.557   4.100  14.055  1.0046 -1.3879 -2.3653
12582TIP3    H259238   4.548   4.123  13.906  0.2395  3.6192 -1.7151
12583TIP3   OH259239   0.596   0.323  10.579  0.0175 -0.0863  0.1032
12583TIP3    H159240   0.674   0.380  10.583  0.6894 -1.0227  0.8213
12583TIP3    H259241   0.561   0.325  10.668 -0.4013 -0.2031 -0.0553
12584TIP3   OH259242   2.075   2.332  17.246 -0.1247  0.0483  0.7803
12584TIP3    H159243   2.125   2.353  17.325 -1.5956 -1.7732  2.2780
12584TIP3    H259244   2.014   2.264  17.273 -0.1747 -1.2063 -2.1428
12585TIP3   OH259245   4.877   1.208  16.338  0.3630 -0.3464 -0.1751
12585TIP3    H159246   4.835   1.273  16.281 -0.2471 -2.5506 -2.4062
12585TIP3    H259247   4.836   1.125  16.314  2.6307 -1.9017  0.9933
12586TIP3   OH259248   2.090   4.596  17.124 -0.1329  0.4602  0.0935
12586TIP3    H159249   2.049   4.670  17.079 -0.5122  1.5835  2.1865
12586TIP3    H259250   2.135   4.635  17.199  2.5098 -1.0567 -0.5789
12587TIP3   OH259251   5.582   0.994  14.019  0.2464  0.3163 -0.2793
12587TIP3    H159252   5.660   0.989  13.965  2.1843 -0.7694  2.3864
12587TIP3    H259253   5.546   0.905  14.018 -0.6268  0.6561 -0.9547
12588TIP3   OH259254   0.511   4.051   3.669 -0.4053 -0.2176 -0.2806
12588TIP3    H159255   0.419   4.029   3.683  0.0351 -1.3384  1.1516
12588TIP3    H259256   0.516   4.145   3.688 -1.5737  0.3147 -2.3349
12589TIP3   OH259257   0.778   5.035   1.773  0.1264  0.2100 -0.1653
12589TIP3    H159258   0.763   5.113   1.825 -1.6121 -0.2795  0.1291
12589TIP3    H259259   0.789   5.067   1.684  1.8503  0.9501  0.2849
12590TIP3   OH259260   1.578   0.072  15.851  0.2878 -0.2933  0.3230
12590TIP3    H159261   1.568   0.126  15.773 -0.4236 -0.1731  0.4911
12590TIP3    H259262   1.489   0.064  15.886  0.8085  1.3256  2.2261
12591TIP3   OH259263   4.296   3.372  16.898 -0.6851 -0.3941  0.1864
12591TIP3    H159264   4.346   3.307  16.946 -0.3005  0.2140  0.6355
12591TIP3    H259265   4.208   3.368  16.935 -1.3827 -2.3830 -1.4968
12592TIP3   OH259266   1.387   5.159   1.713  0.6760  0.1535  0.6941
12592TIP3    H159267   1.478   5.135   1.696  1.2392  2.4305  0.1807
12592TIP3    H259268   1.391   5.211   1.792 -0.1345  0.5692  0.4663
12593TIP3   OH259269   5.960   5.416   2.655 -0.2736 -0.6999 -0.5726
12593TIP3    H159270   5.916   5.498   2.635 -0.6729 -1.0313 -1.0736
12593TIP3    H259271   5.940   5.399   2.747  2.3394  1.3152  0.5148
12594TIP3   OH259272   4.086   2.451   5.709 -0.8075 -0.0823 -0.3956
12594TIP3    H159273   4.018   2.395   5.672  0.8228 -0.3668 -3.2795
12594TIP3    H259274   4.147   2.391   5.751 -1.4251  0.0290  0.7075
12595TIP3   OH259275   0.068   3.498  10.961 -0.1316  0.3821  0.4946
12595TIP3    H159276   0.004   3.432  10.933 -0.6141  0.2144  1.9129
12595TIP3    H259277   0.151   3.450  10.966 -0.5122 -0.2037  1.6899
12596TIP3   OH259278   6.678   1.386   0.103 -0.1800 -0.5703 -0.6758
12596TIP3    H159279   6.757   1.423   0.064  0.0119  0.3579  0.5675
12596TIP3    H259280   6.706   1.301   0.138  0.7551  0.5061  1.3497
12597TIP3   OH259281   2.133   3.522  15.973 -0.3647  0.0477  0.4745
12597TIP3    H159282   2.153   3.440  15.930  0.9342 -0.1914  1.4473
12597TIP3    H259283   2.108   3.497  16.062 -0.5306  0.6696  0.6082
12598TIP3   OH259284   5.952   2.488  12.313 -0.3961 -0.3421 -0.2816
12598TIP3    H159285   5.859   2.488  12.335  0.1615  0.1254  2.4634
12598TIP3    H259286   5.976   2.395  12.309 -0.6609 -0.4511  0.5787
12599TIP3   OH259287   6.109   4.767   5.909 -0.0864 -0.4601 -0.3712
12599TIP3    H159288   6.113   4.803   5.997  0.0675  0.6316 -0.8072
12599TIP3    H259289   6.084   4.675   5.921 -1.4581  0.0291  0.7220
12600TIP3   OH259290   1.702   4.000   5.279 -0.4070  0.2278  0.6417
12600TIP3    H159291   1.646   3.975   5.205  0.7691  1.2410 -0.6499
12600TIP3    H259292   1.777   3.941   5.273  0.2366  1.0487  0.2925
12601TIP3   OH259293   5.410   2.987   1.933 -0.4521 -0.0851  0.0873
12601TIP3    H159294   5.470   3.043   1.883 -1.7736  0.8918 -0.4490
12601TIP3    H259295   5.447   2.985   2.021  1.8291 -1.6865 -0.8057
12602TIP3   OH259296   4.897   3.063   3.193  0.1899 -0.1966 -0.2236
12602TIP3    H159297   4.828   3.114   3.236 -1.9390 -2.8745 -0.1913
12602TIP3    H259298   4.952   3.033   3.266 -0.9577 -1.2674  0.2378
12603TIP3   OH259299   3.824   1.355  13.224  0.3322  0.0147 -0.3357
12603TIP3    H159300   3.904   1.310  13.250 -0.6507 -1.8720 -0.3673
12603TIP3    H259301   3.853   1.423  13.164  1.9600 -0.1678  0.1883
12604TIP3   OH259302   0.988   5.478   1.400  0.0227  0.0207  0.2791
12604TIP3    H159303   1.058   5.433   1.448 -1.0079 -0.5947  1.2444
12604TIP3    H259304   0.908   5.460   1.450 -0.7692  1.1127 -0.5293
12605TIP3   OH259305   0.524   2.499   6.311  0.1088 -0.5832 -0.1293
12605TIP3    H159306   0.615   2.469   6.321  0.3120  0.5353  2.1162
12605TIP3    H259307   0.517   2.524   6.219  1.6991 -1.8197 -0.6332
12606TIP3   OH259308   2.182   5.930  12.035  0.0422  0.0205 -0.4514
12606TIP3    H159309   2.274   5.926  12.008  0.0460  1.3853 -0.7012
12606TIP3    H259310   2.185   5.925  12.130  0.4899  1.2748 -0.3770
12607TIP3   OH259311   5.262   1.618  12.067  0.0917 -0.1317 -0.2191
12607TIP3    H159312   5.298   1.584  12.149  0.2131 -1.2245 -0.7099
12607TIP3    H259313   5.208   1.692  12.094  1.3560  0.4921  0.6954
12608TIP3   OH259314   4.000   3.334   2.180  0.2679 -0.1891  0.2229
12608TIP3    H159315   3.922   3.375   2.143  0.7785  0.4352 -0.1679
12608TIP3    H259316   3.998   3.358   2.273  2.3692  3.7713 -0.5452
12609TIP3   OH259317   6.460   1.762   2.806  0.4218 -0.0765 -0.3339
12609TIP3    H159318   6.456   1.830   2.739 -1.7918 -0.5397 -0.7555
12609TIP3    H259319   6.401   1.694   2.775 -1.7491  0.2627  2.6153
12610TIP3   OH259320   0.056   2.409   6.409  0.3575 -0.2005  0.5175
12610TIP3    H159321   0.017   2.487   6.449  2.5859  0.6311  1.1985
12610TIP3    H259322  -0.017   2.347   6.403 -0.8181  0.7922  2.9082
12611TIP3   OH259323   2.055   3.293   1.338 -0.7693 -0.0582  0.1315
12611TIP3    H159324   2.070   3.201   1.315  1.4241  0.5739 -1.2913
12611TIP3    H259325   2.132   3.317   1.390 -1.3591  0.9625  0.5549
12612TIP3   OH259326   1.650   6.578  16.092 -0.1673 -0.0830  0.6949
12612TIP3    H159327   1.716   6.634  16.131 -1.1998  0.8634  1.1518
12612TIP3    H259328   1.570   6.630  16.093 -0.5633 -0.5363 -1.4587
12613TIP3   OH259329   3.218   0.487  16.013  0.2580  0.3628 -0.2503
12613TIP3    H159330   3.146   0.549  15.998 -0.0733 -0.0908 -0.5264
12613TIP3    H259331   3.184   0.403  15.983 -0.1255 -0.4238  2.1903
12614TIP3   OH259332   5.692   6.789  12.011  0.1162 -0.5173 -0.3335
12614TIP3    H159333   5.607   6.777  12.054 -0.7232  1.2532 -1.3894
12614TIP3    H259334   5.756   6.780  12.082 -0.9963 -1.0009  0.6452
12615TIP3   OH259335   5.367   1.717   2.235  0.0060  0.1746  0.1299
12615TIP3    H159336   5.407   1.803   2.245  0.2696  0.0079  0.5747
12615TIP3    H259337   5.383   1.693   2.144  0.7831  0.1788  0.2593
12616TIP3   OH259338   2.196   5.137  14.965  0.1409  0.2675  0.1604
12616TIP3    H159339   2.214   5.216  15.017 -0.1015 -0.6985  1.7726
12616TIP3    H259340   2.131   5.089  15.017  1.1334 -1.5375 -0.2266
12617TIP3   OH259341   1.807   6.012  16.358 -0.2458 -0.7607  0.1988
12617TIP3    H159342   1.885   6.031  16.306  1.2167 -2.0880  1.7956
12617TIP3    H259343   1.804   6.081  16.424 -0.0119 -1.0766  0.5491
12618TIP3   OH259344   6.715   4.037  15.525  0.0522 -0.3114  0.5112
12618TIP3    H159345   6.735   4.130  15.516  0.9849 -0.4146  1.3715
12618TIP3    H259346   6.713   4.023  15.620 -1.1343 -0.9547  0.4080
12619TIP3   OH259347   2.386   1.913  12.542  0.2859  0.0057 -0.0124
12619TIP3    H159348   2.416   1.830  12.506 -0.7314 -1.2615  1.8785
12619TIP3    H259349   2.333   1.888  12.618  1.2228  2.4324  1.5565
12620TIP3   OH259350   4.881   5.677   1.436  0.5166  0.4980  0.3389
12620TIP3    H159351   4.964   5.713   1.468  1.2850 -0.6622 -0.2738
12620TIP3    H259352   4.880   5.700   1.343  2.2083 -2.9602 -0.7108
12621TIP3   OH259353   4.942   3.412   0.993 -0.1995  0.2629 -0.3506
12621TIP3    H159354   5.021   3.411   1.047  0.6833 -0.7121 -1.5929
12621TIP3    H259355   4.897   3.492   1.018  0.0783 -0.1946  1.9126
12622TIP3   OH259356   2.207   1.936   2.120  0.2361 -0.0426  0.4439
12622TIP3    H159357   2.222   1.973   2.033  0.3274 -0.2088  0.3890
12622TIP3    H259358   2.150   1.861   2.105 -1.5606  1.1916  0.7572
12623TIP3   OH259359   0.322   2.492  13.074  0.0007  0.0387 -0.3827
12623TIP3    H159360   0.308   2.505  13.168 -0.1227  0.7394 -0.4941
12623TIP3    H259361   0.289   2.404  13.057  0.1142 -0.1260  0.2496
12624TIP3   OH259362   1.002   4.514   1.252  0.1748  0.2971 -0.2074
12624TIP3    H159363   1.028   4.468   1.332  0.9882 -0.3911 -0.8572
12624TIP3    H259364   0.907   4.522   1.259 -0.1632 -2.4752 -0.5688
12625TIP3   OH259365   1.387   1.667  13.715 -0.3082 -0.2856  0.5421
12625TIP3    H159366   1.368   1.628  13.630 -1.3015 -0.4908  0.8462
12625TIP3    H259367   1.475   1.635  13.737  0.4574  0.7218 -0.9286
12626TIP3   OH259368   5.883   6.607   5.644 -0.5415  0.3582  0.7756
12626TIP3    H159369   5.806   6.552   5.630  0.7087 -1.4789  0.8404
12626TIP3    H259370   5.932   6.602   5.563  0.1543  0.4693  1.1835
12627TIP3   OH259371   1.235   4.171   5.957 -0.0674  0.1287 -0.4912
12627TIP3    H159372   1.163   4.109   5.971 -0.1894  0.2462 -0.5924
12627TIP3    H259373   1.222   4.239   6.023 -0.5053  0.5582 -1.0031
12628TIP3   OH259374   4.018   1.761   0.320 -0.3706 -0.5469  0.1542
12628TIP3    H159375   4.112   1.752   0.337 -0.1600  2.2588  1.1191
12628TIP3    H259376   3.988   1.826   0.385 -2.5846 -0.0131 -1.2772
12629TIP3   OH259377   6.283   0.281   3.174  0.5833 -0.3235  0.0961
12629TIP3    H159378   6.327   0.216   3.120  1.2918 -0.1365  0.4341
12629TIP3    H259379   6.252   0.347   3.112  0.7748 -0.4620 -0.1469
12630TIP3   OH259380   5.535   1.108   0.777 -0.1595  0.1889 -0.2008
12630TIP3    H159381   5.453   1.146   0.745  0.0878  1.3451  0.4696
12630TIP3    H259382   5.561   1.166   0.849 -0.6690 -2.2406  2.0790
12631TIP3   OH259383   0.509   5.414  16.869 -0.1663 -0.1416 -0.2636
12631TIP3    H159384   0.525   5.357  16.794  0.1748 -1.2651  0.6337
12631TIP3    H259385   0.491   5.500  16.830  0.8507 -0.4857 -1.5960
12632TIP3   OH259386   2.437   4.574   5.849  0.4013  0.3358 -0.1830
12632TIP3    H159387   2.434   4.515   5.924 -2.7835  1.0885  0.4227
12632TIP3    H259388   2.475   4.655   5.883  1.9162 -0.3354 -0.2341
12633TIP3   OH259389   0.496   3.865   1.326  0.2896  0.2912 -0.1916
12633TIP3    H159390   0.516   3.777   1.359  1.7630  0.1792 -1.2466
12633TIP3    H259391   0.533   3.924   1.391 -1.5560  0.1903  1.0158
12634TIP3   OH259392   0.383   0.697   0.331  0.4081 -0.0467 -0.5782
12634TIP3    H159393   0.381   0.625   0.268  0.4783  0.3608 -1.0497
12634TIP3    H259394   0.389   0.654   0.416 -2.5168 -0.7477 -0.5909
12635TIP3   OH259395   5.365   0.143  12.030  0.1662  0.9321  0.1175
12635TIP3    H159396   5.386   0.194  12.109 -2.1913 -0.1338  1.5368
12635TIP3    H259397   5.348   0.209  11.963 -0.3886  1.9702  1.2405
12636TIP3   OH259398   0.162   4.721   1.604 -0.2390 -0.2256  0.5095
12636TIP3    H159399   0.074   4.686   1.619 -1.3555  0.3452 -3.3618
12636TIP3    H259400   0.147   4.809   1.569  1.9127  0.1287  0.3222
12637TIP3   OH259401   4.521   2.839  10.615 -0.0645  0.3351  0.1754
12637TIP3    H159402   4.520   2.934  10.611 -0.0855  0.3578  0.6346
12637TIP3    H259403   4.487   2.811  10.530  0.3207  0.7296 -0.1100
12638TIP3   OH259404   0.025   3.968   1.695  0.4137 -0.5126  0.1439
12638TIP3    H159405   0.029   3.916   1.776 -0.1987  0.3329  0.7513
12638TIP3    H259406   0.072   4.049   1.717 -0.5709  0.1209 -0.0059
12639TIP3   OH259407   1.729   5.396   2.007 -0.1877 -0.5902  0.6111
12639TIP3    H159408   1.808   5.439   2.040 -0.8619  0.6190  0.7184
12639TIP3    H259409   1.760   5.335   1.940  0.6271  2.0309 -1.5637
12640TIP3   OH259410   2.036   2.968  15.322  0.1003  0.1324  0.5301
12640TIP3    H159411   2.016   2.936  15.410  2.4875  0.2412  1.1759
12640TIP3    H259412   2.104   2.909  15.289  0.0811  0.7961 -0.7709
12641TIP3   OH259413   1.579   5.332   5.752  0.3039 -0.5432  0.1490
12641TIP3    H159414   1.656   5.284   5.720 -1.3590 -2.6668 -0.8887
12641TIP3    H259415   1.539   5.369   5.674  0.1337  0.3976  0.6629
12642TIP3   OH259416   3.220   5.322  17.210 -0.0859 -0.1202  0.0679
12642TIP3    H159417   3.155   5.327  17.281  0.4266 -0.4668  0.5688
12642TIP3    H259418   3.290   5.382  17.237  0.4901 -0.8690  0.2647
12643TIP3   OH259419   1.260   6.121   5.920 -0.1894  0.1646 -0.0784
12643TIP3    H159420   1.213   6.165   5.991 -1.1288 -0.5886 -0.2113
12643TIP3    H259421   1.348   6.108   5.955 -0.1611  1.2686  0.3200
12644TIP3   OH259422   4.028   0.490  13.236  0.4635  0.4252  0.1022
12644TIP3    H159423   4.100   0.427  13.229 -0.7974 -0.9787 -0.7284
12644TIP3    H259424   4.055   0.564  13.182  0.6070 -0.7751 -1.5250
12645TIP3   OH259425   5.073   1.139  11.083  0.3430  0.2721  0.4498
12645TIP3    H159426   5.038   1.151  11.171  0.3119 -0.0921  0.4895
12645TIP3    H259427   5.002   1.097  11.035  0.5079  0.0899  0.3644
12646TIP3   OH259428   1.910   0.409   5.495 -0.1365 -0.5856 -0.2037
12646TIP3    H159429   1.832   0.432   5.544  0.1529 -2.2110  1.1126
12646TIP3    H259430   1.976   0.391   5.562  0.0935 -3.5452 -1.0956
12647TIP3   OH259431   1.750   6.803   3.416 -0.0788  0.3173 -0.1746
12647TIP3    H159432   1.830   6.750   3.421 -1.0346 -1.1156  1.0001
12647TIP3    H259433   1.700   6.777   3.493 -1.4624  1.5763 -0.5989
12648TIP3   OH259434   5.986   3.847  11.452 -0.1108 -0.4969  0.5031
12648TIP3    H159435   5.989   3.940  11.472 -1.2018 -0.3880  0.2440
12648TIP3    H259436   5.946   3.807  11.530 -0.7629 -0.5787  0.1366
12649TIP3   OH259437   6.106   1.804   5.755  0.7270  0.3704  0.2731
12649TIP3    H159438   6.176   1.830   5.696 -0.3292 -0.9530 -1.6616
12649TIP3    H259439   6.026   1.812   5.703 -0.0336 -2.9982  0.7053
12650TIP3   OH259440   1.049   5.557   1.149 -0.2850  0.3448 -0.1053
12650TIP3    H159441   1.009   5.541   1.235  0.2093 -1.7400 -0.2118
12650TIP3    H259442   0.980   5.600   1.098 -0.4142  2.1016  1.4484
12651TIP3   OH259443   5.768   4.489  15.059  0.2234 -0.9975  0.2924
12651TIP3    H159444   5.709   4.514  15.130 -0.4232 -0.0658 -0.5585
12651TIP3    H259445   5.771   4.565  15.001  1.0025 -1.6167 -0.5167
12652TIP3   OH259446   0.608   0.402   2.291  0.0693  0.0496  0.2908
12652TIP3    H159447   0.651   0.471   2.241  0.2125 -0.4262 -0.2433
12652TIP3    H259448   0.559   0.449   2.359  0.4580  0.6539  0.1555
12653TIP3   OH259449   5.901   6.055  10.515 -0.2482  0.2550  0.1855
12653TIP3    H159450   5.825   6.061  10.573 -0.6740  0.1613 -0.3586
12653TIP3    H259451   5.953   6.133  10.535  0.7452 -0.8517  2.2663
12654TIP3   OH259452   0.304   5.033  14.663 -0.7788 -0.0548  0.3743
12654TIP3    H159453   0.231   4.997  14.713  1.2194 -2.6519  1.7048
12654TIP3    H259454   0.351   5.088  14.726  0.0513 -0.8688  0.4874
12655TIP3   OH259455   0.485   6.250   4.021  0.1165  0.4677  0.8047
12655TIP3    H159456   0.501   6.344   4.013 -0.1307  0.6350  2.1104
12655TIP3    H259457   0.436   6.241   4.102 -0.0769 -0.7750  0.5646
12656TIP3   OH259458   5.597   2.116   0.450 -0.5669  0.0759 -0.0055
12656TIP3    H159459   5.508   2.150   0.452 -1.2362 -1.6322  0.2263
12656TIP3    H259460   5.588   2.021   0.448  1.2452 -0.2109  1.5576
12657TIP3   OH259461   6.055   0.072   5.295  0.2025  1.1916 -0.3971
12657TIP3    H159462   6.009   0.135   5.239  2.3913  2.5783 -0.7695
12657TIP3    H259463   6.033   0.099   5.385 -1.1625  0.6424 -0.5425
12658TIP3   OH259464   0.888   0.609   3.597 -0.5937  0.1718 -0.4033
12658TIP3    H159465   0.863   0.653   3.517  0.1156  0.2478 -0.5923
12658TIP3    H259466   0.806   0.597   3.645 -0.7514  2.0805 -0.1421
12659TIP3   OH259467   3.044   5.426   5.850 -0.8074 -0.0029  0.7289
12659TIP3    H159468   2.997   5.424   5.767 -1.0019 -0.3781  0.8479
12659TIP3    H259469   3.123   5.477   5.831 -2.0903  2.2454  0.9647
12660TIP3   OH259470   1.696   2.476  16.661 -0.7819  0.0954  0.2880
12660TIP3    H159471   1.750   2.446  16.587 -0.9390  0.2925  0.0923
12660TIP3    H259472   1.727   2.424  16.736 -0.4953  0.0258  0.1226
12661TIP3   OH259473   2.530   1.532   5.312  0.2670  0.0506  0.3673
12661TIP3    H159474   2.480   1.481   5.376  2.2234 -0.7020  1.3971
12661TIP3    H259475   2.469   1.547   5.240 -1.5448 -0.4286  1.7195
12662TIP3   OH259476   6.512   5.478  12.969 -0.1903  0.3110  0.3015
12662TIP3    H159477   6.576   5.411  12.994 -1.4477 -0.4556  1.6085
12662TIP3    H259478   6.519   5.484  12.874  2.3613  0.8397  0.4417
12663TIP3   OH259479   2.622   5.887   5.534  0.1791  0.2907 -0.0605
12663TIP3    H159480   2.569   5.923   5.606  1.3006  2.6422 -0.3184
12663TIP3    H259481   2.638   5.962   5.477  1.8933 -0.8630 -1.1615
12664TIP3   OH259482   1.143   5.807   3.038 -0.0321  0.4201  0.0634
12664TIP3    H159483   1.156   5.768   3.125 -1.8696 -1.0153 -0.2336
12664TIP3    H259484   1.070   5.757   3.000  0.6663  1.0594 -2.2903
12665TIP3   OH259485   0.960   5.391  13.837  0.4684 -0.3241  0.3441
12665TIP3    H159486   1.003   5.436  13.764  1.0730 -1.0383  0.2558
12665TIP3    H259487   0.974   5.298  13.821  1.3151 -0.4758  1.7890
12666TIP3   OH259488   6.456   4.963   4.801  0.2701  0.1491  0.1609
12666TIP3    H159489   6.452   5.047   4.755  1.1580 -0.1705 -0.5425
12666TIP3    H259490   6.365   4.940   4.819 -0.1365  0.1315 -1.7580
12667TIP3   OH259491   0.596   3.824   0.678 -0.3291 -0.6496  0.3468
12667TIP3    H159492   0.533   3.895   0.689 -1.4377 -1.4297 -0.6198
12667TIP3    H259493   0.553   3.764   0.617  1.6701 -0.8465 -0.9718
12668TIP3   OH259494   4.536   5.349   5.038 -0.1071  0.2824  0.6712
12668TIP3    H159495   4.598   5.345   5.111  0.7556  1.4807  0.0488
12668TIP3    H259496   4.479   5.273   5.050  1.9673 -1.3265  0.8411
12669TIP3   OH259497   4.944   1.256   4.293  0.3429 -0.0038 -0.6492
12669TIP3    H159498   4.954   1.350   4.307 -2.0576  0.3199 -0.7508
12669TIP3    H259499   4.951   1.246   4.198 -3.3174  0.7400 -1.1346
12670TIP3   OH259500   3.728   6.321  11.804  0.0068 -0.5106 -0.1282
12670TIP3    H159501   3.768   6.280  11.881  0.0871 -0.4778 -0.1527
12670TIP3    H259502   3.801   6.334  11.744 -0.2961 -2.0618 -0.8926
12671TIP3   OH259503   0.489   1.696  16.805  0.4826  0.3091 -0.0007
12671TIP3    H159504   0.552   1.665  16.739 -0.4301 -2.2757  0.2170
12671TIP3    H259505   0.451   1.616  16.841 -2.4200  1.7461  0.4135
12672TIP3   OH259506   3.356   5.283   1.094 -0.4797 -0.7767  0.5404
12672TIP3    H159507   3.426   5.342   1.067 -1.0335  0.2521  1.2737
12672TIP3    H259508   3.290   5.341   1.134 -1.2711 -1.8338  0.8068
12673TIP3   OH259509   5.695   5.104   0.798 -0.5022  0.2714  0.0555
12673TIP3    H159510   5.692   5.011   0.820  0.1701  0.4664  1.0072
12673TIP3    H259511   5.603   5.126   0.780 -1.3053  0.2432  3.3844
12674TIP3   OH259512   5.109   2.074   4.146  0.3148  0.2691 -0.3454
12674TIP3    H159513   5.127   2.000   4.204  1.2681  1.1474  0.5245
12674TIP3    H259514   5.031   2.048   4.097  1.1368 -1.6705 -0.7055
12675TIP3   OH259515   6.123   6.093  14.430 -0.0631 -0.2985 -0.2364
12675TIP3    H159516   6.209   6.052  14.444 -0.4610 -1.5152 -1.1496
12675TIP3    H259517   6.064   6.046  14.489 -0.4205 -0.6872 -0.8882
12676TIP3   OH259518   0.072   6.639  16.381 -0.2661  0.1223 -0.4352
12676TIP3    H159519  -0.006   6.631  16.327 -0.3065 -0.4409 -0.2962
12676TIP3    H259520   0.050   6.593  16.462  0.4467 -0.6245 -0.6555
12677TIP3   OH259521   0.227   0.089   5.768 -0.0920 -0.1663 -0.1324
12677TIP3    H159522   0.173   0.115   5.694  1.4633  0.0704 -1.2360
12677TIP3    H259523   0.293   0.158   5.775  1.5328 -1.6259 -0.3941
12678TIP3   OH259524   2.662   6.380  14.002 -0.0936 -0.2667  0.3450
12678TIP3    H159525   2.644   6.465  13.962 -4.2145 -0.6016  1.0513
12678TIP3    H259526   2.706   6.330  13.933 -0.4866  1.4368 -1.2232
12679TIP3   OH259527   6.545   5.062  15.480 -0.6547 -0.2460  0.3498
12679TIP3    H159528   6.459   5.057  15.438 -1.3789  0.7066  1.6377
12679TIP3    H259529   6.538   5.006  15.557 -1.4825  2.7348  2.6039
12680TIP3   OH259530   5.276   3.951   1.768  0.0377 -0.2355  0.6570
12680TIP3    H159531   5.366   3.917   1.767 -0.1944 -1.0777  2.6029
12680TIP3    H259532   5.262   3.977   1.859 -0.5762  3.1557 -0.2813
12681TIP3   OH259533   6.300   4.058  11.548  0.1450  0.3617  0.0865
12681TIP3    H159534   6.205   4.054  11.563 -0.0399  1.9536 -0.4817
12681TIP3    H259535   6.338   4.061  11.636 -0.3589  0.3301  0.3098
12682TIP3   OH259536   1.364   2.811  12.810  0.7881  0.0083 -0.0644
12682TIP3    H159537   1.355   2.845  12.722  0.7391 -0.4502 -0.2401
12682TIP3    H259538   1.455   2.830  12.834  1.2186 -1.0622 -0.7394
12683TIP3   OH259539   3.369   2.738   2.227  0.3040 -0.1734  0.5803
12683TIP3    H159540   3.414   2.664   2.186  0.8718  0.3546  0.2389
12683TIP3    H259541   3.284   2.741   2.184 -0.6764 -2.0807  2.2344
12684TIP3   OH259542   5.937   4.943   4.330  0.2498 -0.1076 -0.3515
12684TIP3    H159543   5.922   5.027   4.287  0.1079  0.2597  0.4035
12684TIP3    H259544   5.924   4.878   4.261 -0.1412  0.4627 -0.8248
12685TIP3   OH259545   2.046   5.918   6.306  0.8716 -0.1122  0.5263
12685TIP3    H159546   2.082   5.922   6.395  2.7657  1.8355 -0.2431
12685TIP3    H259547   1.969   5.974   6.309  1.2782  0.4389  0.8006
12686TIP3   OH259548   2.296   3.636   5.962  0.3351  0.1220 -0.2801
12686TIP3    H159549   2.335   3.558   5.921 -0.5803 -0.5906  0.1595
12686TIP3    H259550   2.206   3.637   5.930  0.1164  0.5492  0.3350
12687TIP3   OH259551   1.822   6.619  11.056  0.2732  0.8687  0.8883
12687TIP3    H159552   1.747   6.664  11.016  1.4655  2.2428  0.1031
12687TIP3    H259553   1.858   6.565  10.986 -0.9956 -1.1832  1.7599
12688TIP3   OH259554   2.977   6.597  11.984  0.4212  0.0324 -0.0123
12688TIP3    H159555   3.006   6.507  11.970  0.2119 -0.0910  0.3363
12688TIP3    H259556   3.055   6.642  12.017 -0.0253 -0.5576  1.9815
12689TIP3   OH259557   0.419   6.180  14.041  0.0924  0.5210  0.3541
12689TIP3    H159558   0.494   6.184  14.101 -0.8148  0.8592  1.5299
12689TIP3    H259559   0.352   6.132  14.090 -0.6076  0.6136 -0.4906
12690TIP3   OH259560   4.067   4.660  13.190 -0.4107  0.4595  0.4319
12690TIP3    H159561   4.081   4.642  13.097 -1.6712 -1.5562  0.5677
12690TIP3    H259562   4.024   4.581  13.223 -0.8681  1.5211  2.5273
12691TIP3   OH259563   2.691   2.044  13.283  0.0204  0.0866  0.3802
12691TIP3    H159564   2.770   1.994  13.303  0.4210  0.9969  1.1461
12691TIP3    H259565   2.623   2.005  13.337 -0.1115 -0.8182 -0.4169
12692TIP3   OH259566   6.654   1.659   0.332 -0.5360 -0.3531 -0.2369
12692TIP3    H159567   6.570   1.681   0.372  0.0546 -1.2984  1.6690
12692TIP3    H259568   6.634   1.646   0.239 -2.7310 -1.6291  0.3280
12693TIP3   OH259569   5.258   0.786  16.776  0.1317 -0.0701  0.0064
12693TIP3    H159570   5.341   0.739  16.778 -0.3136 -0.8606  0.3253
12693TIP3    H259571   5.264   0.841  16.698  0.7907 -0.4149 -0.1991
12694TIP3   OH259572   5.931   3.586  14.643  0.2935  0.2975 -0.0831
12694TIP3    H159573   5.853   3.563  14.693  2.2113 -0.9354  2.5554
12694TIP3    H259574   5.921   3.537  14.561 -1.2533 -0.5571  0.5658
12695TIP3   OH259575   3.078   5.827  15.549  0.3853  0.1462 -0.1811
12695TIP3    H159576   3.056   5.778  15.629  0.3499 -1.2992 -1.0305
12695TIP3    H259577   3.170   5.850  15.559 -0.1284  1.8649  1.1900
12696TIP3   OH259578   3.917   6.055   2.728 -0.8713 -0.1227  0.2684
12696TIP3    H159579   3.871   5.976   2.755 -0.7245  0.5394  2.7258
12696TIP3    H259580   3.855   6.126   2.744 -0.7120  0.3484 -1.1024
12697TIP3   OH259581   1.194   2.377   2.483 -0.0823  0.4536 -0.1176
12697TIP3    H159582   1.263   2.315   2.506 -0.7408 -0.1162  0.4117
12697TIP3    H259583   1.186   2.370   2.388 -1.0562 -1.3207  0.0486
12698TIP3   OH259584   4.392   3.439  15.059  0.2461 -0.3537  0.2208
12698TIP3    H159585   4.447   3.420  15.136  0.5771 -0.8355 -0.1302
12698TIP3    H259586   4.342   3.359  15.046 -0.0381 -0.1582  0.1227
12699TIP3   OH259587   1.907   5.018  16.226 -0.1018  0.5030 -0.0830
12699TIP3    H159588   1.909   4.923  16.234 -0.4224  0.5867  1.3566
12699TIP3    H259589   1.847   5.035  16.153 -1.5130 -0.3760  0.8202
12700TIP3   OH259590   5.652   2.623  15.513  0.0645 -0.0650  0.3152
12700TIP3    H159591   5.603   2.542  15.527 -2.9167  2.0280  3.4555
12700TIP3    H259592   5.595   2.677  15.459  1.3766  0.5550 -0.5112
12701TIP3   OH259593   0.704   3.062   2.909  1.0095 -0.4555  0.2814
12701TIP3    H159594   0.720   3.050   3.002 -0.8169  1.5938  0.9295
12701TIP3    H259595   0.627   3.008   2.891  0.0250  0.8179  0.5113
12702TIP3   OH259596   3.467   3.800   1.136 -0.6206  0.3210 -0.4327
12702TIP3    H159597   3.459   3.734   1.205  1.3589 -1.0574 -1.4492
12702TIP3    H259598   3.561   3.821   1.133 -1.0973  2.8270 -0.5213
12703TIP3   OH259599   6.813   4.000   0.211  0.4360  0.3596  0.1378
12703TIP3    H159600   6.750   4.061   0.174  1.6182  0.1150 -2.5249
12703TIP3    H259601   6.817   4.023   0.304 -3.7536  0.1429  0.5645
12704TIP3   OH259602   1.279   1.917  14.398 -0.0269  0.0553  0.2710
12704TIP3    H159603   1.295   1.843  14.339 -1.6370  0.4494 -0.7205
12704TIP3    H259604   1.200   1.893  14.446  0.0293  0.6869  0.6914
12705TIP3   OH259605   0.777   2.409   2.918 -0.2072 -0.2769 -0.1096
12705TIP3    H159606   0.723   2.365   2.983  0.0320 -0.4107  0.0019
12705TIP3    H259607   0.867   2.391   2.946 -0.1060 -0.1309 -0.3402
12706TIP3   OH259608   1.046   3.787  16.421  0.0291 -0.5182 -0.5920
12706TIP3    H159609   1.047   3.877  16.452 -1.8072 -0.4098 -0.7222
12706TIP3    H259610   1.111   3.742  16.475  0.0333  0.5913  0.3743
12707TIP3   OH259611   6.172   3.425   5.772  0.0740 -0.0883 -0.0674
12707TIP3    H159612   6.173   3.336   5.807 -0.1803 -0.2797 -0.5409
12707TIP3    H259613   6.112   3.421   5.698 -0.3290  0.5900  0.2094
12708TIP3   OH259614   1.871   4.860   6.074  0.3929  0.1953  0.6245
12708TIP3    H159615   1.869   4.955   6.062 -0.1354  0.0166 -0.9694
12708TIP3    H259616   1.921   4.827   6.000  0.1618 -0.8041  0.8945
12709TIP3   OH259617   0.927   4.035   5.237  0.0467 -0.1202  0.4842
12709TIP3    H159618   0.915   4.011   5.329 -1.8268  0.9651  0.5825
12709TIP3    H259619   0.840   4.026   5.198  0.7120 -0.1095 -1.0761
12710TIP3   OH259620   5.934   4.792  16.174  0.5804 -0.2134  0.2197
12710TIP3    H159621   5.903   4.842  16.099 -0.0080 -0.6793  0.1372
12710TIP3    H259622   5.855   4.777  16.226  0.6842 -1.3146  0.0796
12711TIP3   OH259623   3.726   0.961  11.860  0.3222  0.3674  0.4930
12711TIP3    H159624   3.795   1.027  11.848  0.1337  0.4362 -0.2602
12711TIP3    H259625   3.740   0.899  11.789 -1.2932  1.1809 -0.5854
12712TIP3   OH259626   4.297   0.448  12.432 -0.3149 -0.8274  0.3687
12712TIP3    H159627   4.204   0.439  12.413 -0.1515 -0.6171 -0.6017
12712TIP3    H259628   4.319   0.536  12.401  0.1041 -0.6876  1.0486
12713TIP3   OH259629   1.200   1.586   6.129  0.0937 -0.6586  0.4131
12713TIP3    H159630   1.293   1.575   6.109  0.1430  0.1448  0.1782
12713TIP3    H259631   1.171   1.656   6.071 -0.3843 -0.1137  1.2777
12714TIP3   OH259632   4.532   1.207  14.450  0.4398 -0.0807 -0.4312
12714TIP3    H159633   4.475   1.240  14.520  1.4985 -0.9383  0.9058
12714TIP3    H259634   4.508   1.258  14.373 -0.9404  0.7493  0.5051
12715TIP3   OH259635   2.016   4.513  14.370 -0.6696 -0.1714 -0.1416
12715TIP3    H159636   2.019   4.421  14.397 -1.8467 -0.1886 -0.0147
12715TIP3    H259637   1.928   4.525  14.334 -0.5809  0.9326 -0.0480
12716TIP3   OH259638   3.674   1.433   2.243 -0.2512 -0.0729 -0.3075
12716TIP3    H159639   3.657   1.526   2.253 -0.9376 -0.3426  1.5478
12716TIP3    H259640   3.604   1.390   2.293 -0.4309 -1.6256 -1.7942
12717TIP3   OH259641   6.470   0.131   2.982 -0.0291  0.1460  0.1834
12717TIP3    H159642   6.437   0.052   3.026  0.4708 -0.4369 -0.4487
12717TIP3    H259643   6.418   0.136   2.901  0.6926 -0.1708 -0.3050
12718TIP3   OH259644   2.725   0.536  17.247 -0.0925 -0.4633 -0.2499
12718TIP3    H159645   2.683   0.538  17.334 -0.5337 -0.2034 -0.4630
12718TIP3    H259646   2.818   0.545  17.265 -0.2930  1.2751  0.1190
12719TIP3   OH259647   1.534   3.208   2.943  0.6720 -0.3594 -0.3817
12719TIP3    H159648   1.548   3.164   2.859  2.8529  0.0814 -0.3050
12719TIP3    H259649   1.520   3.136   3.005  0.9939 -0.7858 -0.7953
12720TIP3   OH259650   1.121   0.432   5.256 -0.1299 -0.2858  0.0049
12720TIP3    H159651   1.113   0.505   5.194 -0.0067  0.5034  0.8816
12720TIP3    H259652   1.071   0.361   5.216  0.7684 -0.1329 -1.4633
12721TIP3   OH259653   3.828   6.722  14.925  0.3511  0.1235  0.3635
12721TIP3    H159654   3.896   6.711  14.991 -1.9602  0.3578  3.0009
12721TIP3    H259655   3.753   6.757  14.973 -1.6742 -0.1437 -2.3259
12722TIP3   OH259656   6.016   6.194  14.860 -0.1891 -0.0742  0.0970
12722TIP3    H159657   5.976   6.167  14.943 -0.3760  0.0632  0.0536
12722TIP3    H259658   5.965   6.148  14.793  0.4328 -0.7634  0.0911
12723TIP3   OH259659   2.816   6.642   5.028 -0.2704 -0.3120 -0.0287
12723TIP3    H159660   2.759   6.613   5.099 -0.5080 -0.0924 -0.1293
12723TIP3    H259661   2.796   6.735   5.017 -0.1447 -0.3155 -0.2954
12724TIP3   OH259662   4.768   3.874   5.740 -0.5909  0.0984 -0.5935
12724TIP3    H159663   4.816   3.957   5.740 -1.1573  0.5389 -3.5633
12724TIP3    H259664   4.836   3.807   5.733 -0.0971  0.1522  2.2984
12725TIP3   OH259665   4.240   0.531  14.111 -0.2575 -0.0125 -0.1235
12725TIP3    H159666   4.173   0.483  14.061 -1.3159 -0.3782  1.5618
12725TIP3    H259667   4.303   0.560  14.045 -1.4907 -0.6260 -1.6387
12726TIP3   OH259668   1.748   1.357   5.275 -0.1941 -0.1834  0.4718
12726TIP3    H159669   1.801   1.435   5.292  1.0525 -0.7100 -0.8277
12726TIP3    H259670   1.808   1.283   5.286 -1.2701 -0.9559  1.3482
12727TIP3   OH259671   1.010   1.964   3.827  0.0959  0.3107 -0.1934
12727TIP3    H159672   0.969   2.029   3.884 -1.5922  0.3220 -1.3428
12727TIP3    H259673   1.102   1.990   3.823 -0.7115  3.4327 -1.5836
12728TIP3   OH259674   4.472   1.219  16.099 -0.1482  0.0102 -0.8733
12728TIP3    H159675   4.456   1.302  16.145  2.5802  0.4922 -0.6144
12728TIP3    H259676   4.468   1.243  16.006 -2.0279 -0.1849 -0.8734
12729TIP3   OH259677   2.351   5.204  15.385  0.3278 -0.0000  0.2409
12729TIP3    H159678   2.328   5.120  15.346  1.8169 -0.4978  0.3761
12729TIP3    H259679   2.300   5.268  15.336 -1.5586 -1.0409  0.7506
12730TIP3   OH259680   6.002   2.973   6.120  0.2054  0.3748  0.4309
12730TIP3    H159681   5.952   2.917   6.179 -0.1371 -0.2531 -0.4344
12730TIP3    H259682   6.093   2.964   6.149  0.1618 -0.6713  0.2784
12731TIP3   OH259683   6.099   3.472   2.766  0.1187 -0.3732  0.5244
12731TIP3    H159684   6.117   3.547   2.710  1.7024 -1.3739 -0.3645
12731TIP3    H259685   6.033   3.421   2.719 -0.2632 -0.0458  0.6921
12732TIP3   OH259686   5.981   6.432   1.263  0.0747  0.0984  0.1071
12732TIP3    H159687   5.960   6.444   1.171 -1.5390  2.9647  0.7032
12732TIP3    H259688   5.992   6.338   1.274  1.1596 -0.2465 -3.1235
12733TIP3   OH259689   0.521   2.524   1.221  0.0397  0.1694 -0.3684
12733TIP3    H159690   0.609   2.558   1.202  0.1545 -0.4543 -0.9956
12733TIP3    H259691   0.464   2.599   1.211  0.3732  0.3411 -1.0843
12734TIP3   OH259692   4.356   1.438   0.708  0.8842 -0.2483 -0.5492
12734TIP3    H159693   4.312   1.361   0.672 -1.1435  1.0060 -0.9220
12734TIP3    H259694   4.312   1.454   0.791  0.0142  1.4901 -1.2853
12735TIP3   OH259695   6.377   6.533  15.371 -0.7418  0.3060 -0.7216
12735TIP3    H159696   6.383   6.589  15.448 -1.3120  0.6286 -0.9058
12735TIP3    H259697   6.467   6.526  15.338 -0.4086 -0.2814  0.2802
12736TIP3   OH259698   2.395   6.430   3.330 -0.1837 -0.2249 -0.2279
12736TIP3    H159699   2.488   6.429   3.352 -0.1757 -0.2908 -0.2665
12736TIP3    H259700   2.351   6.415   3.414 -0.2269  1.8992  0.1912
12737TIP3   OH259701   6.564   1.458  15.921  0.2926 -0.6137  0.6438
12737TIP3    H159702   6.476   1.474  15.955  0.0399 -0.4362 -0.0552
12737TIP3    H259703   6.554   1.383  15.862  0.2423  0.4564 -0.7686
12738TIP3   OH259704   3.375   3.656   0.253  0.6957 -0.2352 -0.2555
12738TIP3    H159705   3.418   3.587   0.304 -1.1869  0.5832  2.7299
12738TIP3    H259706   3.445   3.693   0.200  2.2676 -2.8560 -0.2110
12739TIP3   OH259707   1.591   0.122   1.116 -0.0908 -0.4654 -0.3926
12739TIP3    H159708   1.579   0.027   1.117 -0.8899 -0.3786 -0.6149
12739TIP3    H259709   1.548   0.152   1.197  2.2697 -0.4989  0.9480
12740TIP3   OH259710   5.170   3.442   2.582 -0.2310 -0.3514  0.1189
12740TIP3    H159711   5.082   3.470   2.559 -0.5092  1.3190  2.7645
12740TIP3    H259712   5.216   3.523   2.604  1.7114 -1.2667 -0.3545
12741TIP3   OH259713   6.166   5.510  14.753 -0.3238  0.5087 -0.0114
12741TIP3    H159714   6.182   5.602  14.735 -0.7123  0.4187 -0.8222
12741TIP3    H259715   6.071   5.503  14.761 -0.2502  0.3086  0.7975
12742TIP3   OH259716   0.601   5.897  11.855  0.4936 -0.4073 -0.2538
12742TIP3    H159717   0.649   5.846  11.790  1.8982  2.5085 -1.7316
12742TIP3    H259718   0.666   5.960  11.888 -1.1524  0.5916  1.2379
12743TIP3   OH259719   4.001   3.522  16.369 -0.3617 -0.1805  0.1387
12743TIP3    H159720   3.998   3.500  16.462  1.2987 -0.1631  0.2393
12743TIP3    H259721   3.947   3.600  16.360 -0.4030 -0.0862  1.1218
12744TIP3   OH259722   5.619   5.058   3.003  0.3600 -0.2724  0.0182
12744TIP3    H159723   5.583   5.129   3.057  0.5153  0.1708 -0.4512
12744TIP3    H259724   5.682   5.014   3.060  2.0178  1.4372 -0.3910
12745TIP3   OH259725   1.535   2.313  13.492  0.3711 -0.1236  0.2066
12745TIP3    H159726   1.449   2.275  13.476  0.4856  0.4405 -2.1761
12745TIP3    H259727   1.523   2.368  13.570 -1.1490 -0.8373  0.5069
12746TIP3   OH259728   6.137   6.426  15.317 -0.5104  0.3482  0.3373
12746TIP3    H159729   6.207   6.489  15.302 -0.9499  1.3331  2.0791
12746TIP3    H259730   6.173   6.366  15.382  0.0150 -1.4516 -1.5427
12747TIP3   OH259731   3.021   2.226  14.937  0.2653 -0.2103 -0.3581
12747TIP3    H159732   3.074   2.156  14.976  1.0812  0.0009 -1.0744
12747TIP3    H259733   2.935   2.185  14.923  1.0465 -1.4384 -1.8293
12748TIP3   OH259734   3.180   3.201  15.488 -0.2630 -0.1486  1.0594
12748TIP3    H159735   3.119   3.237  15.424  0.8617 -0.9303 -0.5187
12748TIP3    H259736   3.202   3.275  15.544  0.2106  1.0859 -0.6740
12749TIP3   OH259737   4.564   2.127   3.373  0.5607  1.0002  0.9102
12749TIP3    H159738   4.598   2.160   3.456  1.0249  3.2336 -0.0856
12749TIP3    H259739   4.636   2.078   3.335  0.2762 -0.2156  1.8797
12750TIP3   OH259740   4.078   6.106   1.628  0.8700  0.6072  0.1351
12750TIP3    H159741   4.117   6.133   1.711 -0.0531  0.4455  0.6352
12750TIP3    H259742   4.151   6.108   1.565  1.9012 -0.7232  1.2510
12751TIP3   OH259743   2.358   3.898  14.561  0.3466 -0.1325  0.2570
12751TIP3    H159744   2.346   3.803  14.572  0.4498  0.0445  2.3391
12751TIP3    H259745   2.406   3.907  14.478  4.0469 -2.2366  1.9130
12752TIP3   OH259746   5.542   6.766   3.731 -0.3681  0.0547 -0.4011
12752TIP3    H159747   5.460   6.755   3.683 -1.5640 -0.0508  1.5507
12752TIP3    H259748   5.575   6.851   3.701 -2.3467  1.1568  0.3404
12753TIP3   OH259749   3.506   5.111  14.142 -0.1711 -0.0921 -0.2578
12753TIP3    H159750   3.444   5.136  14.212  0.6963 -0.1857  0.5660
12753TIP3    H259751   3.494   5.017  14.132  0.4813 -0.2823  0.5765
12754TIP3   OH259752   2.012   3.090   4.150 -0.1504 -0.0747 -0.4329
12754TIP3    H159753   2.018   3.028   4.224 -3.7931 -2.0785 -1.5544
12754TIP3    H259754   1.985   3.172   4.191 -0.4647 -0.6857  0.6555
12755TIP3   OH259755   1.451   1.466   4.403 -0.6642 -0.1326 -0.0607
12755TIP3    H159756   1.544   1.459   4.425  0.1441  2.5895 -2.0210
12755TIP3    H259757   1.444   1.426   4.316 -1.4806 -0.8574  0.3223
12756TIP3   OH259758   5.817   6.109   5.631 -0.3065 -0.0212  0.5000
12756TIP3    H159759   5.860   6.027   5.657 -0.5430 -0.0699  0.7361
12756TIP3    H259760   5.756   6.128   5.702 -0.4335  0.2285  0.3254
12757TIP3   OH259761   4.272   1.623  14.025 -0.6348 -0.1274  0.6087
12757TIP3    H159762   4.324   1.699  14.000  0.4819 -0.5940  1.4375
12757TIP3    H259763   4.240   1.588  13.942  1.1022 -0.3239 -0.0287
12758TIP3   OH259764   4.464   0.585   0.969  0.2135 -0.0274 -0.1150
12758TIP3    H159765   4.426   0.535   0.897  0.7742  0.0670 -0.4836
12758TIP3    H259766   4.548   0.542   0.986  0.0259 -0.1303  0.5721
12759TIP3   OH259767   1.514   0.088   4.753 -0.4236  0.0586 -0.1037
12759TIP3    H159768   1.484   0.016   4.808 -0.7746  0.2595 -0.0325
12759TIP3    H259769   1.467   0.077   4.670 -2.6344  1.7861  0.8161
12760TIP3   OH259770   6.491   2.341  12.340 -0.5263  0.1909 -0.2712
12760TIP3    H159771   6.430   2.297  12.282 -0.0873 -1.1000  0.2023
12760TIP3    H259772   6.574   2.342  12.292 -0.3855 -0.0602 -0.0380
12761TIP3   OH259773   0.915   6.498  14.277  0.5241 -0.2395  0.0790
12761TIP3    H159774   0.904   6.405  14.257 -0.4444 -0.1797  0.2528
12761TIP3    H259775   1.000   6.504  14.320  0.5134 -1.0814  0.2354
12762TIP3   OH259776   2.681   5.389  16.687 -0.1691  1.0589  0.6991
12762TIP3    H159777   2.632   5.324  16.737  0.2156 -0.3268 -0.6377
12762TIP3    H259778   2.773   5.364  16.699 -0.0345  1.1763 -0.0322
12763TIP3   OH259779   2.984   6.296  11.309  0.2373  0.6282 -0.3441
12763TIP3    H159780   2.951   6.286  11.398  1.1721  0.9424  0.0439
12763TIP3    H259781   3.046   6.224  11.298  0.4050  0.8114 -0.6151
12764TIP3   OH259782   6.140   6.474   1.855 -0.6766  0.1070 -0.0842
12764TIP3    H159783   6.157   6.399   1.912 -0.3091 -0.1290 -0.4966
12764TIP3    H259784   6.187   6.546   1.896 -0.5826 -0.0122  0.0193
12765TIP3   OH259785   4.372   4.920   2.029 -0.2688  0.2556 -0.4208
12765TIP3    H159786   4.363   4.875   1.945 -0.8236  0.3955 -0.4365
12765TIP3    H259787   4.310   4.875   2.087 -1.1236  1.2389 -0.5374
12766TIP3   OH259788   1.152   5.142   5.409 -0.1088 -0.5521 -0.0554
12766TIP3    H159789   1.170   5.223   5.456 -0.0175 -1.8417  2.3058
12766TIP3    H259790   1.224   5.134   5.346  1.0536  0.1727  1.1333
12767TIP3   OH259791   0.270   6.264   1.975 -0.3509  0.1387  0.2359
12767TIP3    H159792   0.361   6.293   1.984  0.2186 -0.5679 -2.3257
12767TIP3    H259793   0.231   6.324   1.912 -2.1063  1.1739  2.1849
12768TIP3   OH259794   4.507   5.094  15.557 -0.3139  0.3618 -0.2544
12768TIP3    H159795   4.534   5.160  15.621  0.4233  1.1044 -1.2986
12768TIP3    H259796   4.431   5.132  15.513  0.2737  0.6547 -1.0412
12769TIP3   OH259797   6.187   3.672  12.549  0.2868 -0.1091  0.6297
12769TIP3    H159798   6.210   3.765  12.546  1.1817 -0.3195  0.6689
12769TIP3    H259799   6.235   3.638  12.624 -1.0304 -0.3555  1.3967
12770TIP3   OH259800   5.115   4.338   2.829 -0.3444  0.3960 -0.2647
12770TIP3    H159801   5.100   4.387   2.748  0.6628  1.6843  0.2909
12770TIP3    H259802   5.066   4.387   2.895 -1.6348 -0.9716 -0.1671
12771TIP3   OH259803   0.640   1.698   6.937 -0.6924 -0.4407  0.0199
12771TIP3    H159804   0.622   1.605   6.951 -0.7426 -0.3341  0.7254
12771TIP3    H259805   0.717   1.700   6.881 -1.3783 -0.9090 -0.9700
12772TIP3   OH259806   0.462   3.762   4.397  1.1428  0.4869  0.0187
12772TIP3    H159807   0.492   3.680   4.356 -0.3250 -0.2757  0.4055
12772TIP3    H259808   0.431   3.735   4.483 -2.4713  0.8003 -1.0090
12773TIP3   OH259809   2.366   6.663   6.226  0.0627 -0.4922  0.0166
12773TIP3    H159810   2.422   6.585   6.232  0.0855 -0.3595  3.0392
12773TIP3    H259811   2.317   6.663   6.308 -0.1153  2.5480  0.0078
12774TIP3   OH259812   1.276   6.729  13.528 -0.1242  0.2196  0.5214
12774TIP3    H159813   1.347   6.783  13.493  0.6014 -0.2388  1.2538
12774TIP3    H259814   1.278   6.649  13.475 -0.8291  0.6557 -0.1879
12775TIP3   OH259815   1.400   6.625   3.526 -0.6562  0.3116  0.5034
12775TIP3    H159816   1.438   6.568   3.593 -1.5138  0.9764  1.5908
12775TIP3    H259817   1.354   6.566   3.467 -1.2876 -0.1532  1.4452
12776TIP3   OH259818   4.564   4.298  16.798 -0.1206  0.7033 -0.3731
12776TIP3    H159819   4.526   4.262  16.718  2.5066 -1.2671 -0.8787
12776TIP3    H259820   4.554   4.393  16.789  0.7602  0.6003 -3.4716
12777TIP3   OH259821   4.883   0.356   4.564  0.1028  0.4957  0.2335
12777TIP3    H159822   4.834   0.278   4.591 -0.3316  1.4656  2.4938
12777TIP3    H259823   4.864   0.365   4.471 -0.6188 -1.5389  0.1344
12778TIP3   OH259824   3.111   6.612   0.522 -0.0593 -0.1156 -0.0004
12778TIP3    H159825   3.090   6.597   0.430  0.8574  1.0645 -0.4240
12778TIP3    H259826   3.091   6.705   0.537 -0.1395 -0.2741  0.9805
12779TIP3   OH259827   2.364   5.521   5.874 -0.3013  0.4255  0.2497
12779TIP3    H159828   2.308   5.503   5.950 -1.4515  0.9243 -0.4583
12779TIP3    H259829   2.393   5.611   5.887 -1.1238  0.7721 -0.2815
12780TIP3   OH259830   0.212   3.051   4.624  0.0834 -0.0001  0.1628
12780TIP3    H159831   0.199   2.956   4.633  0.2031 -0.4549 -3.2318
12780TIP3    H259832   0.129   3.089   4.652 -1.6431 -1.4988 -2.4781
12781TIP3   OH259833   6.526   4.834   1.875 -0.0659 -0.1979 -0.1066
12781TIP3    H159834   6.446   4.845   1.926 -0.2002  1.5451 -0.6090
12781TIP3    H259835   6.594   4.815   1.940 -0.6506 -0.3355  0.4658
12782TIP3   OH259836   6.513   1.375  15.263 -0.0881 -0.6045 -0.3607
12782TIP3    H159837   6.463   1.425  15.199 -0.7072 -0.2063  0.4181
12782TIP3    H259838   6.448   1.326  15.312  0.3052 -0.2914  0.4890
12783TIP3   OH259839   1.720   4.449   2.065  0.2705 -0.3544  0.2562
12783TIP3    H159840   1.765   4.432   1.982  1.9375  0.1657  1.0066
12783TIP3    H259841   1.727   4.544   2.077  1.3155 -0.5799  1.6557
12784TIP3   OH259842   6.668   0.680   1.484 -0.2115 -0.7116  0.3056
12784TIP3    H159843   6.658   0.608   1.546  0.7917 -1.5423 -0.4738
12784TIP3    H259844   6.654   0.641   1.398  3.9718 -0.9162 -0.5060
12785TIP3   OH259845   3.658   3.019  14.674  0.0050  0.5909  0.3041
12785TIP3    H159846   3.587   3.000  14.613  2.8498  1.0593 -3.5131
12785TIP3    H259847   3.661   3.114  14.679  1.1624  0.6364 -0.7370
12786TIP3   OH259848   1.822   2.054   1.953  0.1423  0.2895  0.6471
12786TIP3    H159849   1.832   2.116   2.025  2.2644 -1.1118  1.6836
12786TIP3    H259850   1.747   2.000   1.978 -0.2901  0.9793  0.8656
12787TIP3   OH259851   4.769   0.285   3.643 -0.2602  0.4283 -0.2911
12787TIP3    H159852   4.780   0.191   3.636 -0.6880  0.3719 -0.2658
12787TIP3    H259853   4.778   0.303   3.737  3.5380  0.9254 -0.6253
12788TIP3   OH259854   3.391   5.198   4.559 -0.5980 -0.1651 -0.4867
12788TIP3    H159855   3.319   5.261   4.551 -0.1406  0.3900 -0.3088
12788TIP3    H259856   3.441   5.210   4.478  1.0925  1.7481  0.7536
12789TIP3   OH259857   1.315   2.661   2.410  0.3714  0.1210 -0.1223
12789TIP3    H159858   1.360   2.577   2.421  0.3039  0.2024  0.8809
12789TIP3    H259859   1.296   2.690   2.500  1.1216  1.6011 -0.4127
12790TIP3   OH259860   4.385   6.373  12.919 -0.3740  0.3885  0.5741
12790TIP3    H159861   4.435   6.297  12.889 -0.6884 -0.4020  2.0067
12790TIP3    H259862   4.339   6.403  12.841  0.4933 -0.2974 -0.2302
12791TIP3   OH259863   0.967   1.938  16.958 -0.0738  0.5854 -0.2141
12791TIP3    H159864   1.008   1.905  16.878  0.8980  0.3131  0.3793
12791TIP3    H259865   1.018   2.015  16.981  0.6124 -0.1981  0.9593
12792TIP3   OH259866   3.106   4.921   2.023  0.2169 -0.0296  0.2409
12792TIP3    H159867   3.201   4.914   2.020  0.0897 -1.8059 -0.4380
12792TIP3    H259868   3.075   4.880   1.943 -1.2133 -2.3877  1.8597
12793TIP3   OH259869   2.682   3.119  13.303  0.6918 -0.1283 -0.2893
12793TIP3    H159870   2.586   3.116  13.294  0.8166  0.1053 -2.0160
12793TIP3    H259871   2.708   3.028  13.311  0.2103 -0.1230  2.1992
12794TIP3   OH259872   1.162   5.990  14.843 -0.0399  0.0606  0.6206
12794TIP3    H159873   1.199   5.951  14.764 -0.2552  1.1513 -0.0506
12794TIP3    H259874   1.237   6.018  14.894  0.1016 -0.6680  0.8169
12795TIP3   OH259875   3.391   2.227   2.333 -0.5349 -0.0907  0.2297
12795TIP3    H159876   3.421   2.301   2.280  1.2671 -1.4322 -0.7361
12795TIP3    H259877   3.431   2.242   2.419 -1.6815  0.9474  0.6264
12796TIP3   OH259878   2.177   4.582  13.014 -0.0371  0.3770 -0.2932
12796TIP3    H159879   2.090   4.550  12.988 -0.1244 -0.3955  0.8405
12796TIP3    H259880   2.226   4.590  12.932 -1.1766  0.8480 -0.9531
12797TIP3   OH259881   3.062   0.406   2.000 -0.7934 -0.1974  0.3924
12797TIP3    H159882   3.074   0.501   2.001  0.5817 -0.3513  1.1589
12797TIP3    H259883   3.110   0.377   1.923  0.1306 -0.3921  1.0163
12798TIP3   OH259884   6.134   0.087  14.060 -0.0853  0.2877  0.2133
12798TIP3    H159885   6.048   0.065  14.024 -0.3764  0.8857  0.5209
12798TIP3    H259886   6.127   0.180  14.081  0.5696  0.2872  0.4372
12799TIP3   OH259887   5.366   6.352  11.539  0.0057 -0.3880 -0.2357
12799TIP3    H159888   5.384   6.445  11.526  0.1830 -0.5032 -0.8677
12799TIP3    H259889   5.452   6.312  11.548 -0.1081 -0.3315  1.2796
12800TIP3   OH259890   6.183   6.494  11.994 -0.4517 -0.1841 -0.1406
12800TIP3    H159891   6.213   6.530  11.910 -0.0748 -0.1395  0.0118
12800TIP3    H259892   6.160   6.403  11.973  2.0038 -0.9386  0.2008
12801TIP3   OH259893   3.941   2.624   1.765 -0.4213  0.3950  0.1973
12801TIP3    H159894   4.028   2.655   1.790 -0.9642  0.6412  1.9066
12801TIP3    H259895   3.891   2.704   1.749 -0.6202  0.2913  0.2936
12802TIP3   OH259896   2.616   2.042  12.654  0.1901  0.1103  0.2279
12802TIP3    H159897   2.531   2.005  12.630  1.1591 -2.2319  0.0970
12802TIP3    H259898   2.617   2.041  12.749  0.4873 -0.9782  0.2255
12803TIP3   OH259899   0.596   3.723   0.928  0.2110  0.0255 -0.2303
12803TIP3    H159900   0.634   3.755   0.846  1.0469  0.2910  0.2490
12803TIP3    H259901   0.633   3.781   0.995  0.2010 -0.7221  0.4278
12804TIP3   OH259902   3.017   4.614  17.253  0.1213  0.6582  0.3925
12804TIP3    H159903   3.090   4.609  17.191 -0.0320  0.8249  0.1961
12804TIP3    H259904   2.947   4.563  17.212 -0.4264  1.8408 -0.2053
12805TIP3   OH259905   4.198   2.564  12.548  0.6606 -0.2747  0.4374
12805TIP3    H159906   4.125   2.586  12.606 -0.4018 -0.3823 -0.8002
12805TIP3    H259907   4.274   2.605  12.589 -0.2852  0.7953  1.2116
12806TIP3   OH259908   0.109   5.310  14.855  0.7201 -0.0103  0.3826
12806TIP3    H159909   0.028   5.347  14.892  0.0613 -1.4024  0.4083
12806TIP3    H259910   0.140   5.376  14.793 -0.2193  0.7257  0.6742
12807TIP3   OH259911   4.470   2.246   6.108  0.2445 -0.0838 -0.6795
12807TIP3    H159912   4.525   2.244   6.030  0.4890  1.0481 -0.5530
12807TIP3    H259913   4.438   2.336   6.113  0.1546 -0.1575  0.4737
12808TIP3   OH259914   3.432   5.431  15.296 -0.2092 -0.4879  0.0849
12808TIP3    H159915   3.498   5.467  15.237 -0.5819  0.5629  0.2907
12808TIP3    H259916   3.349   5.439  15.248 -0.4449 -0.0822  0.5572
12809TIP3   OH259917   5.964   3.089  12.072  0.7805 -0.0335 -0.0110
12809TIP3    H159918   5.995   3.174  12.042 -2.1222  0.2847 -2.5925
12809TIP3    H259919   6.019   3.025  12.026  0.0889  0.5008 -1.6545
12810TIP3   OH259920   0.890   1.507   2.180 -0.0171 -0.0275  0.3470
12810TIP3    H159921   0.829   1.542   2.115 -0.2872 -0.8548  0.1465
12810TIP3    H259922   0.928   1.584   2.220 -1.3091  0.5148  0.5812
12811TIP3   OH259923   3.721   6.406   1.681  0.4187  0.4508  0.2974
12811TIP3    H159924   3.704   6.383   1.590 -0.2951 -0.4261  0.6350
12811TIP3    H259925   3.662   6.479   1.699 -2.4259 -1.8346  1.1225
12812TIP3   OH259926   1.761   5.926  15.003  0.2371  0.0754 -0.6107
12812TIP3    H159927   1.805   5.925  15.088 -1.4306  0.3147  0.2840
12812TIP3    H259928   1.733   5.836  14.989 -0.7333  0.3130 -0.2301
12813TIP3   OH259929   5.033   5.992   3.930 -0.5545  0.0772 -0.3503
12813TIP3    H159930   5.128   6.001   3.939 -0.6219  1.2736 -0.6009
12813TIP3    H259931   5.019   5.901   3.903  0.4947 -0.1728 -0.0887
12814TIP3   OH259932   5.276   3.128   1.693  0.4477 -0.2546 -0.2952
12814TIP3    H159933   5.330   3.135   1.615  1.5227 -2.1016  0.2134
12814TIP3    H259934   5.295   3.041   1.728 -0.7800  0.1112  1.4547
12815TIP3   OH259935   1.674   4.255  16.830  0.4640  0.2664  0.6248
12815TIP3    H159936   1.666   4.160  16.839 -0.7045  0.2959  0.0888
12815TIP3    H259937   1.600   4.290  16.880 -0.8272  0.7499 -1.4684
12816TIP3   OH259938   4.349   5.988  13.559 -0.2919 -0.1874  0.8063
12816TIP3    H159939   4.364   5.925  13.488 -1.9741 -1.7078  1.7188
12816TIP3    H259940   4.383   5.944  13.637  2.8866  2.0456  0.8750
12817TIP3   OH259941   1.246   1.013  16.921  0.3606  0.4311  0.1792
12817TIP3    H159942   1.278   0.923  16.921  0.9597  0.6174 -1.0133
12817TIP3    H259943   1.326   1.066  16.917  0.0443  1.0453  1.5602
12818TIP3   OH259944   6.668   4.413   5.434  0.1320 -0.1770 -0.4487
12818TIP3    H159945   6.641   4.477   5.369  0.7488  0.7614  0.1957
12818TIP3    H259946   6.764   4.415   5.432  0.1965  0.7798  1.3199
12819TIP3   OH259947   0.781   2.395   2.205 -0.4945  0.1387  0.3072
12819TIP3    H159948   0.691   2.412   2.178 -0.0696  0.2714 -1.1011
12819TIP3    H259949   0.800   2.308   2.171 -0.2185 -0.0690  0.9758
12820TIP3   OH259950   2.709   4.032  13.768 -0.2260  0.0654 -0.2221
12820TIP3    H159951   2.785   4.070  13.813 -0.4387 -2.4823  2.6637
12820TIP3    H259952   2.746   3.985  13.693  0.9350 -0.0652  0.4077
12821TIP3   OH259953   1.174   6.271   2.450  0.1493 -0.2793  0.0675
12821TIP3    H159954   1.126   6.260   2.532  0.8803 -1.6689  0.3341
12821TIP3    H259955   1.214   6.358   2.458 -0.4770 -0.0493  0.8118
12822TIP3   OH259956   6.401   4.910   0.364 -0.5265  0.0334  0.1401
12822TIP3    H159957   6.372   4.975   0.428 -0.3352  1.6004 -1.3011
12822TIP3    H259958   6.453   4.960   0.301 -0.5455 -1.4864 -1.1346
12823TIP3   OH259959   2.592   5.406  16.037 -0.0200  0.6034 -0.3224
12823TIP3    H159960   2.512   5.442  16.074  0.3893  0.2199  0.9997
12823TIP3    H259961   2.660   5.429  16.100  0.5624 -0.8408 -0.3862
12824TIP3   OH259962   2.076   1.619  12.343 -0.0274  0.5637  0.9927
12824TIP3    H159963   2.043   1.688  12.287 -0.0737  0.9677  1.5109
12824TIP3    H259964   2.119   1.665  12.416  0.2649  0.0535  1.1509
12825TIP3   OH259965   6.290   0.580  17.051  0.7583 -0.2258 -0.2726
12825TIP3    H159966   6.266   0.544  17.136  1.3482  0.2385  0.1018
12825TIP3    H259967   6.226   0.544  16.990  0.1843 -0.3710  0.4109
12826TIP3   OH259968   6.458   4.783  10.820 -0.2631  0.4427 -0.3384
12826TIP3    H159969   6.411   4.858  10.785 -2.7182 -1.7894 -2.2741
12826TIP3    H259970   6.518   4.757  10.750 -0.0485  0.1241 -0.0393
12827TIP3   OH259971   2.301   1.798  16.814 -0.3886  0.9994  0.0212
12827TIP3    H159972   2.251   1.808  16.733 -0.6970  1.5527  0.2819
12827TIP3    H259973   2.329   1.886  16.837  1.5865  0.6198 -0.6590
12828TIP3   OH259974   2.497   4.881   5.251  0.3435 -0.0004 -0.1141
12828TIP3    H159975   2.446   4.847   5.178  0.1565 -0.9107  0.4229
12828TIP3    H259976   2.574   4.921   5.210  0.2690 -0.5512 -0.8064
12829TIP3   OH259977   5.455   4.504   0.230  0.7364 -0.3862  0.4048
12829TIP3    H159978   5.398   4.448   0.283  1.3661 -3.2761 -1.7309
12829TIP3    H259979   5.398   4.576   0.201 -1.0010 -1.5559  0.7643
12830TIP3   OH259980   1.028   6.232  16.331 -0.4496 -0.1699  0.3484
12830TIP3    H159981   1.001   6.143  16.352 -2.5830  0.3306 -0.0271
12830TIP3    H259982   1.104   6.247  16.386 -0.7976 -1.7926  1.3590
12831TIP3   OH259983   6.156   6.260   4.012 -0.3006  0.7682 -0.0079
12831TIP3    H159984   6.083   6.295   3.961 -1.5308 -0.8563  0.5466
12831TIP3    H259985   6.133   6.168   4.026  1.1830  0.5765  1.4032
12832TIP3   OH259986   0.084   5.686  13.575 -0.2295 -0.2644  0.1675
12832TIP3    H159987   0.021   5.627  13.617 -0.2093 -0.6915 -0.3848
12832TIP3    H259988   0.032   5.734  13.510  0.2222 -1.4738 -1.1288
12833TIP3   OH259989   3.213   1.709   1.154 -0.5967  0.2757  0.1247
12833TIP3    H159990   3.164   1.627   1.144 -1.2291  0.4508  1.5743
12833TIP3    H259991   3.257   1.700   1.238 -1.3120  1.7550  0.6765
12834TIP3   OH259992   1.658   3.416  13.755 -1.1756  0.1479  0.5357
12834TIP3    H159993   1.628   3.485  13.815  0.0361  1.0708  0.1242
12834TIP3    H259994   1.734   3.454  13.711 -1.3520 -0.9277 -0.7702
12835TIP3   OH259995   3.929   5.911  15.395 -0.5132 -0.0683 -0.4022
12835TIP3    H159996   3.903   5.995  15.357 -1.1781 -0.4735 -0.8735
12835TIP3    H259997   3.859   5.890  15.457  1.3798  1.4061  2.4571
12836TIP3   OH259998   2.126   2.098   5.260  0.0703  0.6667 -0.0718
12836TIP3    H159999   2.210   2.131   5.292 -0.2236  0.6512  0.7329
12836TIP3    H260000   2.118   2.011   5.299 -0.9210  1.1907  0.9350
12837TIP3   OH260001   0.561   1.547  12.808 -0.2980  0.1249  0.4017
12837TIP3    H160002   0.535   1.629  12.767 -0.6363  0.2043  0.7667
12837TIP3    H260003   0.618   1.573  12.880  2.3864 -0.1147 -1.4611
12838TIP3   OH260004   4.997   6.123  14.421  0.1964 -0.5293 -0.1595
12838TIP3    H160005   4.950   6.065  14.361 -0.1427  0.8405 -1.2922
12838TIP3    H260006   4.938   6.134  14.495 -1.2073  0.8538 -1.3851
12839TIP3   OH260007   3.591   1.613   3.738 -0.0084 -0.3857 -0.2353
12839TIP3    H160008   3.605   1.558   3.815  3.5385  1.3099  0.4791
12839TIP3    H260009   3.640   1.569   3.668 -0.9382 -0.4635 -0.8610
12840TIP3   OH260010   5.578   6.788  17.207 -0.3069 -0.1269  0.0790
12840TIP3    H160011   5.571   6.717  17.270  0.8243 -1.6973 -1.4634
12840TIP3    H260012   5.492   6.792  17.165  0.0726 -1.7387 -0.9414
12841TIP3   OH260013   4.483   6.462   2.666 -0.4670  0.0983  0.0792
12841TIP3    H160014   4.420   6.488   2.598 -0.1867 -1.5513 -0.8794
12841TIP3    H260015   4.439   6.482   2.748 -1.9641 -0.3052 -0.5734
12842TIP3   OH260016   5.576   3.273  16.706  0.0801  0.1552 -0.3075
12842TIP3    H160017   5.505   3.209  16.698  1.7187 -2.0134  1.3344
12842TIP3    H260018   5.578   3.318  16.621 -0.8209 -2.3535 -1.7520
12843TIP3   OH260019   6.321   4.568  13.045  0.3934  0.5763 -0.0576
12843TIP3    H160020   6.318   4.495  13.107 -0.8450  0.1117 -0.6357
12843TIP3    H260021   6.261   4.542  12.975  1.3859  1.3036 -1.2113
12844TIP3   OH260022   4.904   3.552   5.275 -0.6245  0.3146 -0.2330
12844TIP3    H160023   4.878   3.597   5.355 -1.8708 -1.6752  0.5634
12844TIP3    H260024   4.878   3.611   5.204  1.4454  2.5735  0.7975
12845TIP3   OH260025   2.129   6.143  11.857 -0.1480 -0.2402  0.1652
12845TIP3    H160026   2.176   6.094  11.789  0.3570  1.7421 -0.9805
12845TIP3    H260027   2.119   6.080  11.928  1.0163 -1.8194 -0.9819
12846TIP3   OH260028   3.421   3.670  16.897  0.4845 -0.5304  0.6171
12846TIP3    H160029   3.429   3.647  16.990  0.9079 -1.0004  0.4678
12846TIP3    H260030   3.337   3.716  16.891  0.7781  0.1418  1.3621
12847TIP3   OH260031   2.664   4.711  11.349 -0.5607 -0.3250 -0.0291
12847TIP3    H160032   2.644   4.741  11.438 -0.7997  0.6440 -0.4000
12847TIP3    H260033   2.642   4.617  11.350 -2.5787  0.0928  0.3682
12848TIP3   OH260034   6.664   2.025  15.486 -0.0549  0.0433 -0.2325
12848TIP3    H160035   6.669   2.024  15.581  1.6033 -0.6989 -0.2883
12848TIP3    H260036   6.704   2.108  15.460 -1.1043  0.5470 -0.2774
12849TIP3   OH260037   3.679   0.145  15.775  0.1469 -0.4226 -0.8425
12849TIP3    H160038   3.599   0.094  15.789 -0.3607 -0.0863 -2.2571
12849TIP3    H260039   3.683   0.206  15.848  0.1772 -1.7274  0.2913
12850TIP3   OH260040   4.293   3.182   2.070  0.3632  0.0269  0.1535
12850TIP3    H160041   4.301   3.218   1.981 -0.3833 -1.0026 -0.3430
12850TIP3    H260042   4.291   3.259   2.126  1.8872  0.6864 -0.6138
12851TIP3   OH260043   1.889   2.969   4.600  0.3248 -0.2022 -0.3601
12851TIP3    H160044   1.882   3.064   4.594  2.0378 -0.0039  0.2885
12851TIP3    H260045   1.855   2.949   4.687  0.2705 -0.1600 -0.3710
12852TIP3   OH260046   6.376   1.323  14.076  0.2704  0.1582  0.4493
12852TIP3    H160047   6.372   1.307  13.982 -0.2735  0.5805  0.3978
12852TIP3    H260048   6.466   1.299  14.100  0.1558 -0.7895 -0.0147
12853TIP3   OH260049   4.090   5.500   0.022  0.6664 -0.4770  0.2381
12853TIP3    H160050   4.139   5.489   0.104  1.5884 -1.1213 -0.3829
12853TIP3    H260051   4.148   5.465  -0.045 -0.0865  0.0419 -0.6992
12854TIP3   OH260052   5.634   6.730   3.117 -0.1243  0.6712 -0.5328
12854TIP3    H160053   5.696   6.759   3.050  0.0220  1.0603 -0.2347
12854TIP3    H260054   5.557   6.786   3.103 -0.3444  0.3109 -0.7883
12855TIP3   OH260055   6.549   3.094   3.232 -0.1054 -0.2752 -0.3085
12855TIP3    H160056   6.644   3.108   3.226  0.0367 -0.0143  1.8518
12855TIP3    H260057   6.540   3.007   3.270 -0.7069  0.0636  0.3486
12856TIP3   OH260058   4.330   4.965  16.756  0.6296 -0.8385 -0.0311
12856TIP3    H160059   4.256   4.986  16.700  1.1643 -2.0394 -1.2537
12856TIP3    H260060   4.346   4.871  16.741  1.7664 -0.8354  0.9594
12857TIP3   OH260061   1.739   5.973   4.791 -0.9827  0.1817 -0.0120
12857TIP3    H160062   1.730   5.880   4.768 -0.2073 -0.4242  1.9129
12857TIP3    H260063   1.756   6.017   4.708  0.3628 -1.6530 -0.7578
12858TIP3   OH260064   2.783   6.339   3.029 -0.2816  0.1097 -0.0361
12858TIP3    H160065   2.717   6.326   2.961  1.3268 -2.1800 -1.2960
12858TIP3    H260066   2.767   6.269   3.092  1.1414 -0.7448 -0.5820
12859TIP3   OH260067   1.318   1.045  10.795  0.5089  0.0058  0.6242
12859TIP3    H160068   1.412   1.045  10.780  0.3584  1.1770 -0.5031
12859TIP3    H260069   1.280   1.023  10.709 -0.3015  2.9351  0.1363
12860TIP3   OH260070   4.063   1.313   4.362 -0.2143  0.1992 -0.8322
12860TIP3    H160071   4.153   1.325   4.333 -0.3069 -0.6233 -1.4965
12860TIP3    H260072   4.010   1.328   4.283 -0.5945 -0.2861 -0.6719
12861TIP3   OH260073   3.492   2.638  17.175  0.0882 -0.1762 -0.6900
12861TIP3    H160074   3.480   2.690  17.095 -0.6931  0.3066 -0.2759
12861TIP3    H260075   3.531   2.699  17.237 -1.7734  0.2532  0.1199
12862TIP3   OH260076   6.221   3.351   3.867  0.0879  0.2032  0.1874
12862TIP3    H160077   6.247   3.370   3.777 -1.4465 -0.4747 -0.4326
12862TIP3    H260078   6.290   3.293   3.901  1.1113  1.1306 -0.2427
12863TIP3   OH260079   1.799   0.315   3.738 -0.3988  0.3321  0.0795
12863TIP3    H160080   1.705   0.324   3.753 -0.8112 -1.2729 -1.2285
12863TIP3    H260081   1.808   0.303   3.644  0.9480 -0.9883  0.3245
12864TIP3   OH260082   4.145   3.161   4.285  0.5026 -0.0935 -0.1963
12864TIP3    H160083   4.191   3.126   4.361 -1.4020  0.2085  1.1771
12864TIP3    H260084   4.122   3.251   4.310 -0.9255 -0.2822 -0.7382
12865TIP3   OH260085   5.931   4.339   1.594  0.0727  0.4156 -0.0495
12865TIP3    H160086   5.906   4.247   1.596 -1.1953  0.7411 -0.2848
12865TIP3    H260087   6.009   4.344   1.650  0.3619 -0.8434 -0.3134
12866TIP3   OH260088   5.185   0.608  10.867  0.0694  0.8246 -0.5379
12866TIP3    H160089   5.263   0.553  10.863 -1.0852 -1.0799  1.2179
12866TIP3    H260090   5.194   0.657  10.949  0.0466  1.6441 -1.0108
12867TIP3   OH260091   3.080   4.375  16.526  0.2382  0.2112  0.2069
12867TIP3    H160092   3.053   4.465  16.510  0.6350  0.3465  0.2967
12867TIP3    H260093   3.113   4.375  16.616 -0.2036 -0.1290  0.3759
12868TIP3   OH260094   0.642   4.250   1.823  0.2493  0.1354 -0.1163
12868TIP3    H160095   0.558   4.266   1.780  0.0210 -2.5725 -0.8885
12868TIP3    H260096   0.707   4.258   1.752  0.2483 -0.9447 -0.2593
12869TIP3   OH260097   5.395   4.128  13.234  0.0938 -0.4368 -0.0147
12869TIP3    H160098   5.448   4.198  13.272 -2.7149  1.7906  0.0899
12869TIP3    H260099   5.364   4.163  13.151 -1.4033 -1.5297  0.0410
12870TIP3   OH260100   5.419   6.345  14.289 -0.3562  0.0172 -0.1042
12870TIP3    H160101   5.373   6.270  14.326  0.0509 -0.2019 -0.0338
12870TIP3    H260102   5.389   6.419  14.341  1.4068 -0.5039  1.7942
12871TIP3   OH260103   1.025   1.774  13.153 -0.1637  0.2360 -0.1657
12871TIP3    H160104   1.103   1.786  13.098 -0.5784  3.2585 -0.2782
12871TIP3    H260105   0.970   1.714  13.103  0.7808  0.4860 -1.5694
12872TIP3   OH260106   2.256   4.273   2.769 -0.6583 -0.5273  0.5252
12872TIP3    H160107   2.204   4.202   2.805 -0.0110 -2.2073 -1.6460
12872TIP3    H260108   2.347   4.245   2.780 -0.4179 -0.8230 -1.6646
12873TIP3   OH260109   0.862   1.482  15.691  0.7195  0.3707 -0.0025
12873TIP3    H160110   0.957   1.477  15.700  0.6418 -1.0942  0.2387
12873TIP3    H260111   0.843   1.444  15.606  0.2093 -1.6362  0.9435
12874TIP3   OH260112   3.856   6.066  13.625 -0.2220  0.5827  0.2564
12874TIP3    H160113   3.894   5.988  13.585 -1.8629  0.6271 -1.5710
12874TIP3    H260114   3.783   6.032  13.678  0.3033  0.7392  1.0905
12875TIP3   OH260115   2.786   2.041  16.204 -0.2498 -0.8599  0.0460
12875TIP3    H160116   2.874   2.070  16.230  0.4772 -0.7085 -2.3395
12875TIP3    H260117   2.727   2.103  16.249  0.9102 -0.1759  0.6929
12876TIP3   OH260118   2.601   2.263   0.094 -0.7854 -0.1489 -0.3038
12876TIP3    H160119   2.648   2.269   0.011 -0.5662 -0.3356 -0.1945
12876TIP3    H260120   2.525   2.321   0.083 -1.2772 -0.8899 -0.9814
12877TIP3   OH260121   3.625   2.159  13.175  0.2193 -0.6161  0.3349
12877TIP3    H160122   3.544   2.161  13.123 -1.6285 -1.6853  2.9647
12877TIP3    H260123   3.639   2.066  13.193  1.5739 -0.3663  0.6525
12878TIP3   OH260124   1.848   2.059   4.342  0.8428 -0.3090 -0.0118
12878TIP3    H160125   1.772   2.074   4.397  1.0229 -2.1217  0.8103
12878TIP3    H260126   1.818   2.079   4.254 -0.1800  0.2829  0.4478
12879TIP3   OH260127   3.333   4.042  12.709 -0.5045  0.2614 -0.1417
12879TIP3    H160128   3.311   4.099  12.635 -0.6431 -2.0184 -1.9673
12879TIP3    H260129   3.402   3.984  12.675 -0.7036 -0.9725  1.4430
12880TIP3   OH260130   5.673   2.925   5.449 -0.6911  0.1834  0.7502
12880TIP3    H160131   5.677   2.863   5.377  0.8160  1.4175 -0.2857
12880TIP3    H260132   5.718   2.881   5.521  0.4074  0.0633  0.0155
12881TIP3   OH260133   3.988   3.070  16.857  0.1986  0.5368  0.0090
12881TIP3    H160134   3.916   3.070  16.794 -1.3507  0.6572  1.6831
12881TIP3    H260135   4.021   3.160  16.855  0.9262  0.2623 -1.4059
12882TIP3   OH260136   5.373   3.826   0.704 -0.5690 -0.2417  0.2661
12882TIP3    H160137   5.377   3.795   0.794 -0.2766 -0.7490  0.0852
12882TIP3    H260138   5.424   3.907   0.703  0.6266 -0.9634  0.2716
12883TIP3   OH260139   2.133   1.324   0.041 -0.1992 -0.4360 -0.2336
12883TIP3    H160140   2.150   1.330   0.135  1.4925 -0.1926 -0.5183
12883TIP3    H260141   2.126   1.415   0.013 -1.4713 -0.5231 -0.2359
12884TIP3   OH260142   2.773   3.376  13.327 -0.3707  0.3022 -0.1738
12884TIP3    H160143   2.744   3.285  13.321 -1.1414  0.5390 -0.0971
12884TIP3    H260144   2.705   3.427  13.283  1.0158  0.6798 -1.9830
12885TIP3   OH260145   5.967   3.220   4.411 -0.5843 -0.2538  0.1617
12885TIP3    H160146   5.964   3.147   4.349  2.1793  0.2156 -0.6611
12885TIP3    H260147   5.971   3.178   4.497 -1.1428 -1.0069 -0.1660
12886TIP3   OH260148   5.287   3.801   0.199  0.9834  0.1161 -0.5198
12886TIP3    H160149   5.234   3.876   0.176  0.0579 -0.7265 -1.2227
12886TIP3    H260150   5.256   3.730   0.143  1.7429 -0.8325  0.1926
12887TIP3   OH260151   5.425   1.047   3.204  0.0326  0.3914  0.5651
12887TIP3    H160152   5.338   1.086   3.196  0.7147  1.8994  0.0758
12887TIP3    H260153   5.409   0.955   3.222 -1.6640  0.9348  2.1114
12888TIP3   OH260154   6.398   4.821   5.451 -0.0433 -0.5318  0.0071
12888TIP3    H160155   6.387   4.854   5.540  0.5811 -1.1428  0.3209
12888TIP3    H260156   6.311   4.830   5.411 -0.1049  0.6115  0.3637
12889TIP3   OH260157   1.805   4.167   3.193  0.3321  0.1618  0.0886
12889TIP3    H160158   1.753   4.219   3.131 -0.9902  0.1221  1.1416
12889TIP3    H260159   1.746   4.098   3.223  1.5238 -0.9291  0.0530
12890TIP3   OH260160   3.703   6.612  15.175 -0.8058 -0.0990 -0.1925
12890TIP3    H160161   3.711   6.703  15.202 -1.0459 -0.0538 -0.2688
12890TIP3    H260162   3.627   6.611  15.117  2.2127  0.6272 -4.5596
12891TIP3   OH260163   6.026   0.078   4.218 -0.2479  0.0186  0.5349
12891TIP3    H160164   6.013   0.123   4.302 -1.7262 -0.7988  0.7817
12891TIP3    H260165   6.013   0.145   4.152 -1.8072  0.1324  0.9128
12892TIP3   OH260166   3.998   1.569  13.456 -0.5567 -0.1720  0.0516
12892TIP3    H160167   4.013   1.654  13.498  0.7364  0.3414 -1.3438
12892TIP3    H260168   3.947   1.589  13.378  0.7484 -0.4739 -0.9191
12893TIP3   OH260169   6.232   2.993  12.718  0.3632  0.0553 -0.2214
12893TIP3    H160170   6.250   2.931  12.647  2.7710 -0.8344  1.0597
12893TIP3    H260171   6.318   3.021  12.748 -0.6339  2.2615  0.8118
12894TIP3   OH260172   6.199   0.649  11.427 -0.1804  0.5564 -0.1995
12894TIP3    H160173   6.274   0.663  11.369 -0.3077  0.2706 -0.4351
12894TIP3    H260174   6.122   0.664  11.373 -0.2967  0.6287 -0.0156
12895TIP3   OH260175   2.591   0.322   5.627 -0.4920 -0.3064  0.1909
12895TIP3    H160176   2.516   0.278   5.586 -0.9587  1.0246 -0.4380
12895TIP3    H260177   2.559   0.346   5.714 -0.0965 -1.5323  0.7006
12896TIP3   OH260178   3.730   3.680  11.649  0.0857 -0.1976 -0.0770
12896TIP3    H160179   3.684   3.603  11.683  0.2161 -0.7947 -1.2048
12896TIP3    H260180   3.704   3.684  11.557  0.4306  0.8537 -0.1364
12897TIP3   OH260181   3.707   1.305   4.385  0.5337  0.1919 -0.0101
12897TIP3    H160182   3.793   1.348   4.388  0.8445 -0.3871 -0.3720
12897TIP3    H260183   3.704   1.252   4.465 -0.2374  1.5683  0.9242
12898TIP3   OH260184   4.422   4.057  12.959 -0.3746 -0.1197 -0.6632
12898TIP3    H160185   4.454   4.129  12.904  2.0491 -0.9773 -0.4885
12898TIP3    H260186   4.448   3.978  12.912 -3.2063 -0.9761 -0.9728
12899TIP3   OH260187   3.913   0.391   1.929  0.3262 -0.1246  0.0661
12899TIP3    H160188   4.009   0.400   1.929  0.1424  4.3551 -0.8887
12899TIP3    H260189   3.889   0.388   2.021  1.3191  0.0990  0.3433
12900TIP3   OH260190   3.056   5.408   5.014  0.4471 -0.3821  0.2036
12900TIP3    H160191   3.130   5.433   4.958 -0.3415  1.0747 -0.2427
12900TIP3    H260192   3.009   5.490   5.030 -1.2450 -1.3067  0.2258
12901TIP3   OH260193   6.198   6.314  15.587  0.1832  0.2317 -0.1899
12901TIP3    H160194   6.236   6.376  15.649 -1.6754  0.6475  0.5971
12901TIP3    H260195   6.202   6.230  15.633  2.2248 -0.1938 -1.0497
12902TIP3   OH260196   3.103   6.026   2.998  0.0187  0.6070  0.6383
12902TIP3    H160197   3.196   6.044   2.987  0.0166 -0.7891 -4.8217
12902TIP3    H260198   3.060   6.110   2.984  0.5388  0.4128 -3.3595
12903TIP3   OH260199   3.422   6.514  15.570  0.2331 -0.2365  0.1711
12903TIP3    H160200   3.337   6.503  15.612  0.1496  1.5045  0.5443
12903TIP3    H260201   3.407   6.576  15.499  0.7793 -1.6170 -1.2162
12904TIP3   OH260202   4.756   3.270   0.208 -0.2177  0.1847  0.2243
12904TIP3    H160203   4.781   3.263   0.116  0.1571 -0.0570  0.3419
12904TIP3    H260204   4.812   3.339   0.243 -1.3326  1.2463 -0.0559
12905TIP3   OH260205   5.782   1.277   5.392  0.2109  0.5006  0.5318
12905TIP3    H160206   5.695   1.306   5.365  0.5837  0.1866 -1.0841
12905TIP3    H260207   5.812   1.345   5.452 -0.5255  1.4135 -0.1057
12906TIP3   OH260208   0.120   1.156   4.613  0.1374 -0.2751 -0.6327
12906TIP3    H160209   0.078   1.115   4.537 -1.0730  0.1844 -0.2282
12906TIP3    H260210   0.142   1.082   4.670  0.2707 -0.5549 -1.0402
12907TIP3   OH260211   2.328   2.322   4.119  0.7968 -0.1028 -0.2243
12907TIP3    H160212   2.411   2.307   4.073  0.3444 -1.1052 -0.7454
12907TIP3    H260213   2.261   2.289   4.060 -0.2808  3.2389 -1.0148
12908TIP3   OH260214   3.954   6.765   2.994  0.2369  0.4704  0.0359
12908TIP3    H160215   3.863   6.787   3.014 -0.1322  0.8629 -1.8321
12908TIP3    H260216   4.001   6.848   2.998  0.6740  0.1817  1.5861
12909TIP3   OH260217   5.916   2.416   4.287 -0.2919 -0.5133  0.5326
12909TIP3    H160218   5.936   2.387   4.198 -0.9704 -0.1477  0.2475
12909TIP3    H260219   5.839   2.473   4.277 -1.3577 -1.7131  1.5371
12910TIP3   OH260220   0.807   2.949   0.322  0.0499 -0.8826 -1.0635
12910TIP3    H160221   0.812   2.854   0.333 -1.2187 -0.8582  0.0652
12910TIP3    H260222   0.861   2.967   0.245  1.7443 -2.2986 -0.2924
12911TIP3   OH260223   5.556   6.138  15.401  0.2019  0.0694  0.3088
12911TIP3    H160224   5.506   6.129  15.320  2.3046  1.6668 -1.2814
12911TIP3    H260225   5.518   6.214  15.444 -0.6506 -0.5278  0.6262
12912TIP3   OH260226   0.027   1.492  11.929 -0.6546  0.1674  0.0910
12912TIP3    H160227   0.012   1.413  11.981 -2.3044 -0.4914 -1.3042
12912TIP3    H260228   0.117   1.484  11.898 -0.8537 -1.2560 -0.1649
12913TIP3   OH260229   3.701   6.071   2.050 -0.3251  0.4459  0.0425
12913TIP3    H160230   3.770   6.018   2.011  0.6087  1.8677 -0.3377
12913TIP3    H260231   3.722   6.075   2.143 -0.3671  0.1858  0.0619
12914TIP3   OH260232   4.618   4.546  13.350 -0.2668 -0.8527 -0.2845
12914TIP3    H160233   4.597   4.616  13.288  1.2464 -1.1321 -1.1607
12914TIP3    H260234   4.653   4.591  13.427  1.7262 -0.6352 -1.2589
12915TIP3   OH260235   5.925   2.647   0.769 -0.9509 -0.3562  0.5395
12915TIP3    H160236   5.882   2.620   0.688 -0.1950  0.4719 -0.1650
12915TIP3    H260237   6.006   2.596   0.771  0.3720  1.5910 -0.6815
12916TIP3   OH260238   0.250   0.838   4.219  0.6642 -0.1700 -0.5614
12916TIP3    H160239   0.328   0.893   4.208  0.5119  0.6788  2.0594
12916TIP3    H260240   0.283   0.759   4.262 -0.0835  1.0755  2.5677
12917TIP3   OH260241   3.745   3.229  12.761 -0.5351  0.1987 -0.2035
12917TIP3    H160242   3.717   3.165  12.827 -0.9688  0.1854 -0.3968
12917TIP3    H260243   3.808   3.181  12.707  0.2820  0.3890  0.5591
12918TIP3   OH260244   4.102   4.346  12.646  0.3066  0.4830 -0.4477
12918TIP3    H160245   4.033   4.385  12.699  0.0008 -0.8574  0.1974
12918TIP3    H260246   4.178   4.403  12.658 -0.8250  2.3659 -1.6979
12919TIP3   OH260247   1.817   1.314   4.555  0.2082 -0.3421 -0.1332
12919TIP3    H160248   1.853   1.360   4.479  0.6870 -0.3045  0.1147
12919TIP3    H260249   1.893   1.273   4.597 -0.2224 -1.5566 -0.4810
12920TIP3   OH260250   1.086   3.817   5.154  0.6028  0.1106  0.6277
12920TIP3    H160251   1.024   3.885   5.183  0.4012 -0.3659  1.3603
12920TIP3    H260252   1.126   3.853   5.076  0.3393  0.9856  0.8785
12921TIP3   OH260253   5.984   3.830  13.889  0.2415 -0.2827  0.0032
12921TIP3    H160254   5.907   3.789  13.929  1.2286 -0.5880  1.7025
12921TIP3    H260255   6.022   3.761  13.834  0.5829 -0.9140  1.0008
12922TIP3   OH260256   4.234   0.319  13.929  0.0538 -0.4342 -0.1637
12922TIP3    H160257   4.287   0.304  13.851  0.4158 -1.1840  0.2070
12922TIP3    H260258   4.144   0.312  13.900  0.1001  1.7039 -0.9811
12923TIP3   OH260259   0.321   5.841   0.778  0.4469 -0.3799  0.0068
12923TIP3    H160260   0.369   5.891   0.844 -0.2553 -0.3453  0.5132
12923TIP3    H260261   0.249   5.899   0.752  0.0628 -0.8341  0.0488
12924TIP3   OH260262   3.254   2.000  12.784  0.0339  0.0167  0.4486
12924TIP3    H160263   3.196   2.005  12.708  0.5721  0.9024  0.0850
12924TIP3    H260264   3.236   2.079  12.834  0.2232 -0.1888  0.8481
12925TIP3   OH260265   1.663   5.192  14.079 -1.0913  0.0751  0.2668
12925TIP3    H160266   1.679   5.256  14.149  1.1784 -0.5090  0.3727
12925TIP3    H260267   1.748   5.150  14.066 -1.6851 -0.5078 -2.1929
12926TIP3   OH260268   3.487   2.206   2.570  0.4454 -0.8447 -0.2790
12926TIP3    H160269   3.434   2.206   2.650  1.2298  0.7727  0.2816
12926TIP3    H260270   3.547   2.132   2.582 -0.3687 -1.4738 -0.0187
12927TIP3   OH260271   2.925   4.708   5.420 -0.0114  0.9454  0.0909
12927TIP3    H160272   2.907   4.614   5.413  0.1461  0.9327 -0.1605
12927TIP3    H260273   2.917   4.740   5.330  0.3541  1.0948  0.1099
12928TIP3   OH260274   6.776   1.594  14.058 -0.2405  0.3296  0.0499
12928TIP3    H160275   6.851   1.568  14.112 -0.4397 -2.1863 -0.7944
12928TIP3    H260276   6.722   1.646  14.117  0.3481 -0.9544  1.8076
12929TIP3   OH260277   1.801   0.023   1.399 -0.3311  0.2677  0.3445
12929TIP3    H160278   1.761   0.090   1.454 -2.0965 -0.4155 -0.0360
12929TIP3    H260279   1.767  -0.060   1.435  0.4980 -0.3307 -0.2196
12930TIP3   OH260280   5.730   5.935  16.819  0.1710  0.5047 -0.1338
12930TIP3    H160281   5.792   6.008  16.825  0.2452  0.3603  1.2590
12930TIP3    H260282   5.749   5.882  16.896 -1.9818  0.6997  0.5764
12931TIP3   OH260283   2.885   3.095  12.638 -0.0566  0.1481  0.3152
12931TIP3    H160284   2.825   3.144  12.582  0.5798  0.0312 -0.4981
12931TIP3    H260285   2.906   3.155  12.709 -0.4745  0.4948  0.1480
12932TIP3   OH260286   2.644   5.216  12.241  1.1803  0.8000  0.3027
12932TIP3    H160287   2.682   5.237  12.155  0.6730  0.2518 -0.0675
12932TIP3    H260288   2.551   5.236  12.231  0.9870  0.0270  0.4834
12933TIP3   OH260289   2.541   2.844  12.041 -0.2997 -0.0471 -0.0347
12933TIP3    H160290   2.466   2.803  12.083 -0.0293  0.0115  0.5185
12933TIP3    H260291   2.529   2.828  11.947 -1.3987  0.6278 -0.0231
12934TIP3   OH260292   3.682   1.102  11.517 -0.1645  0.7434  0.3039
12934TIP3    H160293   3.769   1.143  11.521 -0.0724  0.4832  1.0194
12934TIP3    H260294   3.684   1.051  11.436  0.6275  0.1334  0.6869
12935TIP3   OH260295   0.875   6.336  17.051 -0.3108  0.6918 -0.3001
12935TIP3    H160296   0.857   6.428  17.068  0.4653  0.5264  1.8343
12935TIP3    H260297   0.805   6.289  17.096  1.0572  0.2285  1.4879
12936TIP3   OH260298   2.638   5.628   5.416  0.2700 -0.1596 -0.2054
12936TIP3    H160299   2.693   5.581   5.479  0.7461  1.5235  0.6735
12936TIP3    H260300   2.615   5.709   5.460 -1.1066  0.1558 -1.4304
12937TIP3   OH260301   1.197   5.097   0.890 -0.7649  0.6589  0.1457
12937TIP3    H160302   1.281   5.108   0.934 -1.4237  1.8764  1.1839
12937TIP3    H260303   1.144   5.171   0.921 -2.3473 -0.2933 -0.1576
12938TIP3   OH260304   6.348   1.051  11.991  0.3397  0.6760  0.3145
12938TIP3    H160305   6.306   1.079  12.073 -0.9386 -0.9750  0.2834
12938TIP3    H260306   6.291   0.982  11.957  1.0323  1.0788 -1.8122
12939TIP3   OH260307   2.480   5.194  17.095  0.4139 -0.3959 -0.3812
12939TIP3    H160308   2.448   5.265  17.150 -0.7049 -0.2000 -1.2454
12939TIP3    H260309   2.574   5.209  17.087  0.4123  0.1721  0.5922
12940TIP3   OH260310   2.648   4.727  13.437 -0.0641 -0.5896  0.4493
12940TIP3    H160311   2.609   4.791  13.497  0.3398 -0.0502  0.1425
12940TIP3    H260312   2.634   4.643  13.480 -0.2354 -0.2581  1.0596
12941TIP3   OH260313   6.163   2.869  15.028  0.1942 -0.1729  0.2968
12941TIP3    H160314   6.229   2.900  15.090 -1.4386 -0.0773  2.0720
12941TIP3    H260315   6.147   2.778  15.053  0.7320 -0.7009 -1.1340
12942TIP3   OH260316   1.908   3.904   0.039  0.5400 -0.0613  0.1139
12942TIP3    H160317   1.958   3.912  -0.042 -0.0986  2.1646 -0.1242
12942TIP3    H260318   1.832   3.851   0.015  1.0115 -0.5186 -0.3945
12943TIP3   OH260319   2.932   0.940  10.976  0.3313 -0.4370 -0.7479
12943TIP3    H160320   2.873   0.968  11.045 -0.1105  2.4045 -2.1278
12943TIP3    H260321   2.916   0.846  10.967 -2.2770 -0.1882  0.4630
12944TIP3   OH260322   4.182   6.801  15.679 -0.0595  0.3218  0.4994
12944TIP3    H160323   4.171   6.760  15.765 -1.1237 -1.6490 -0.5181
12944TIP3    H260324   4.112   6.865  15.674 -1.0912 -0.7705  0.4636
12945TIP3   OH260325   4.437   0.874   2.988  0.3181  0.1660 -0.3027
12945TIP3    H160326   4.362   0.848   2.934  0.7659  0.2617 -0.9820
12945TIP3    H260327   4.398   0.909   3.068 -0.3364 -1.8200  0.3296
12946TIP3   OH260328   2.015   2.019   6.670  0.4643 -0.5393 -0.2771
12946TIP3    H160329   1.998   1.925   6.676  0.2183 -0.4197  1.8363
12946TIP3    H260330   2.099   2.031   6.715 -0.5828  0.4756  1.5058
12947TIP3   OH260331   3.841   4.264   1.507  0.3636  0.3361  0.0976
12947TIP3    H160332   3.767   4.325   1.505  0.2518  0.2493  1.0743
12947TIP3    H260333   3.826   4.211   1.585  1.2312  0.0314  0.0674
12948TIP3   OH260334   6.025   0.415   0.638  0.3390  0.4007 -0.0449
12948TIP3    H160335   6.002   0.458   0.556 -1.9147 -0.5334  0.0400
12948TIP3    H260336   5.973   0.335   0.639  0.6897  0.1391  2.0790
12949TIP3   OH260337   0.695   5.058  13.052 -0.0991 -0.2211 -0.1500
12949TIP3    H160338   0.601   5.039  13.043 -0.0034 -1.0445  0.4734
12949TIP3    H260339   0.709   5.063  13.147  0.4300  0.2321 -0.2462
12950TIP3   OH260340   3.402   2.355  16.721 -0.1656 -0.5680 -0.2202
12950TIP3    H160341   3.328   2.323  16.772 -0.7340 -1.2417 -1.4143
12950TIP3    H260342   3.462   2.281  16.716  0.5506 -0.0599  0.6426
12951TIP3   OH260343   3.488   2.157   5.299 -0.4375 -0.0999 -0.1402
12951TIP3    H160344   3.411   2.211   5.319  0.4397  0.9169  0.6170
12951TIP3    H260345   3.519   2.190   5.216  0.5486  1.1365  0.6869
12952TIP3   OH260346   5.874   6.217  12.755 -0.3149  0.2986 -0.6467
12952TIP3    H160347   5.942   6.226  12.689 -0.7919  0.9654 -1.0661
12952TIP3    H260348   5.918   6.176  12.829  0.3016 -0.1698 -1.2601
12953TIP3   OH260349   0.126   5.401  13.858 -0.2776 -0.2112  0.0574
12953TIP3    H160350   0.154   5.419  13.947  3.3262 -3.9404 -0.0256
12953TIP3    H260351   0.197   5.432  13.803 -0.6535 -1.4000 -1.1554
12954TIP3   OH260352   1.821   5.785   1.476 -0.5404 -0.4105  0.9857
12954TIP3    H160353   1.866   5.835   1.544  1.3196  0.8405 -1.0478
12954TIP3    H260354   1.891   5.745   1.425 -1.9385 -3.8466  1.4975
12955TIP3   OH260355   2.322   4.678  10.569 -0.2678  0.8988  0.2656
12955TIP3    H160356   2.388   4.681  10.639 -0.3814  0.4428  0.3978
12955TIP3    H260357   2.352   4.742  10.505  1.0124 -0.1985 -0.2938
12956TIP3   OH260358   1.539   6.218   0.097 -0.1950  0.0496 -0.0275
12956TIP3    H160359   1.455   6.183   0.127 -0.0169 -1.0936 -0.7951
12956TIP3    H260360   1.601   6.190   0.165 -0.4159  0.9466  0.5711
12957TIP3   OH260361   6.775   1.494  13.623 -0.3861 -0.1418 -0.3140
12957TIP3    H160362   6.850   1.517  13.677 -0.5638  0.1371 -0.1850
12957TIP3    H260363   6.752   1.405  13.651 -0.0002 -0.2932 -0.4744
12958TIP3   OH260364   1.941   1.358  12.325 -0.3575  0.2731  0.8785
12958TIP3    H160365   1.882   1.382  12.396 -0.6676 -0.3393  0.8357
12958TIP3    H260366   1.996   1.435  12.312 -0.3226  0.4034  1.7562
12959TIP3   OH260367   6.122   3.620  13.776  0.3348  0.1689 -0.4531
12959TIP3    H160368   6.179   3.594  13.704  0.0577  0.8803 -0.9378
12959TIP3    H260369   6.101   3.538  13.821 -1.0228 -0.5672 -2.3036
12960TIP3   OH260370   0.426   4.279   6.843 -0.3619  0.3479  0.0108
12960TIP3    H160371   0.514   4.302   6.813 -0.1170 -0.7045 -0.1326
12960TIP3    H260372   0.378   4.362   6.843  0.3725  0.7918 -0.7852
12961TIP3   OH260373   6.605   5.571  17.169  0.1249 -0.3053  0.9309
12961TIP3    H160374   6.693   5.567  17.133  0.2883  1.8199  0.9605
12961TIP3    H260375   6.617   5.575  17.264 -0.0394 -0.7459  0.9706
12962TIP3   OH260376   5.708   0.364   5.408  0.2546  0.3417  0.4529
12962TIP3    H160377   5.662   0.289   5.443 -0.6891  0.8456  0.3136
12962TIP3    H260378   5.735   0.415   5.485 -1.3690  1.1845  0.4958
12963TIP3   OH260379   3.425   0.114  15.899 -0.4757  0.3466  0.0914
12963TIP3    H160380   3.369   0.040  15.877  1.0022 -0.6998 -0.2697
12963TIP3    H260381   3.403   0.181  15.833 -2.6010  0.7076  1.0770
12964TIP3   OH260382   2.595   0.286   3.892 -0.1069  0.3485  0.1579
12964TIP3    H160383   2.628   0.329   3.814 -0.1381 -0.9332 -0.5936
12964TIP3    H260384   2.669   0.286   3.953 -0.3025  2.0067  0.4465
12965TIP3   OH260385   1.044   0.722  12.438  0.4267  0.5062 -0.4840
12965TIP3    H160386   1.058   0.659  12.509  1.7411 -1.4673 -2.3689
12965TIP3    H260387   1.132   0.755  12.418  0.6552 -1.4405 -3.2359
12966TIP3   OH260388   4.445   0.269   2.421 -0.5395  0.0509  0.3960
12966TIP3    H160389   4.411   0.194   2.469  1.4806 -1.5173 -0.4910
12966TIP3    H260390   4.435   0.343   2.481 -0.4500 -1.3463  2.2082
12967TIP3   OH260391   4.981   3.190   2.415  0.1933  0.0479  0.0131
12967TIP3    H160392   5.044   3.259   2.393 -0.4662  0.5372 -0.3626
12967TIP3    H260393   4.921   3.231   2.478  0.0471 -0.3130  0.1094
12968TIP3   OH260394   5.408   4.143  11.754  0.1831  0.0530  0.2510
12968TIP3    H160395   5.381   4.097  11.675  1.8218 -0.9314  0.2096
12968TIP3    H260396   5.327   4.172  11.795 -0.8750 -2.0626 -0.2250
12969TIP3   OH260397   2.376   1.084  14.620  0.1174 -0.4432 -0.1694
12969TIP3    H160398   2.372   1.179  14.607  0.3924 -0.2338  1.1868
12969TIP3    H260399   2.289   1.061  14.652  0.4362 -0.4353  0.7392
12970TIP3   OH260400   6.144   3.990  12.755  0.6274  0.4519 -0.1185
12970TIP3    H160401   6.231   4.013  12.788 -0.4217  1.1062  2.3697
12970TIP3    H260402   6.161   3.959  12.666  3.5320 -0.4888  0.6254
12971TIP3   OH260403   6.307   2.033  15.565 -0.0310  0.4131  0.1065
12971TIP3    H160404   6.295   1.993  15.651  1.2602  0.2548  0.2268
12971TIP3    H260405   6.365   2.107  15.580  1.3513 -0.4357 -0.8223
12972TIP3   OH260406   0.980   2.411  13.092 -0.2315  0.5267  0.9821
12972TIP3    H160407   0.938   2.326  13.078 -0.8980  1.1682 -1.2431
12972TIP3    H260408   0.911   2.466  13.130 -0.2781  0.5278  0.8958
12973TIP3   OH260409   3.863   6.453   3.915 -0.1300  0.1044  0.1560
12973TIP3    H160410   3.927   6.403   3.864 -1.0988 -2.5633  1.3944
12973TIP3    H260411   3.912   6.484   3.991  0.6376  1.7514 -0.9381
12974TIP3   OH260412   2.235   6.740  11.380 -0.0273  0.3375 -0.0347
12974TIP3    H160413   2.285   6.663  11.409 -0.2713  0.0777 -0.2921
12974TIP3    H260414   2.175   6.706  11.313 -1.3944  0.4183  1.1076
12975TIP3   OH260415   6.707   4.065   6.489 -0.4360 -0.2099  0.3962
12975TIP3    H160416   6.658   3.984   6.477 -0.6764  0.1771 -1.5038
12975TIP3    H260417   6.756   4.051   6.571 -1.6291 -1.6456  0.9092
12976TIP3   OH260418   4.456   5.981  13.841  0.2145  0.2854  0.7990
12976TIP3    H160419   4.477   6.063  13.795 -1.8295  0.2417 -0.3784
12976TIP3    H260420   4.540   5.939  13.856  1.1471  1.4759 -0.7618
12977TIP3   OH260421   4.163   1.456  15.636 -1.0882  0.0786 -0.3108
12977TIP3    H160422   4.199   1.390  15.695 -1.8066  0.3432  0.4307
12977TIP3    H260423   4.228   1.526  15.635 -0.3988 -0.5485 -0.9739
12978TIP3   OH260424   2.414   3.790  11.883  0.8024  0.1108 -0.0103
12978TIP3    H160425   2.373   3.846  11.948  1.2013 -1.3162  1.5330
12978TIP3    H260426   2.351   3.787  11.811 -0.0740  0.9960  0.6917
12979TIP3   OH260427   5.168   4.001  13.090 -0.4037  0.4467 -0.3374
12979TIP3    H160428   5.157   3.917  13.046 -1.9283  0.8625 -0.7943
12979TIP3    H260429   5.255   3.995  13.131 -0.0408 -0.9316 -1.2355
12980TIP3   OH260430   3.769   5.808   6.467 -0.0027  0.0456  0.1898
12980TIP3    H160431   3.724   5.855   6.538  1.8827  1.3982  0.5852
12980TIP3    H260432   3.710   5.736   6.445 -1.6814  0.8975  1.5945
12981TIP3   OH260433   5.465   1.590  13.502  0.2458 -0.3008  0.0304
12981TIP3    H160434   5.511   1.646  13.564 -0.6157  0.8592 -0.3317
12981TIP3    H260435   5.401   1.543  13.555 -0.5423  0.7460  0.0569
12982TIP3   OH260436   3.256   0.549   2.946  0.0770 -0.2495 -0.0189
12982TIP3    H160437   3.167   0.524   2.923 -0.0170 -1.1310  1.1782
12982TIP3    H260438   3.280   0.616   2.882 -1.3883 -0.0910 -0.4348
12983TIP3   OH260439   5.638   4.322   0.996  0.1989  0.1802 -0.3177
12983TIP3    H160440   5.645   4.364   0.911 -0.5132  0.2231 -0.3603
12983TIP3    H260441   5.674   4.234   0.983 -0.7407 -0.1369 -0.9052
12984TIP3   OH260442   0.172   0.621  14.086 -0.6927  0.3135 -0.0219
12984TIP3    H160443   0.217   0.648  14.006  0.3516 -0.9958  0.0886
12984TIP3    H260444   0.118   0.547  14.060  0.9719 -1.2436  0.7695
12985TIP3   OH260445   5.798   0.719   0.094 -0.4718  0.0429 -0.1011
12985TIP3    H160446   5.880   0.743   0.137  0.1000 -0.8710 -0.6630
12985TIP3    H260447   5.773   0.797   0.044  1.8829 -0.7180 -2.7178
12986TIP3   OH260448   6.159   0.846   3.681  0.0864  0.1161 -0.0209
12986TIP3    H160449   6.223   0.788   3.724 -0.6747 -0.7955 -0.0811
12986TIP3    H260450   6.190   0.853   3.591  0.7336  0.6325  0.2288
12987TIP3   OH260451   5.521   3.832   1.779 -0.4327 -0.1402 -0.0263
12987TIP3    H160452   5.595   3.771   1.772 -0.7129 -0.5363  0.4146
12987TIP3    H260453   5.502   3.836   1.873 -0.2699  0.8098 -0.0259
12988TIP3   OH260454   6.394   5.027   3.102  0.0772  0.6490  0.1464
12988TIP3    H160455   6.477   5.070   3.081 -0.0175  1.2038  0.8444
12988TIP3    H260456   6.395   5.018   3.197 -0.3751  0.0616  0.1001
12989TIP3   OH260457   2.118   3.211   4.732  0.7845  0.1152  0.0006
12989TIP3    H160458   2.051   3.279   4.718  1.3907  1.1080  1.6324
12989TIP3    H260459   2.157   3.198   4.646 -1.4287 -0.4383 -0.9816
12990TIP3   OH260460   6.722   0.271  15.049  0.0422  0.1624 -0.4890
12990TIP3    H160461   6.737   0.359  15.015  2.1498  1.0293  2.3137
12990TIP3    H260462   6.796   0.220  15.017 -0.0008 -0.0164 -0.3039
12991TIP3   OH260463   4.547   5.333   2.602  0.3785 -0.0948 -0.4178
12991TIP3    H160464   4.631   5.307   2.564  1.0207  1.8191 -0.3994
12991TIP3    H260465   4.489   5.260   2.583  1.9720 -1.3660 -0.6509
12992TIP3   OH260466   1.144   0.178   0.094  0.0065 -0.2949 -0.3256
12992TIP3    H160467   1.191   0.095   0.094  3.1410  1.3109  0.1903
12992TIP3    H260468   1.182   0.227   0.021 -0.0282  1.5266  0.8071
12993TIP3   OH260469   0.044   1.023   1.133  0.6646 -0.1841 -0.0899
12993TIP3    H160470   0.010   1.110   1.157  0.9535  1.0122 -3.4566
12993TIP3    H260471   0.067   1.031   1.040  3.4607 -3.0618  0.1841
12994TIP3   OH260472   3.792   0.507  12.902  0.1963 -0.9040 -0.6232
12994TIP3    H160473   3.753   0.593  12.911  1.3304 -0.4186 -0.0885
12994TIP3    H260474   3.852   0.515  12.827  1.2322 -0.8373  0.1818
12995TIP3   OH260475   5.202   2.096  16.477  0.4053  0.9946  0.1867
12995TIP3    H160476   5.207   2.107  16.572  0.1942  2.3736  0.0631
12995TIP3    H260477   5.182   2.003  16.465 -0.0769  0.9014  1.5043
12996TIP3   OH260478   2.190   5.566  12.515 -0.4869 -0.6078  0.2059
12996TIP3    H160479   2.232   5.489  12.475 -0.3830 -0.6411  0.3749
12996TIP3    H260480   2.146   5.530  12.593  1.9381 -0.0998  1.9588
12997TIP3   OH260481   4.238   0.660  16.493 -0.1446 -0.2078 -0.1207
12997TIP3    H160482   4.199   0.631  16.575  0.7945  1.5237  0.9890
12997TIP3    H260483   4.184   0.735  16.466 -1.2309 -1.5084 -1.8142
12998TIP3   OH260484   2.862   6.539  14.428  0.0107 -0.1498  0.0050
12998TIP3    H160485   2.842   6.631  14.441  0.1930 -0.1683  0.4444
12998TIP3    H260486   2.818   6.516  14.346  1.7129  0.8674 -1.2657
12999TIP3   OH260487   3.917   0.023  14.157  0.3269 -0.1927  0.1925
12999TIP3    H160488   4.006   0.051  14.176  0.1941  1.2549 -1.0569
12999TIP3    H260489   3.863   0.101  14.174 -0.4916 -0.5848 -0.5100
13000TIP3   OH260490   1.487   4.484  12.219 -0.4892 -0.3344  0.0478
13000TIP3    H160491   1.518   4.399  12.189 -0.8926 -0.5707  0.2819
13000TIP3    H260492   1.392   4.482  12.204 -0.4267  0.3099 -0.5099
13001TIP3   OH260493   1.787   5.061   0.944 -0.5658  0.0098  0.0115
13001TIP3    H160494   1.863   5.014   0.909 -1.0939 -0.4463 -0.5567
13001TIP3    H260495   1.754   5.112   0.870  0.1178  1.4587  0.6753
13002TIP3   OH260496   3.087   1.059   4.898  0.1845 -0.5200  0.3503
13002TIP3    H160497   3.152   1.054   4.828  0.0124  1.4833 -0.0065
13002TIP3    H260498   3.082   0.970   4.933  3.2556 -0.7320  0.5228
13003TIP3   OH260499   0.005   5.013  14.755 -0.3640 -0.2179 -0.4984
13003TIP3    H160500   0.039   5.073  14.821  2.9089 -1.9664 -0.4007
13003TIP3    H260501   0.014   4.926  14.793  0.5968 -1.1941 -2.7378
13004TIP3   OH260502   2.727   4.322  17.205 -0.9241  0.1745 -0.3620
13004TIP3    H160503   2.696   4.409  17.230 -0.0121  0.4728 -0.2134
13004TIP3    H260504   2.662   4.291  17.142 -2.1205  0.2861  0.7720
13005TIP3   OH260505   5.545   2.075  12.779  0.0236 -0.0755 -0.1978
13005TIP3    H160506   5.499   2.088  12.696  0.1933 -0.4815 -0.3568
13005TIP3    H260507   5.475   2.071  12.845 -0.0595  1.3201 -0.1733
13006TIP3   OH260508   1.253   0.826  15.287 -0.0172 -0.0209  0.3509
13006TIP3    H160509   1.225   0.756  15.346  0.4087 -0.4865  0.0166
13006TIP3    H260510   1.243   0.906  15.338  1.7549 -0.5369  1.6216
13007TIP3   OH260511   4.237   3.763   5.573  0.1038  0.4485 -0.4370
13007TIP3    H160512   4.285   3.724   5.646  0.3399  0.7912 -0.4100
13007TIP3    H260513   4.162   3.806   5.613 -1.1580 -1.4421 -0.6021
13008TIP3   OH260514   6.565   2.944  12.404 -0.3962 -0.2128 -0.1975
13008TIP3    H160515   6.478   2.940  12.364 -1.0118 -0.2714  1.0935
13008TIP3    H260516   6.579   3.037  12.421  1.0487  0.1770 -2.9523
13009TIP3   OH260517   2.375   0.260  14.615 -0.0027 -0.3788 -0.3767
13009TIP3    H160518   2.369   0.167  14.637 -0.3938 -0.3218 -0.2385
13009TIP3    H260519   2.284   0.286  14.596  0.3799 -0.6982 -3.1629
13010TIP3   OH260520   4.039   4.871   0.567 -0.0751 -0.3461  0.0794
13010TIP3    H160521   4.008   4.795   0.519  0.5768 -0.4770 -0.1449
13010TIP3    H260522   4.124   4.891   0.528 -0.8193  1.3177 -0.7698
13011TIP3   OH260523   4.502   4.909   1.543  0.0708 -0.0640 -0.5757
13011TIP3    H160524   4.437   4.947   1.484 -0.4541  0.4565  0.3134
13011TIP3    H260525   4.567   4.978   1.556  1.0120 -0.6868 -1.7121
13012TIP3   OH260526   2.811   1.956   1.856  0.5614 -0.3003 -0.2937
13012TIP3    H160527   2.872   2.026   1.881  1.5654 -0.9125 -0.9490
13012TIP3    H260528   2.752   1.948   1.931  0.4814  1.1636 -0.1604
13013TIP3   OH260529   0.060   0.650  15.097 -0.2371 -0.0553 -0.2578
13013TIP3    H160530   0.003   0.643  15.021 -0.2945  0.2450 -0.2458
13013TIP3    H260531   0.119   0.575  15.090  0.1338  0.2838 -0.9139
13014TIP3   OH260532   5.367   1.745   2.975  0.0881 -0.1568  0.0240
13014TIP3    H160533   5.311   1.691   2.920 -0.1984  0.4325 -0.2705
13014TIP3    H260534   5.307   1.787   3.037  0.2641  0.0868  0.0321
13015TIP3   OH260535   0.434   2.573   0.284 -0.1603  0.0818 -0.2274
13015TIP3    H160536   0.436   2.484   0.249 -0.9668 -0.4267  0.9933
13015TIP3    H260537   0.342   2.596   0.288 -0.0881  0.1421  1.5202
13016TIP3   OH260538   2.152   1.287   2.766  0.4495  0.0262  0.3172
13016TIP3    H160539   2.168   1.195   2.784 -1.2354 -0.4499 -0.3467
13016TIP3    H260540   2.227   1.316   2.713  1.0673 -0.9127  0.6707
13017TIP3   OH260541   2.445   6.658  10.404  0.7244  0.6679 -0.1966
13017TIP3    H160542   2.458   6.747  10.369 -1.1384  1.4403  0.9359
13017TIP3    H260543   2.353   6.655  10.427  0.3302 -2.1955 -1.7717
13018TIP3   OH260544   0.405   5.415   5.736  0.2043 -0.8850 -0.2701
13018TIP3    H160545   0.358   5.490   5.700  0.9161 -0.3293 -0.0504
13018TIP3    H260546   0.389   5.420   5.830  0.5356 -0.8129 -0.2189
13019TIP3   OH260547   0.272   2.486   0.792 -0.2704  0.1457  0.4401
13019TIP3    H160548   0.360   2.455   0.812  0.3364  1.8838  0.6469
13019TIP3    H260549   0.257   2.460   0.701  0.5901  0.1004  0.3095
13020TIP3   OH260550   4.112   2.932  13.848 -0.1554  0.2790 -0.2963
13020TIP3    H160551   4.036   2.982  13.819 -0.3998 -0.8973 -1.8716
13020TIP3    H260552   4.076   2.849  13.878  0.4282  0.0803 -0.1387
13021TIP3   OH260553   3.552   4.339  15.313 -0.3233 -0.0727  0.1149
13021TIP3    H160554   3.548   4.247  15.287  1.1142 -1.2572  3.5125
13021TIP3    H260555   3.634   4.371  15.274  0.0758 -0.7713  0.3638
13022TIP3   OH260556   4.998   2.716   2.213 -0.2194  0.4328  0.0228
13022TIP3    H160557   4.965   2.796   2.252  1.5688  0.8044  0.8256
13022TIP3    H260558   5.076   2.742   2.164 -0.7591 -0.5002 -1.4250
13023TIP3   OH260559   6.284   5.519  10.619  0.6756 -0.1806  0.2266
13023TIP3    H160560   6.231   5.495  10.695  0.4413 -0.4982 -0.0312
13023TIP3    H260561   6.222   5.556  10.556  1.2068  2.2878  1.0791
13024TIP3   OH260562   5.393   4.851   0.433 -0.2618 -0.0394 -0.0619
13024TIP3    H160563   5.328   4.921   0.429 -1.2549 -0.8545  1.1639
13024TIP3    H260564   5.381   4.803   0.351 -0.8291  0.1475 -0.0953
13025TIP3   OH260565   0.814   2.449   5.923 -0.1104 -0.1035 -0.7785
13025TIP3    H160566   0.814   2.499   5.841 -2.1264  0.0764 -0.7040
13025TIP3    H260567   0.878   2.380   5.908  0.0313  0.3058 -2.2593
13026TIP3   OH260568   5.686   1.306  16.072 -0.3618 -0.0639  0.2256
13026TIP3    H160569   5.702   1.253  16.150  0.5962 -0.8650 -0.4741
13026TIP3    H260570   5.633   1.249  16.015 -0.5626  0.2885  0.0576
13027TIP3   OH260571   0.043   6.453  15.299  0.3113  0.0780 -0.4740
13027TIP3    H160572   0.044   6.530  15.357  1.2368  0.5124 -1.0341
13027TIP3    H260573   0.136   6.437  15.280  0.0161  1.2233 -3.4746
13028TIP3   OH260574   0.534   6.261   1.258 -0.8868 -0.1606  0.3530
13028TIP3    H160575   0.465   6.223   1.312 -0.1640 -0.9682  0.7281
13028TIP3    H260576   0.529   6.355   1.275 -3.6409  0.1940 -1.6688
13029TIP3   OH260577   6.217   3.726   5.010  0.3302 -0.5025 -0.3551
13029TIP3    H160578   6.165   3.700   4.934 -1.1532  1.9945 -0.3182
13029TIP3    H260579   6.307   3.720   4.980 -0.0219 -2.8339 -1.1532
13030TIP3   OH260580   6.244   3.737  15.741 -0.2928  0.6328 -0.5441
13030TIP3    H160581   6.297   3.789  15.802  0.9041 -1.0411 -0.0903
13030TIP3    H260582   6.271   3.767  15.654  0.7739  0.4232 -0.2980
13031TIP3   OH260583   0.786   0.015  16.377  0.6802  0.6560  0.5026
13031TIP3    H160584   0.785   0.094  16.322  2.1042  0.6703  0.4444
13031TIP3    H260585   0.765   0.046  16.464  1.2509  1.1219  0.4814
13032TIP3   OH260586   3.268   2.272  14.008 -0.5870 -0.3734  0.5878
13032TIP3    H160587   3.218   2.346  14.043 -2.1533 -1.2455  0.2822
13032TIP3    H260588   3.216   2.195  14.031  0.4672 -1.3100 -0.0435
13033TIP3   OH260589   5.781   3.407   5.001  0.1892 -0.0841 -0.0902
13033TIP3    H160590   5.742   3.332   4.957  1.6778 -1.5765  1.0277
13033TIP3    H260591   5.763   3.393   5.094 -0.2663  1.4174  0.0698
13034TIP3   OH260592   0.075   0.640  15.506  0.0988  0.6842 -0.0870
13034TIP3    H160593   0.120   0.700  15.567  0.9523 -1.6178  1.6849
13034TIP3    H260594   0.146   0.598  15.458 -0.1730 -1.5156  1.3129
13035TIP3   OH260595   3.038   6.287  11.944 -0.0729  0.0976  0.1671
13035TIP3    H160596   2.950   6.264  11.913  0.2602  0.3749 -1.0046
13035TIP3    H260597   3.045   6.243  12.029 -1.4853  0.3812  0.4663
13036TIP3   OH260598   0.504   5.391  15.585  0.5586  0.4986 -0.2907
13036TIP3    H160599   0.451   5.413  15.509  0.6817  1.7606 -0.0447
13036TIP3    H260600   0.441   5.368  15.653  0.4671 -1.2219 -0.9152
13037TIP3   OH260601   4.212   0.782  14.749 -0.3595 -0.0818 -0.5402
13037TIP3    H160602   4.130   0.830  14.736 -0.9303  0.2110  3.2683
13037TIP3    H260603   4.189   0.691  14.729 -1.9385 -0.1440  1.2780
13038TIP3   OH260604   1.892   5.007  14.066  0.7814  0.1237  0.0533
13038TIP3    H160605   1.877   4.999  13.972 -1.4350  0.2869  0.3439
13038TIP3    H260606   1.937   4.926  14.091  0.3257 -0.4496 -0.9480
13039TIP3   OH260607   2.710   4.981   4.914  0.0218  0.8124  0.6753
13039TIP3    H160608   2.795   4.962   4.953 -0.0128  3.3399  2.1871
13039TIP3    H260609   2.663   5.030   4.981 -0.6746  4.0423 -1.9287
13040TIP3   OH260610   4.493   1.745   4.243 -0.0090  0.3130 -0.4902
13040TIP3    H160611   4.547   1.782   4.313  0.4702 -0.3060 -0.5316
13040TIP3    H260612   4.453   1.822   4.202 -0.2028  0.6943  0.3783
13041TIP3   OH260613   6.787   3.103   5.689  0.3981  0.0252  0.0263
13041TIP3    H160614   6.806   3.105   5.595  0.4209 -2.7211 -0.0882
13041TIP3    H260615   6.858   3.156   5.728  1.8836 -0.8726 -1.3200
13042TIP3   OH260616   1.488   4.772  17.119 -0.4027 -0.1595  0.1404
13042TIP3    H160617   1.528   4.856  17.095 -2.2783  0.3556 -1.5055
13042TIP3    H260618   1.561   4.718  17.148  1.0282  1.6541  0.1254
13043TIP3   OH260619   1.945   6.786  10.716 -0.4201 -0.0571 -0.2565
13043TIP3    H160620   2.009   6.816  10.780 -0.9359  0.0115  0.2458
13043TIP3    H260621   1.982   6.809  10.631 -0.8835  2.2505  0.0852
13044TIP3   OH260622   6.492   1.228   6.090  0.2732  0.7271 -0.0632
13044TIP3    H160623   6.557   1.192   6.030  0.4164  0.2721  0.3536
13044TIP3    H260624   6.524   1.204   6.177 -1.4770 -1.2928  0.0889
13045TIP3   OH260625   4.451   3.947  14.371 -0.0684 -0.1394  0.0711
13045TIP3    H160626   4.384   3.899  14.419  1.1676 -1.2318  0.7837
13045TIP3    H260627   4.457   4.032  14.415 -0.7072 -0.1837  0.2412
13046TIP3   OH260628   4.931   2.991  14.883  0.6614  0.0351  0.4668
13046TIP3    H160629   4.975   2.941  14.813 -2.0897  0.9659 -2.1567
13046TIP3    H260630   4.979   3.074  14.886  0.6335  0.1115 -0.6048
13047TIP3   OH260631   6.823   2.150  12.191  0.5598 -0.0423  0.1362
13047TIP3    H160632   6.735   2.175  12.165 -0.4093  0.3244  3.3481
13047TIP3    H260633   6.836   2.192  12.276  3.2199 -1.4084  0.5141
13048TIP3   OH260634   4.465   1.012   5.742  0.1556  0.0444 -0.6223
13048TIP3    H160635   4.475   1.084   5.680  1.7415  0.1420 -0.2962
13048TIP3    H260636   4.434   1.054   5.822  0.5986  0.3063 -0.5834
13049TIP3   OH260637   0.782   1.677  16.108  0.3393 -0.5346  0.4139
13049TIP3    H160638   0.787   1.583  16.093  0.4092 -0.5478  0.5171
13049TIP3    H260639   0.706   1.706  16.057 -0.3437 -0.8151  1.2568
13050TIP3   OH260640   1.988   5.961   4.228 -0.6542  0.3488  0.3376
13050TIP3    H160641   1.942   6.003   4.156 -0.7612 -2.3039 -1.2734
13050TIP3    H260642   2.063   5.919   4.186  1.3216  1.6226  2.3687
13051TIP3   OH260643   5.047   4.737  15.524  0.2551 -0.1917 -0.1365
13051TIP3    H160644   5.004   4.770  15.445 -0.1295 -1.0730 -0.3002
13051TIP3    H260645   5.104   4.809  15.552  1.4281 -0.3435 -1.9672
13052TIP3   OH260646   2.850   1.747   1.686  0.3989  0.0114 -0.2405
13052TIP3    H160647   2.815   1.673   1.735 -0.1366  0.5958  0.2753
13052TIP3    H260648   2.847   1.820   1.747  2.0912  0.2032 -0.3343
13053TIP3   OH260649   5.551   0.487   1.245  0.0327 -0.2232 -0.1927
13053TIP3    H160650   5.492   0.532   1.184  2.1797  0.6678 -1.7475
13053TIP3    H260651   5.617   0.552   1.266  1.2629 -1.6009  0.3397
13054TIP3   OH260652   2.342   6.211   4.091 -0.2639  0.1436  0.2398
13054TIP3    H160653   2.294   6.276   4.039 -0.7902  0.1422  0.7160
13054TIP3    H260654   2.336   6.243   4.181  1.5797  0.7277  0.1840
13055TIP3   OH260655   0.974   0.286   5.934 -0.6078 -0.5471 -0.5310
13055TIP3    H160656   0.969   0.231   5.855 -1.9541 -1.0648 -0.1129
13055TIP3    H260657   0.895   0.340   5.931  0.7387  1.5181 -0.9833
13056TIP3   OH260658   5.899   5.221  15.412 -0.1321 -0.3201  0.3329
13056TIP3    H160659   5.833   5.178  15.467 -1.7772  2.2348  0.4991
13056TIP3    H260660   5.878   5.193  15.323  0.7075 -2.1422  0.6604
13057TIP3   OH260661   5.690   1.690   5.813 -0.1863 -0.2162 -0.1424
13057TIP3    H160662   5.686   1.785   5.799 -3.2523 -0.2755 -0.2519
13057TIP3    H260663   5.654   1.653   5.732 -0.6788 -1.3841  0.5999
13058TIP3   OH260664   1.690   2.047   0.205 -0.5243  0.5565  0.3627
13058TIP3    H160665   1.743   2.126   0.215 -0.0645  0.2503  0.3675
13058TIP3    H260666   1.600   2.076   0.219 -0.5556  1.4384 -1.3610
13059TIP3   OH260667   6.680   3.298   2.872 -0.1199  0.1946  0.7254
13059TIP3    H160668   6.758   3.339   2.833  0.1773 -2.3059 -1.6635
13059TIP3    H260669   6.710   3.265   2.956  1.8478 -1.5762 -0.5428
13060TIP3   OH260670   2.260   3.393  12.413 -0.3858 -0.2769  0.2486
13060TIP3    H160671   2.348   3.428  12.427 -0.7337  0.8702 -0.3050
13060TIP3    H260672   2.226   3.378  12.501  0.7319 -1.7439  0.4643
13061TIP3   OH260673   6.579   0.460   1.340  0.2243  0.4212 -0.0218
13061TIP3    H160674   6.519   0.428   1.408  0.4871 -0.0814 -0.0188
13061TIP3    H260675   6.652   0.398   1.343  0.4316  0.6461 -0.4753
13062TIP3   OH260676   4.102   1.074   0.275  0.0095  0.3319 -0.5549
13062TIP3    H160677   4.042   1.149   0.266 -3.0681 -1.5542  2.0135
13062TIP3    H260678   4.073   1.012   0.208  0.5666  0.2623 -0.7349
13063TIP3   OH260679   0.373   5.725  16.151  0.4921  0.3511  0.1149
13063TIP3    H160680   0.306   5.748  16.086  2.5551  1.2530 -1.8049
13063TIP3    H260681   0.346   5.772  16.230 -1.4628  0.1882 -0.4047
13064TIP3   OH260682   0.504   1.881  14.900 -0.6019  0.3772 -0.5559
13064TIP3    H160683   0.553   1.866  14.981 -0.5708 -2.1812 -0.9503
13064TIP3    H260684   0.420   1.916  14.929 -0.9573 -1.3985  0.7293
13065TIP3   OH260685   3.237   6.097  14.582 -0.2783  0.6112 -0.4072
13065TIP3    H160686   3.265   6.013  14.618  0.1321  1.3012  0.9723
13065TIP3    H260687   3.230   6.082  14.488 -1.7184 -1.3842 -0.0543
13066TIP3   OH260688   1.680   3.759   2.530  0.4601  0.2785 -0.0589
13066TIP3    H160689   1.772   3.772   2.507 -0.1210 -0.0779 -3.0228
13066TIP3    H260690   1.664   3.667   2.510 -0.4759  0.2601  0.7415
13067TIP3   OH260691   5.181   0.805  14.976  0.0106  0.5447 -0.1267
13067TIP3    H160692   5.113   0.867  14.949 -0.8682  0.0221  0.8169
13067TIP3    H260693   5.156   0.779  15.065 -0.1105 -1.8057 -0.7855
13068TIP3   OH260694   3.305   4.357  13.520  0.0227  0.3921 -0.4891
13068TIP3    H160695   3.237   4.290  13.526  0.0617  0.3631 -0.3667
13068TIP3    H260696   3.301   4.387  13.429  0.0731  0.1503 -0.5727
13069TIP3   OH260697   1.347   3.739  16.671  0.3106  0.3737 -0.0825
13069TIP3    H160698   1.411   3.669  16.679  1.0282  1.1379  1.1871
13069TIP3    H260699   1.263   3.698  16.693  0.7049 -0.0971  0.5490
13070TIP3   OH260700   6.044   6.281  10.575 -0.0808 -0.4531  0.0257
13070TIP3    H160701   6.106   6.258  10.644 -0.9032 -1.6433  0.4087
13070TIP3    H260702   6.095   6.331  10.512  0.9102 -0.1390  1.0450
13071TIP3   OH260703   1.127   0.292   2.246 -0.4043  0.0005  0.2585
13071TIP3    H160704   1.064   0.222   2.231 -0.1684 -0.1679  0.0408
13071TIP3    H260705   1.212   0.248   2.247 -0.1375  0.4243 -1.1167
13072TIP3   OH260706   6.773   6.714  12.116  0.6419  0.4323 -0.1962
13072TIP3    H160707   6.790   6.619  12.114  0.2681  0.3710 -0.6518
13072TIP3    H260708   6.728   6.728  12.199  0.1789  0.1137 -0.3851
13073TIP3   OH260709   1.193   0.379   4.892 -0.0082 -0.1832 -0.1731
13073TIP3    H160710   1.240   0.330   4.960  0.0556  2.2572  1.6591
13073TIP3    H260711   1.106   0.337   4.889 -0.2973  0.1264  2.0318
13074TIP3   OH260712   6.644   2.736  14.001  0.3467  0.0615 -0.0432
13074TIP3    H160713   6.652   2.826  13.969  0.7944  0.4893  1.2275
13074TIP3    H260714   6.567   2.702  13.956  0.9829  0.5967 -1.6228
13075TIP3   OH260715   1.085   6.172   4.140 -0.2529  0.2056  0.1679
13075TIP3    H160716   1.090   6.102   4.205  0.5104 -0.0811 -0.1849
13075TIP3    H260717   1.123   6.134   4.061 -2.2344  0.1601 -0.8102
13076TIP3   OH260718   5.824   5.332   5.416 -0.1292  0.1841 -0.1102
13076TIP3    H160719   5.813   5.242   5.385  1.2901  0.9961 -3.3825
13076TIP3    H260720   5.917   5.351   5.402  0.3289  1.2904  3.3941
13077TIP3   OH260721   0.795   3.444  14.950 -0.3564  0.6308  0.2060
13077TIP3    H160722   0.731   3.479  15.012  0.1930 -0.3548  1.3846
13077TIP3    H260723   0.837   3.521  14.912 -1.8652  1.2758 -0.1936
13078TIP3   OH260724   4.651   6.624  15.340  0.2738  0.2079 -0.2192
13078TIP3    H160725   4.702   6.694  15.299  1.8405 -0.1479  0.9913
13078TIP3    H260726   4.601   6.668  15.409 -0.9110  0.5256 -1.2605
13079TIP3   OH260727   4.310   2.921   5.710  0.2486 -0.1325  0.1424
13079TIP3    H160728   4.304   2.832   5.675  0.8109 -0.5402  1.0597
13079TIP3    H260729   4.377   2.916   5.778 -1.1654  0.5152  1.6505
13080TIP3   OH260730   3.577   5.904  16.168  0.2431 -0.0982 -0.5053
13080TIP3    H160731   3.637   5.921  16.095  1.5175  0.9203  0.7227
13080TIP3    H260732   3.542   5.990  16.190 -1.8597 -0.7031 -1.3126
13081TIP3   OH260733   5.793   2.355   0.853  0.6028  0.1852 -0.2320
13081TIP3    H160734   5.791   2.425   0.787 -0.2050  0.1930 -0.2028
13081TIP3    H260735   5.749   2.281   0.811  0.6222 -0.0061  0.0804
13082TIP3   OH260736   6.176   1.445   4.365 -0.0812  0.3070  0.0565
13082TIP3    H160737   6.271   1.449   4.350 -0.0539 -0.2822  0.0326
13082TIP3    H260738   6.142   1.392   4.292 -0.5746  1.4004 -0.5252
13083TIP3   OH260739   4.723   1.359  12.974  0.4341 -0.3743  0.3878
13083TIP3    H160740   4.703   1.380  13.066  1.2695 -4.2420  1.6364
13083TIP3    H260741   4.817   1.375  12.966  0.1762  0.9863 -0.1836
13084TIP3   OH260742   4.780   1.123   1.359  0.1302  0.2454 -0.1094
13084TIP3    H160743   4.805   1.054   1.420 -1.1677  0.1021  0.2919
13084TIP3    H260744   4.766   1.200   1.413  0.8713  0.6454 -0.4719
13085TIP3   OH260745   3.230   4.971  13.304 -0.6346  0.0128  0.3129
13085TIP3    H160746   3.186   4.886  13.305 -0.0078 -0.3102  0.9709
13085TIP3    H260747   3.194   5.016  13.227 -0.7247 -0.9721 -0.2302
13086TIP3   OH260748   0.817   0.907   0.144  0.3557 -0.3159  0.5761
13086TIP3    H160749   0.732   0.872   0.120 -0.2818  1.4078  0.1838
13086TIP3    H260750   0.880   0.848   0.103 -0.6690  0.5434 -2.4700
13087TIP3   OH260751   0.993   1.481  14.717  0.4906 -0.3408  0.4284
13087TIP3    H160752   1.003   1.505  14.809  1.2209 -0.1385  0.3004
13087TIP3    H260753   0.898   1.477  14.704  0.3681  0.6110  0.9324
13088TIP3   OH260754   0.425   0.318   2.076  0.0250 -0.0429  0.1999
13088TIP3    H160755   0.387   0.405   2.062 -1.3063 -0.6548 -0.1304
13088TIP3    H260756   0.498   0.333   2.136  0.9526  1.5591 -1.1986
13089TIP3   OH260757   4.088   2.931   3.037  0.6142 -0.3483 -0.0798
13089TIP3    H160758   4.149   2.968   3.100  0.3132 -1.0429  0.6406
13089TIP3    H260759   4.125   2.952   2.952  0.8052  0.9921  0.3083
13090TIP3   OH260760   3.902   5.136  16.809 -0.1451  0.3999  0.5391
13090TIP3    H160761   3.955   5.194  16.754 -1.0502 -0.0762 -0.8818
13090TIP3    H260762   3.935   5.152  16.898  0.5368  2.1039  0.0378
13091TIP3   OH260763   6.499   2.959  15.657  0.1488 -0.1815 -0.3034
13091TIP3    H160764   6.586   2.948  15.694  0.0222  0.4323  0.1976
13091TIP3    H260765   6.439   2.935  15.728 -0.1023  1.5098  0.1171
13092TIP3   OH260766   4.739   2.375  14.595  0.3425  0.1895 -0.4634
13092TIP3    H160767   4.690   2.404  14.672 -0.2932 -0.9973 -0.3951
13092TIP3    H260768   4.829   2.365  14.627 -0.1821 -1.7960  0.5878
13093TIP3   OH260769   4.930   3.640   6.281 -0.3328  0.3926  0.3887
13093TIP3    H160770   4.862   3.594   6.329 -1.2446  1.0759 -0.2124
13093TIP3    H260771   4.888   3.720   6.250  0.2027 -0.0066 -1.5356
13094TIP3   OH260772   1.032   2.173   2.133 -0.7266  0.4807 -0.1209
13094TIP3    H160773   1.020   2.200   2.042  0.0219  0.1194 -0.3327
13094TIP3    H260774   1.091   2.238   2.170 -0.1388  0.0057 -0.2107
13095TIP3   OH260775   5.100   3.738   1.119 -0.1141  0.7854  0.1572
13095TIP3    H160776   5.007   3.716   1.132  0.2191 -0.5693  0.3607
13095TIP3    H260777   5.138   3.733   1.206  0.2646  0.8086 -0.0080
13096TIP3   OH260778   1.292   5.468  15.251  0.2390  0.3260  0.3654
13096TIP3    H160779   1.204   5.464  15.215  0.1713 -0.7046  0.5968
13096TIP3    H260780   1.297   5.552  15.296 -0.9238  0.0165  1.0976
13097TIP3   OH260781   2.309   3.168  14.050  0.6336  0.4019 -0.2670
13097TIP3    H160782   2.285   3.170  13.958  2.7922  0.2553 -0.8729
13097TIP3    H260783   2.383   3.227  14.058  1.4176 -0.6932  1.0784
13098TIP3   OH260784   3.244   5.537   5.338 -0.3287 -0.2437 -0.3656
13098TIP3    H160785   3.242   5.456   5.286  1.2994 -0.5630  0.0061
13098TIP3    H260786   3.269   5.605   5.276  2.7872 -0.8066  0.0586
13099TIP3   OH260787   3.522   2.367  15.623 -0.4083  0.1674  0.4648
13099TIP3    H160788   3.559   2.451  15.597 -0.2290 -0.1312 -0.2751
13099TIP3    H260789   3.555   2.305  15.557 -3.5374  0.1484 -1.2753
13100TIP3   OH260790   1.378   6.439  12.020 -0.5303  0.2438 -0.2266
13100TIP3    H160791   1.313   6.389  12.069  0.2432  0.6777  1.3017
13100TIP3    H260792   1.415   6.377  11.958 -0.9844 -0.5357  0.2726
13101TIP3   OH260793   4.981   3.423  16.492 -0.1084  0.0664  0.5436
13101TIP3    H160794   5.021   3.433  16.578 -0.5823 -1.1414  0.9207
13101TIP3    H260795   5.054   3.405  16.433  0.3800  2.1251  0.4205
13102TIP3   OH260796   3.319   5.617   0.645  0.3896 -0.8129  0.6671
13102TIP3    H160797   3.225   5.639   0.649 -0.0696 -2.4317 -0.4257
13102TIP3    H260798   3.355   5.656   0.725 -1.2730 -0.4490  1.2991
13103TIP3   OH260799   6.818   3.799   3.445 -0.1812 -0.0452  0.1678
13103TIP3    H160800   6.820   3.720   3.499 -1.5729  0.3565  0.8514
13103TIP3    H260801   6.837   3.870   3.505  2.6659  0.0666 -0.7363
13104TIP3   OH260802   1.927   5.024   5.440  0.1425  0.5198 -0.0069
13104TIP3    H160803   1.988   5.016   5.367  1.6639  2.9177  0.8891
13104TIP3    H260804   1.903   5.116   5.442 -3.1942 -0.2214  0.0140
13105TIP3   OH260805   5.250   0.167  13.617 -0.0248 -0.3300  0.3525
13105TIP3    H160806   5.276   0.077  13.635  0.8785 -0.6048 -1.9267
13105TIP3    H260807   5.155   0.165  13.616 -0.0082 -1.4200 -0.2899
13106TIP3   OH260808   0.148   0.115  12.608 -0.3398 -0.1040  0.0696
13106TIP3    H160809   0.141   0.020  12.619 -1.0155 -0.2577 -1.4342
13106TIP3    H260810   0.118   0.131  12.518  0.4227  1.4646  0.0658
13107TIP3   OH260811   3.057   1.530   4.542 -0.1499 -0.3373  0.9627
13107TIP3    H160812   2.998   1.454   4.542 -0.6803  0.0560  1.7053
13107TIP3    H260813   3.005   1.601   4.506  0.2195 -0.2317  0.6352
13108TIP3   OH260814   4.892   4.230   1.681 -0.1497 -0.1208  0.3362
13108TIP3    H160815   4.953   4.292   1.720  2.1945 -0.3800 -2.5359
13108TIP3    H260816   4.813   4.281   1.665  1.0062  1.6521 -0.1058
13109TIP3   OH260817   3.455   4.852  14.090 -0.6461 -0.0287 -0.0024
13109TIP3    H160818   3.406   4.823  14.167  1.4452 -0.6818  1.1521
13109TIP3    H260819   3.409   4.813  14.016 -1.4646 -1.2043  1.0855
13110TIP3   OH260820   4.940   2.766  13.821  0.9160  0.1330 -0.3963
13110TIP3    H160821   5.020   2.717  13.837  0.5759 -0.7177 -1.1830
13110TIP3    H260822   4.893   2.715  13.755 -1.4023 -0.7178  1.7238
13111TIP3   OH260823   1.281   1.004   2.503  0.6094  0.1650 -0.0807
13111TIP3    H160824   1.271   1.085   2.454 -0.8430 -0.0455 -0.1912
13111TIP3    H260825   1.214   0.946   2.466 -1.1442  0.2787  2.6674
13112TIP3   OH260826   6.640   3.679   4.818  0.5145 -0.1145  0.0251
13112TIP3    H160827   6.633   3.663   4.724  1.0858  0.9160 -0.2100
13112TIP3    H260828   6.657   3.773   4.825 -0.3626 -0.0257  1.2044
13113TIP3   OH260829   0.471   2.555   2.680 -0.3613  0.2786  0.0462
13113TIP3    H160830   0.481   2.510   2.596  0.1842 -0.7267  0.6319
13113TIP3    H260831   0.554   2.540   2.725  0.2574  2.7824 -0.1379
13114TIP3   OH260832   0.141   2.108   4.644  0.3531 -0.0201 -0.1239
13114TIP3    H160833   0.103   2.072   4.725  0.4434 -0.7064 -0.3787
13114TIP3    H260834   0.202   2.041   4.615  0.4891  0.3270 -0.6463
13115TIP3   OH260835   2.986   1.510  11.990  0.0742  0.5788  0.0598
13115TIP3    H160836   2.976   1.579  12.055  0.7838 -0.2893  1.1157
13115TIP3    H260837   2.912   1.451  12.005  0.4870  0.1373  0.4007
13116TIP3   OH260838   2.843   5.923  12.656  0.1161 -0.0921  0.3912
13116TIP3    H160839   2.790   5.995  12.690 -0.3205 -0.8521  1.3915
13116TIP3    H260840   2.913   5.911  12.721  0.1083 -0.6445  0.3083
13117TIP3   OH260841   3.400   3.513  12.290  0.0573  0.1812  0.9776
13117TIP3    H160842   3.448   3.430  12.292  1.5651  0.9468 -0.3627
13117TIP3    H260843   3.348   3.513  12.370 -1.3992 -2.8445  0.1707
13118TIP3   OH260844   1.153   4.846  14.517  0.0172  0.0501 -0.3635
13118TIP3    H160845   1.112   4.786  14.454 -1.3639  0.9557 -0.3784
13118TIP3    H260846   1.079   4.885  14.564  1.0010 -0.9246  2.1702
13119TIP3   OH260847   5.467   2.669  10.750  0.5721  0.4095  0.2829
13119TIP3    H160848   5.518   2.735  10.704 -0.2356  1.5205  0.9495
13119TIP3    H260849   5.503   2.586  10.719 -0.6285  1.0099 -3.2393
13120TIP3   OH260850   2.834   0.053   4.313 -0.2922  0.1209  0.6457
13120TIP3    H160851   2.811   0.146   4.313 -0.9419  0.1004 -2.7949
13120TIP3    H260852   2.914   0.048   4.365 -0.2007  2.6421  0.8593
13121TIP3   OH260853   6.284   0.075  12.833  0.1189  0.5791  0.6900
13121TIP3    H160854   6.216   0.035  12.780  0.7264  0.4402  0.0002
13121TIP3    H260855   6.282   0.168  12.810  0.6393  0.4548  0.1301
13122TIP3   OH260856   0.719   4.442  13.040 -0.3352 -0.1378 -0.8372
13122TIP3    H160857   0.679   4.478  13.120  1.9134 -0.7643  0.6728
13122TIP3    H260858   0.645   4.429  12.981 -2.3084 -0.7910  1.5730
13123TIP3   OH260859   3.265   4.398   3.186 -0.2424 -0.3131  0.0773
13123TIP3    H160860   3.205   4.449   3.131 -1.3355 -0.4892  1.0691
13123TIP3    H260861   3.326   4.358   3.125 -1.1089 -0.0811 -0.9646
13124TIP3   OH260862   1.349   0.107  14.531  0.2203 -0.3059  0.1860
13124TIP3    H160863   1.310   0.055  14.461 -1.4375  0.1856  0.7013
13124TIP3    H260864   1.392   0.179  14.486  0.3753 -0.7491 -0.3922
13125TIP3   OH260865   4.223   3.547   3.677  0.0719 -0.1917 -0.2829
13125TIP3    H160866   4.196   3.617   3.619 -0.2803 -0.6262 -0.6461
13125TIP3    H260867   4.316   3.562   3.692  0.5172 -0.8845 -2.1047
13126TIP3   OH260868   0.675   3.798   6.295  0.3580  0.4670 -0.0701
13126TIP3    H160869   0.613   3.731   6.322  0.5119  0.9380  1.6283
13126TIP3    H260870   0.745   3.793   6.361 -0.3457  3.2085  1.0371
13127TIP3   OH260871   3.811   4.648  12.931  0.5531 -0.6084 -0.4921
13127TIP3    H160872   3.802   4.585  13.002  0.8480  0.5246  0.5802
13127TIP3    H260873   3.893   4.694  12.949  1.1132 -0.9078 -2.0808
13128TIP3   OH260874   3.292   5.421   2.430  0.5727 -0.5607 -0.0736
13128TIP3    H160875   3.218   5.473   2.399  0.3827 -0.2831  0.8029
13128TIP3    H260876   3.257   5.371   2.503  1.4556  0.2979  0.9780
13129TIP3   OH260877   3.494   1.295   2.380  0.2492  0.4669 -0.0531
13129TIP3    H160878   3.483   1.240   2.458 -0.5484  0.7844  0.0718
13129TIP3    H260879   3.415   1.349   2.378 -0.7969 -0.9521 -2.1985
13130TIP3   OH260880   3.878   1.747  14.907  0.0598  0.3849  0.0659
13130TIP3    H160881   3.937   1.799  14.962 -0.0124  1.1397 -0.5437
13130TIP3    H260882   3.916   1.660  14.908  0.9353  0.7504  0.0577
13131TIP3   OH260883   0.630   1.855  12.194  0.3099 -0.1179  0.2818
13131TIP3    H160884   0.633   1.944  12.160  1.0121  0.4034  1.6274
13131TIP3    H260885   0.565   1.857  12.264  0.4619 -0.6177  0.4481
13132TIP3   OH260886   1.161   4.201   3.268  0.1603  1.0279  0.2251
13132TIP3    H160887   1.074   4.188   3.230  0.0583  1.7997  0.1769
13132TIP3    H260888   1.216   4.226   3.194  0.7643 -0.7771  0.0038
13133TIP3   OH260889   1.348   1.804  16.528  0.3944  0.3254 -0.4585
13133TIP3    H160890   1.435   1.790  16.563  0.6496  2.9155  0.1446
13133TIP3    H260891   1.297   1.728  16.557  2.1111 -0.5976  0.2561
13134TIP3   OH260892   5.287   2.340  15.783 -0.3672  0.3227 -0.5301
13134TIP3    H160893   5.231   2.399  15.732 -1.8324 -0.3216  0.3023
13134TIP3    H260894   5.264   2.357  15.874  1.6087  0.8380 -0.0760
13135TIP3   OH260895   1.697   1.246  12.740  0.5496 -0.0531  0.0847
13135TIP3    H160896   1.646   1.168  12.717  2.2881 -0.8144 -1.4612
13135TIP3    H260897   1.633   1.306  12.778 -1.1734 -1.5676 -0.2801
13136TIP3   OH260898   5.753   2.476   0.593  1.5972  0.1397 -1.2066
13136TIP3    H160899   5.660   2.497   0.583  1.5726  0.6074 -0.1492
13136TIP3    H260900   5.778   2.437   0.509  0.7634  1.1814 -1.9635
13137TIP3   OH260901   3.885   2.990  12.366  0.2702 -0.3438 -0.6185
13137TIP3    H160902   3.912   3.042  12.290  2.0763  0.3785  0.4537
13137TIP3    H260903   3.880   2.900  12.333  2.3841 -0.2573 -1.3147
13138TIP3   OH260904   0.300   4.282  17.146  0.0952  0.3115 -0.4198
13138TIP3    H160905   0.259   4.222  17.208  4.0766 -0.7622  1.5402
13138TIP3    H260906   0.308   4.232  17.065  0.8192 -0.7919  0.3124
13139TIP3   OH260907   6.633   2.153   1.878  0.2240 -0.4578 -0.4592
13139TIP3    H160908   6.692   2.136   1.951 -0.4077  1.4769  0.5628
13139TIP3    H260909   6.570   2.080   1.881  1.6565 -1.7507 -0.6773
13140TIP3   OH260910   1.170   5.990  12.167 -0.0052  0.5825 -0.1642
13140TIP3    H160911   1.108   5.919  12.150  0.5702 -0.0728  0.4457
13140TIP3    H260912   1.166   6.003  12.261  0.2438  1.0455 -0.2165
13141TIP3   OH260913   3.261   6.337   6.249  0.1312 -0.3261  0.0380
13141TIP3    H160914   3.329   6.280   6.212 -0.5182 -0.6367 -0.7023
13141TIP3    H260915   3.240   6.297   6.334  0.7138 -0.3504  0.1721
13142TIP3   OH260916   0.660   2.342   4.216 -0.1633  0.0694  0.1696
13142TIP3    H160917   0.615   2.379   4.293 -0.4191 -0.2972  0.1993
13142TIP3    H260918   0.733   2.402   4.200 -1.3196  1.3282 -0.5746
13143TIP3   OH260919   6.150   2.425  16.804 -0.2048 -0.0311 -0.1133
13143TIP3    H160920   6.087   2.467  16.863  1.2391  0.9125  0.7936
13143TIP3    H260921   6.223   2.400  16.860 -0.0735 -1.8114 -1.0202
13144TIP3   OH260922   6.203   3.375   4.793 -0.2170 -0.5771 -0.2383
13144TIP3    H160923   6.179   3.346   4.705 -0.0365  1.9445 -1.2004
13144TIP3    H260924   6.134   3.437   4.817  0.3183 -0.4241  0.9567
13145TIP3   OH260925   3.480   0.844   1.753  0.3325  0.4831 -0.3311
13145TIP3    H160926   3.550   0.887   1.802 -0.9120  2.5257 -0.2739
13145TIP3    H260927   3.402   0.853   1.807 -1.0338  2.5621 -2.4443
13146TIP3   OH260928   0.294   5.804  15.904  0.1894 -0.1863  0.1593
13146TIP3    H160929   0.380   5.844  15.896  0.6282 -0.9458  0.9480
13146TIP3    H260930   0.300   5.725  15.851 -0.1453 -0.0511 -0.0825
13147TIP3   OH260931   1.750   4.228  14.734 -0.2833 -0.3137 -0.0086
13147TIP3    H160932   1.748   4.266  14.647 -1.1183 -0.4782 -0.0667
13147TIP3    H260933   1.695   4.150  14.728  1.6888 -1.7862  0.0094
13148TIP3   OH260934   6.447   3.729   2.814 -0.1555  0.0620  0.1221
13148TIP3    H160935   6.516   3.671   2.780 -1.3063 -1.8663  0.9613
13148TIP3    H260936   6.479   3.756   2.900  0.8692  1.6288 -0.6918
13149TIP3   OH260937   0.026   3.715  11.112 -0.0566  0.3713  0.1526
13149TIP3    H160938   0.025   3.651  11.041 -1.0617  2.6444 -2.0220
13149TIP3    H260939  -0.065   3.743  11.120  0.6926  3.3491 -0.7717
13150TIP3   OH260940   3.484   5.847  14.902  0.4880 -0.0105 -0.8060
13150TIP3    H160941   3.444   5.780  14.957 -2.3543  3.2163  1.5104
13150TIP3    H260942   3.447   5.833  14.815 -0.9711 -0.7242 -0.0944
13151TIP3   OH260943   3.127   4.001  13.274  0.1165 -0.0762  0.0649
13151TIP3    H160944   3.058   4.066  13.285  2.0918  1.9182  1.5875
13151TIP3    H260945   3.165   3.991  13.361  1.9181 -0.8846 -0.7631
13152TIP3   OH260946   4.296   4.129   6.064  0.3502  0.1386 -0.0564
13152TIP3    H160947   4.316   4.170   5.980 -0.0779  0.7453  0.1320
13152TIP3    H260948   4.202   4.111   6.060  0.1687  0.8899  0.5880
13153TIP3   OH260949   3.081   0.374  11.905 -0.0389  0.2360 -0.3319
13153TIP3    H160950   3.137   0.438  11.861  2.0728  0.5215  2.4120
13153TIP3    H260951   3.016   0.427  11.951  0.7689  0.3755  0.7036
13154TIP3   OH260952   2.249   4.083  16.444  0.2090 -0.5717  0.0151
13154TIP3    H160953   2.337   4.045  16.437  0.2700 -0.7666  1.5901
13154TIP3    H260954   2.226   4.105  16.354  2.3876  0.6477 -0.3170
13155TIP3   OH260955   0.407   2.940  15.141  0.1597 -0.0381  0.1361
13155TIP3    H160956   0.456   3.018  15.166 -0.3853  0.5431 -0.5539
13155TIP3    H260957   0.321   2.952  15.183  0.1931 -0.4411  0.3226
13156TIP3   OH260958   6.170   0.596   4.910  0.1198  0.5830  0.0438
13156TIP3    H160959   6.131   0.602   4.997 -0.3163 -1.1299  0.0150
13156TIP3    H260960   6.263   0.612   4.924 -0.1541  1.8076  0.5749
13157TIP3   OH260961   0.791   6.726   5.763  0.1875 -0.4533  0.7289
13157TIP3    H160962   0.848   6.803   5.765  1.7807 -1.5870  2.6753
13157TIP3    H260963   0.797   6.694   5.674 -0.0273  1.3010  0.0429
13158TIP3   OH260964   1.792   3.042  11.801  0.4657 -0.3249  0.2359
13158TIP3    H160965   1.829   3.041  11.712  0.3169  0.6724  0.1527
13158TIP3    H260966   1.765   3.132  11.814  1.3130 -0.2460  1.6368
13159TIP3   OH260967   5.702   4.686  14.868  0.1080  0.2824 -0.3189
13159TIP3    H160968   5.611   4.708  14.887  0.6497  3.4192 -0.8617
13159TIP3    H260969   5.700   4.649  14.779 -0.5790  1.0647 -0.6398
13160TIP3   OH260970   6.304   1.324  16.430  0.3207 -0.3947  0.4753
13160TIP3    H160971   6.302   1.419  16.434  2.1903 -0.2686 -0.4740
13160TIP3    H260972   6.362   1.304  16.356 -2.2835 -2.2740 -1.2339
13161TIP3   OH260973   2.532   4.240  16.969  0.0861  0.5047 -0.2786
13161TIP3    H160974   2.536   4.205  16.880  0.2174 -0.7800  0.2138
13161TIP3    H260975   2.455   4.296  16.969  0.6727  1.3598 -1.4808
13162TIP3   OH260976   2.267   0.690   3.462  0.1494 -0.2317 -0.1671
13162TIP3    H160977   2.270   0.690   3.366  1.5561  1.0585 -0.1549
13162TIP3    H260978   2.199   0.754   3.483 -1.4427 -1.7974 -0.2598
13163TIP3   OH260979   2.950   1.685  17.085 -0.3467  0.0693  0.5480
13163TIP3    H160980   2.997   1.734  17.152  0.4917 -0.9002  0.6957
13163TIP3    H260981   2.972   1.593  17.102 -1.2855 -0.3049 -0.1623
13164TIP3   OH260982   0.386   4.463  14.070 -0.1778  0.4225  0.1967
13164TIP3    H160983   0.481   4.471  14.058 -0.0374 -1.8296 -0.6917
13164TIP3    H260984   0.375   4.436  14.161 -0.1676  2.6688  0.9254
13165TIP3   OH260985   1.792   4.807   3.210 -0.2776 -0.2060 -0.0588
13165TIP3    H160986   1.827   4.851   3.288 -1.6182  1.7710 -0.4901
13165TIP3    H260987   1.743   4.732   3.245  2.0105 -1.4464  0.7076
13166TIP3   OH260988   2.578   6.117  10.715 -0.0364 -0.0911 -0.5964
13166TIP3    H160989   2.554   6.028  10.739  1.3620 -0.2670  0.2233
13166TIP3    H260990   2.561   6.169  10.793 -1.3087  0.4793 -1.2193
13167TIP3   OH260991   1.037   6.258   4.912 -0.8541 -0.5051  0.0819
13167TIP3    H160992   0.998   6.271   4.998 -1.0459 -0.5544  0.0023
13167TIP3    H260993   1.069   6.345   4.886 -1.9340 -0.2201 -0.3548
13168TIP3   OH260994   1.154   6.075  14.309 -0.0831 -0.3284  0.2143
13168TIP3    H160995   1.148   5.984  14.340 -3.3998 -0.1515  0.3950
13168TIP3    H260996   1.142   6.068  14.215 -0.5742 -0.0788  0.2567
13169TIP3   OH260997   2.708   6.187  14.671  0.0332 -0.4170 -0.0564
13169TIP3    H160998   2.704   6.267  14.620 -0.6890 -1.3412 -1.5202
13169TIP3    H260999   2.702   6.216  14.762 -2.0268  1.1021 -0.5913
13170TIP3   OH261000   2.346   2.397  15.253 -0.5100  0.5668 -0.1432
13170TIP3    H161001   2.391   2.331  15.306  0.1605  1.2929  0.2024
13170TIP3    H261002   2.394   2.399  15.170 -1.3706 -0.3476 -0.6857
13171TIP3   OH261003   0.946   0.548  11.800 -0.1257  0.0796 -0.3146
13171TIP3    H161004   0.978   0.612  11.736  2.0944 -0.7475 -0.1155
13171TIP3    H261005   0.909   0.478  11.746 -0.9752  0.7134 -0.5782
13172TIP3   OH261006   4.239   5.952  14.981  0.0022 -0.2244 -0.5449
13172TIP3    H161007   4.156   5.982  14.943  0.2307 -1.4801 -2.1378
13172TIP3    H261008   4.274   5.891  14.916  2.0421  0.0529  0.2288
13173TIP3   OH261009   5.462   3.456   0.832 -0.5618  0.1820  0.1046
13173TIP3    H161010   5.393   3.391   0.845 -0.6935  0.5161  1.1226
13173TIP3    H261011   5.419   3.540   0.839 -0.3254  0.3969 -0.8677
13174TIP3   OH261012   6.030   2.404   4.998  0.0974  0.1971  0.5136
13174TIP3    H161013   6.036   2.325   4.945 -1.9878  1.0966 -1.1932
13174TIP3    H261014   6.108   2.402   5.053  1.2663 -1.8545 -1.0976
13175TIP3   OH261015   4.010   0.300   4.850  0.3378 -0.1019  0.2680
13175TIP3    H161016   4.021   0.216   4.806 -1.6508 -1.1089  1.5496
13175TIP3    H261017   4.025   0.281   4.943 -1.2531  0.6889  0.7218
13176TIP3   OH261018   1.030   0.041   1.351 -0.3265  0.2646  0.4643
13176TIP3    H161019   1.001   0.027   1.260 -0.6695 -0.8558  0.7341
13176TIP3    H261020   1.100   0.106   1.344 -0.6417  0.5158 -0.5543
13177TIP3   OH261021   4.853   2.471   3.686 -0.0261 -0.3189  0.1354
13177TIP3    H161022   4.931   2.424   3.660 -0.6906 -1.8837  0.8443
13177TIP3    H261023   4.886   2.555   3.720  1.4426 -1.3581  1.4078
13178TIP3   OH261024   4.388   2.086  15.087  0.2513 -0.5040  0.1813
13178TIP3    H161025   4.472   2.103  15.130  0.3398  2.0640 -0.8773
13178TIP3    H261026   4.397   1.997  15.052  1.6229 -1.1609  2.0374
13179TIP3   OH261027   6.067   5.792  11.591  0.5604  0.1187  0.8001
13179TIP3    H161028   6.030   5.745  11.516 -1.1931 -0.7793  2.1613
13179TIP3    H261029   6.157   5.812  11.564 -0.2026  0.4323 -1.7812
13180TIP3   OH261030   6.508   5.481  16.923  0.3189  0.3241  0.3560
13180TIP3    H161031   6.520   5.512  17.013  1.9908 -0.9536  0.6323
13180TIP3    H261032   6.566   5.537  16.871  0.9350 -0.2512  0.4032
13181TIP3   OH261033   1.085   3.796   6.605 -0.1925  0.5061 -0.4541
13181TIP3    H161034   0.997   3.769   6.580  0.0180  0.8000 -1.5355
13181TIP3    H261035   1.100   3.878   6.558  0.6453  0.4801 -0.2509
13182TIP3   OH261036   3.083   6.293  14.692  0.3156  0.6167 -0.2981
13182TIP3    H161037   3.135   6.349  14.749  1.1327  2.9605 -3.1329
13182TIP3    H261038   3.143   6.224  14.664  0.3061  0.2552  0.5498
13183TIP3   OH261039   5.918   6.608  15.598  0.7439 -0.0049 -0.8097
13183TIP3    H161040   5.866   6.686  15.618 -1.4728 -1.5601 -0.1736
13183TIP3    H261041   5.920   6.605  15.502 -1.3373 -0.4589 -0.8942
13184TIP3   OH261042   4.486   0.886   5.356  0.3477 -0.5246 -0.0758
13184TIP3    H161043   4.434   0.805   5.353 -1.0909  0.3662 -0.2147
13184TIP3    H261044   4.440   0.942   5.419  0.7588  0.5618 -0.7093
13185TIP3   OH261045   0.764   0.211   0.056 -0.3184  0.3010  0.4405
13185TIP3    H161046   0.731   0.196   0.144 -0.4043 -0.4293  0.2918
13185TIP3    H261047   0.734   0.135   0.006  0.4999  0.2518  0.0011
13186TIP3   OH261048   6.517   5.303  13.753  0.3436  0.1205 -0.7753
13186TIP3    H161049   6.519   5.398  13.745 -0.3839  0.3280  1.0621
13186TIP3    H261050   6.603   5.280  13.789 -0.2880  0.3669  0.9831
13187TIP3   OH261051   6.272   0.502  12.356 -0.4045 -0.2946  0.2530
13187TIP3    H161052   6.276   0.593  12.385 -1.3386  0.1883 -1.0608
13187TIP3    H261053   6.319   0.454  12.424  0.0513  1.1483  1.0079
13188TIP3   OH261054   6.718   0.618  16.083  0.1157 -0.3228 -0.4785
13188TIP3    H161055   6.650   0.612  16.016 -1.1579  0.1493  0.7194
13188TIP3    H261056   6.669   0.632  16.164  1.7052  1.5196  0.2204
13189TIP3   OH261057   5.327   4.029  16.497 -0.1879  0.1725 -0.2278
13189TIP3    H161058   5.279   3.974  16.436 -0.3652 -1.0898  0.9914
13189TIP3    H261059   5.346   4.109  16.448  3.0764 -2.1596 -3.3221
13190TIP3   OH261060   2.345   1.950   4.250 -0.1417 -0.2866 -0.0557
13190TIP3    H161061   2.382   1.921   4.166 -1.7149 -0.2171 -0.7980
13190TIP3    H261062   2.280   2.017   4.227  0.2433  0.6188  1.3187
13191TIP3   OH261063   1.717   1.896   0.752 -0.1798  0.8097  0.2142
13191TIP3    H161064   1.698   1.831   0.820 -0.8847  1.5997  0.7963
13191TIP3    H261065   1.639   1.896   0.697  0.7003 -0.4028 -1.1185
13192TIP3   OH261066   4.807   1.463  14.500 -0.0041 -0.0537 -0.7491
13192TIP3    H161067   4.744   1.530  14.525 -1.5652 -1.8770  0.5535
13192TIP3    H261068   4.873   1.465  14.570 -0.1920 -0.0569 -0.5724
13193TIP3   OH261069   1.295   6.281   6.691  0.5076 -0.2254 -0.2050
13193TIP3    H161070   1.372   6.293   6.746  1.1999 -1.6130 -0.8119
13193TIP3    H261071   1.255   6.367   6.687  1.3209  0.2544  1.1527
13194TIP3   OH261072   4.769   2.671   0.989  0.7895 -0.4805 -0.5149
13194TIP3    H161073   4.715   2.685   1.067  1.0555  0.2831 -0.4627
13194TIP3    H261074   4.809   2.585   1.004  1.3244 -0.0808  0.5002
13195TIP3   OH261075   5.514   6.120   5.602 -0.0941  0.7386 -0.1414
13195TIP3    H161076   5.498   6.212   5.581 -2.1282  0.0176 -2.2077
13195TIP3    H261077   5.565   6.087   5.528  1.6827  0.4319  1.1645
13196TIP3   OH261078   4.389   5.827  13.045 -0.1295  0.0336 -0.3983
13196TIP3    H161079   4.484   5.811  13.048 -0.3810 -1.9245 -1.5336
13196TIP3    H261080   4.352   5.764  13.106 -0.6248  2.1098  1.5648
13197TIP3   OH261081   3.275   3.907   6.021 -0.0709 -0.0345  0.6350
13197TIP3    H161082   3.272   3.812   6.025  0.1096 -0.0248  3.8949
13197TIP3    H261083   3.342   3.932   6.085 -0.2216  2.2731 -0.0022
13198TIP3   OH261084   0.270   6.035  12.907 -0.8439 -0.0352  0.5654
13198TIP3    H161085   0.353   6.072  12.876 -0.3706  0.2092  2.0388
13198TIP3    H261086   0.277   5.942  12.888 -0.8293  0.1874 -0.5829
13199TIP3   OH261087   2.504   6.626  15.006 -0.3015  0.0838  0.4051
13199TIP3    H161088   2.508   6.621  14.910 -2.1918  1.9781  0.1476
13199TIP3    H261089   2.550   6.707  15.028  0.0416 -0.2918  1.1062
13200TIP3   OH261090   5.622   2.699   5.243  0.4685  0.1632  0.2117
13200TIP3    H161091   5.537   2.717   5.202  1.1673  1.4735 -0.7214
13200TIP3    H261092   5.686   2.710   5.173  1.5755  1.1059  1.3131
13201TIP3   OH261093   2.477   2.044   0.616 -0.2303 -0.6860  0.0547
13201TIP3    H161094   2.535   1.999   0.678  1.1498 -3.7596 -3.1654
13201TIP3    H261095   2.392   2.005   0.630 -1.1635  1.9523  2.9572
13202TIP3   OH261096   3.486   0.641   0.417  0.1033 -0.4810 -0.1012
13202TIP3    H161097   3.440   0.573   0.368 -0.6240 -0.4210  0.4766
13202TIP3    H261098   3.422   0.712   0.425  0.2456 -0.4478  0.8430
13203TIP3   OH261099   1.094   1.621  11.408  0.5804  0.2606  0.0368
13203TIP3    H161100   1.086   1.640  11.315  0.0762  1.1357  0.2528
13203TIP3    H261101   1.005   1.601  11.436  0.5639  0.9922  0.5362
13204TIP3   OH261102   2.613   2.520   2.531  0.1759 -0.6135 -0.4493
13204TIP3    H161103   2.559   2.441   2.532 -1.0045 -0.0074  3.6408
13204TIP3    H261104   2.557   2.587   2.492 -0.1889 -1.0343 -0.6516
13205TIP3   OH261105   2.953   1.563   5.770  0.3832  0.5903  0.3072
13205TIP3    H161106   2.931   1.568   5.863  0.3161 -0.3678  0.3533
13205TIP3    H261107   2.937   1.471   5.747  1.8820  0.4503 -0.2688
13206TIP3   OH261108   1.828   2.885  13.941 -0.4624 -0.0794  0.3174
13206TIP3    H161109   1.922   2.888  13.956 -0.6659  0.6592  1.5736
13206TIP3    H261110   1.818   2.904  13.848  0.5442  1.7885  0.5506
13207TIP3   OH261111   2.421   0.460  12.936  0.0676 -0.5719  0.4347
13207TIP3    H161112   2.446   0.426  12.850  0.3497 -0.7834  0.5950
13207TIP3    H261113   2.502   0.456  12.987  0.4684  1.6492  0.0582
13208TIP3   OH261114   1.583   3.695   6.694  0.0935  0.6931  0.8986
13208TIP3    H161115   1.490   3.682   6.707  0.3215 -2.0502  0.2631
13208TIP3    H261116   1.625   3.629   6.748  1.7076  1.8194  1.1162
13209TIP3   OH261117   3.821   4.393  15.173 -0.0296 -0.0135 -0.2453
13209TIP3    H161118   3.860   4.308  15.192 -3.0262 -1.1152  1.7040
13209TIP3    H261119   3.775   4.380  15.089 -0.7712 -0.4637  0.2208
13210TIP3   OH261120   1.623   0.550  11.157 -0.2431 -0.5651  0.5028
13210TIP3    H161121   1.704   0.574  11.112 -1.0177  0.5858 -0.3430
13210TIP3    H261122   1.644   0.469  11.204  0.3314 -2.4507 -2.7405
13211TIP3   OH261123   3.651   5.954  15.568  0.3704 -0.3409  0.1190
13211TIP3    H161124   3.632   6.030  15.513  0.3389 -0.7299 -0.4132
13211TIP3    H261125   3.598   5.967  15.647  0.0496 -0.0187 -0.1497
13212TIP3   OH261126   2.975   5.888  12.150  0.6219 -0.2120 -0.0128
13212TIP3    H161127   2.972   5.914  12.058  0.0965 -1.5019 -0.3938
13212TIP3    H261128   3.024   5.805  12.150  1.7511  0.4226  1.0530
13213TIP3   OH261129   0.140   1.506   3.697  0.1028 -0.6582  0.1708
13213TIP3    H161130   0.220   1.476   3.654  0.1408 -0.1481 -0.1185
13213TIP3    H261131   0.134   1.599   3.674 -0.6982 -0.7509 -0.0060
13214TIP3   OH261132   2.736   6.818  13.864  0.3563  0.6040  0.0553
13214TIP3    H161133   2.678   6.743  13.876  0.9035  0.2476  0.5165
13214TIP3    H261134   2.721   6.845  13.774  0.1252 -0.0413 -0.1083
13215TIP3   OH261135   2.683   0.886  11.489 -0.1281 -0.0301  0.1818
13215TIP3    H161136   2.721   0.803  11.518  0.7095  0.1725 -0.3025
13215TIP3    H261137   2.717   0.951  11.550 -0.6700 -0.0175  0.4738
13216TIP3   OH261138   0.648   4.114   3.925  0.6592 -0.2600  0.4895
13216TIP3    H161139   0.687   4.027   3.921  1.8881  0.3172 -1.1795
13216TIP3    H261140   0.619   4.132   3.836 -0.6865  0.5918  1.0549
13217TIP3   OH261141   0.867   2.886  14.598 -0.2423 -0.2882 -0.0242
13217TIP3    H161142   0.833   2.800  14.573 -0.4338  0.0074 -0.7969
13217TIP3    H261143   0.823   2.947  14.540  2.1190  0.0558 -1.6018
13218TIP3   OH261144   3.303   1.201  16.196  0.1787 -0.3979  0.2015
13218TIP3    H161145   3.209   1.193  16.213 -0.4279  2.8090 -0.9481
13218TIP3    H261146   3.316   1.166  16.108  0.0379 -0.7001  0.3013
13219TIP3   OH261147   4.095   1.849   0.936  0.2449 -0.1600 -0.2012
13219TIP3    H161148   4.086   1.872   0.843 -1.1057 -1.8898 -0.5522
13219TIP3    H261149   4.179   1.887   0.962 -0.4588  2.4750 -1.4428
13220TIP3   OH261150   2.821   5.119   1.843  0.4012 -0.3202  0.5693
13220TIP3    H161151   2.831   5.043   1.900 -1.4992 -0.5017  0.7438
13220TIP3    H261152   2.735   5.108   1.803  0.9486  0.7203 -0.9767
13221TIP3   OH261153   2.273   6.070  13.584  0.2942 -0.9220  0.0500
13221TIP3    H161154   2.285   6.045  13.492  1.2079 -1.0777  0.1989
13221TIP3    H261155   2.247   6.162  13.581  0.8692 -0.7664 -0.3459
13222TIP3   OH261156   2.617   3.861  12.148 -0.4725 -0.2774 -0.0628
13222TIP3    H161157   2.691   3.863  12.208  0.3724 -1.3408 -1.0239
13222TIP3    H261158   2.648   3.907  12.070 -0.5876 -1.2511 -0.7040
13223TIP3   OH261159   3.617   3.677   5.156  0.1222  0.0482 -0.2403
13223TIP3    H161160   3.709   3.696   5.174 -0.0061 -0.3956  1.0154
13223TIP3    H261161   3.612   3.582   5.159  0.0850 -0.1014 -2.9033
13224TIP3   OH261162   0.090   1.190   0.337  0.1582 -0.4947  0.6793
13224TIP3    H161163   0.050   1.264   0.382  0.4064 -0.1632  0.3616
13224TIP3    H261164   0.111   1.127   0.406 -0.1356 -0.3051  0.9387
13225TIP3   OH261165   2.593   4.114   2.448  0.3617  0.2724 -0.1006
13225TIP3    H161166   2.581   4.076   2.361  1.8660  0.7568 -0.5433
13225TIP3    H261167   2.518   4.174   2.458 -0.1571 -0.2414 -0.7891
13226TIP3   OH261168   2.387   5.676  16.262  0.0669  0.3994  0.0786
13226TIP3    H161169   2.354   5.592  16.232 -1.2290  1.5299 -1.9181
13226TIP3    H261170   2.480   5.676  16.237  0.5539 -1.0711  1.7110
13227TIP3   OH261171   0.896   4.489   3.834 -0.4951  0.1919  0.3232
13227TIP3    H161172   0.934   4.425   3.773  0.4455  1.3764 -0.3804
13227TIP3    H261173   0.875   4.438   3.912 -1.3296 -1.2893 -0.8142
13228TIP3   OH261174   4.659   2.363  15.983 -0.5391  0.2049 -0.2082
13228TIP3    H161175   4.678   2.296  15.918  1.2786 -0.5012  0.9558
13228TIP3    H261176   4.586   2.327  16.034  1.3425 -1.7069  1.3453
13229TIP3   OH261177   5.347   0.887  12.649  0.4154 -0.0521 -0.2301
13229TIP3    H161178   5.285   0.830  12.694  1.1464 -0.0012  0.8604
13229TIP3    H261179   5.304   0.972  12.646  0.2545 -0.1199  0.1413
13230TIP3   OH261180   3.715   5.548   1.602 -0.4686  0.2336 -0.6996
13230TIP3    H161181   3.763   5.482   1.652 -0.4845  2.4324  2.5605
13230TIP3    H261182   3.643   5.500   1.561  1.1470 -2.1728 -0.8983
13231TIP3   OH261183   1.659   3.531   2.389  0.0335  0.3562 -0.0178
13231TIP3    H161184   1.744   3.489   2.403 -0.8690 -0.8846  2.2340
13231TIP3    H261185   1.598   3.459   2.378 -1.1162  1.1368  0.9976
13232TIP3   OH261186   1.971   0.203  15.303  0.0269  0.0537 -0.7858
13232TIP3    H161187   1.886   0.201  15.259  0.0207  0.1557 -0.7775
13232TIP3    H261188   2.015   0.280  15.268 -0.4597  0.8454  0.2959
13233TIP3   OH261189   5.273   0.969  10.952 -0.2620 -0.3400 -0.3761
13233TIP3    H161190   5.292   0.893  11.006 -3.0794 -0.4226  0.6832
13233TIP3    H261191   5.248   1.037  11.014 -3.2389 -0.3361 -1.3929
13234TIP3   OH261192   0.655   3.190   3.560 -0.4409 -0.2451  0.1543
13234TIP3    H161193   0.686   3.155   3.477 -1.2221 -0.9863  0.1585
13234TIP3    H261194   0.637   3.282   3.543  0.4574 -0.1261 -0.1941
13235TIP3   OH261195   3.914   3.646  15.149 -0.0471 -0.1584  0.2974
13235TIP3    H161196   3.926   3.581  15.217  0.8791  0.0818  0.3759
13235TIP3    H261197   3.996   3.645  15.100 -0.4964  0.0563 -0.4823
13236TIP3   OH261198   1.789   4.424  16.613 -0.4343  0.6090 -0.3839
13236TIP3    H161199   1.734   4.379  16.677  0.2535  1.4006  0.7918
13236TIP3    H261200   1.748   4.510  16.601 -1.2851  0.0208 -2.0052
13237TIP3   OH261201   6.586   0.055   5.712 -0.3205 -0.4850  0.2659
13237TIP3    H161202   6.532  -0.025   5.709 -0.2295 -0.7056  2.7765
13237TIP3    H261203   6.672   0.025   5.740  0.4157  0.2262 -1.1243
13238TIP3   OH261204   2.869   3.211   2.368  0.2267  0.1546  0.1667
13238TIP3    H161205   2.786   3.244   2.401 -0.3138 -0.8787 -0.1381
13238TIP3    H261206   2.893   3.272   2.298 -0.0856  0.6673  0.5010
13239TIP3   OH261207   0.132   6.148  17.005 -0.2821 -0.2636  0.0746
13239TIP3    H161208   0.107   6.176  16.917 -0.9499 -0.4275  0.2104
13239TIP3    H261209   0.049   6.132  17.050  0.0554  0.1562  0.8488
13240TIP3   OH261210   5.343   5.749  13.195 -0.4169 -0.3830  0.2638
13240TIP3    H161211   5.360   5.787  13.108 -1.9232 -1.0310 -0.3466
13240TIP3    H261212   5.427   5.712  13.221  0.1543  0.1390 -0.7665
13241TIP3   OH261213   5.828   0.537   5.117 -0.0005 -0.7291 -0.1762
13241TIP3    H161214   5.790   0.597   5.052  0.4154 -0.8290 -0.5130
13241TIP3    H261215   5.790   0.565   5.201  0.1854  0.0052 -0.3311
13242TIP3   OH261216   3.598   2.116   0.880 -0.4279  0.5154  0.2672
13242TIP3    H161217   3.628   2.058   0.949 -1.4845  0.7822  0.9636
13242TIP3    H261218   3.585   2.201   0.924 -0.3603  0.8884 -0.4179
13243TIP3   OH261219   5.646   4.581   2.992  0.5242  0.4417 -0.2100
13243TIP3    H161220   5.718   4.623   3.040  0.3235 -0.2867  0.7548
13243TIP3    H261221   5.620   4.507   3.048  0.2682 -0.4227 -1.4376
13244TIP3   OH261222   2.512   0.608  11.416 -0.1761  0.8961 -0.3576
13244TIP3    H161223   2.528   0.702  11.409 -1.7200  1.2693  0.5067
13244TIP3    H261224   2.475   0.597  11.504  1.0667 -0.7050  0.0093
13245TIP3   OH261225   5.653   4.748  16.244 -0.1605  0.4385 -0.0789
13245TIP3    H161226   5.647   4.688  16.318  0.2002  1.1853  0.5713
13245TIP3    H261227   5.584   4.720  16.185  0.0364 -0.6541  0.1813
13246TIP3   OH261228   3.300   3.788   4.842  0.0725 -0.1170 -0.4134
13246TIP3    H161229   3.277   3.696   4.834 -1.7883  0.2478  0.3061
13246TIP3    H261230   3.218   3.835   4.828  1.0510  1.4719 -1.1896
13247TIP3   OH261231   4.098   5.306  11.271  0.3228  0.0327  0.4818
13247TIP3    H161232   4.131   5.350  11.192  1.1376 -0.2124  0.6795
13247TIP3    H261233   4.031   5.365  11.305  0.7576  0.6782  0.2300
13248TIP3   OH261234   4.458   0.355   2.128 -0.3528  0.3616 -0.0140
13248TIP3    H161235   4.464   0.301   2.206  0.0594  0.0134 -0.2815
13248TIP3    H261236   4.443   0.293   2.056 -0.3609  0.6419 -0.2588
13249TIP3   OH261237   1.830   2.226   2.925  0.1246  0.0557  0.2065
13249TIP3    H161238   1.866   2.304   2.882 -0.5697  0.9713  1.2292
13249TIP3    H261239   1.893   2.204   2.992  1.3265 -1.5179 -1.3476
13250TIP3   OH261240   3.843   5.843  10.635  0.7989  0.6541 -0.1129
13250TIP3    H161241   3.755   5.814  10.612  0.3785  1.3520  0.5714
13250TIP3    H261242   3.865   5.910  10.570  1.1463 -0.0555 -0.7465
13251TIP3   OH261243   5.122   1.407  15.379  0.1739 -0.1746 -0.0249
13251TIP3    H161244   5.116   1.400  15.474  2.1245 -2.7394  0.0237
13251TIP3    H261245   5.161   1.492  15.363  2.3350 -0.7535  1.6881
13252TIP3   OH261246   0.343   3.111   5.922 -0.7377  0.1880 -0.0391
13252TIP3    H161247   0.394   3.136   5.998 -0.6049  1.1945 -0.4514
13252TIP3    H261248   0.408   3.078   5.860 -0.7696  0.0101  0.0210
13253TIP3   OH261249   2.442   3.290   4.186 -0.2254 -0.1078  0.2244
13253TIP3    H161250   2.393   3.371   4.201 -0.4082 -0.2670  0.4932
13253TIP3    H261251   2.468   3.295   4.094 -0.3826  0.1767  0.1923
13254TIP3   OH261252   3.207   4.102   3.355 -0.0573 -0.1894  0.0958
13254TIP3    H161253   3.262   4.094   3.278 -1.2768 -1.5432 -0.6988
13254TIP3    H261254   3.117   4.105   3.321 -0.5208  2.3523  1.3096
13255TIP3   OH261255   1.370   4.722  14.687  0.3285  0.3139 -0.0212
13255TIP3    H161256   1.285   4.734  14.645 -0.3156  1.4886  1.5271
13255TIP3    H261257   1.349   4.696  14.777  1.5979  1.1613  0.5472
13256TIP3   OH261258   0.971   0.863  15.246  0.2773 -0.5433 -0.7704
13256TIP3    H161259   1.052   0.899  15.210  0.5685  0.0731  0.4663
13256TIP3    H261260   0.930   0.936  15.293 -0.9469 -0.8782 -1.2862
13257TIP3   OH261261   3.968   0.941  11.029  0.3988 -0.1719 -0.0674
13257TIP3    H161262   4.057   0.942  10.994  1.2295 -1.5304  1.8220
13257TIP3    H261263   3.956   1.028  11.067  0.7577  0.1709 -0.7383
13258TIP3   OH261264   4.018   1.018   3.381  0.1662  0.1937 -0.8936
13258TIP3    H161265   4.084   1.086   3.368 -0.7558  0.9423 -1.7729
13258TIP3    H261266   4.032   0.957   3.308  1.3276 -0.8652  0.1812
13259TIP3   OH261267   3.588   5.163   2.124  0.2287  0.1466 -0.0565
13259TIP3    H161268   3.664   5.183   2.069 -1.0649  0.1294 -1.9234
13259TIP3    H261269   3.620   5.174   2.214  2.2659  0.7103 -0.8008
13260TIP3   OH261270   3.343   4.317  14.867 -0.3564 -0.1712 -0.0068
13260TIP3    H161271   3.350   4.402  14.911 -0.3520  0.0661 -0.4607
13260TIP3    H261272   3.357   4.337  14.775  0.3671 -0.7713 -0.0297
13261TIP3   OH261273   5.817   0.964  14.688  0.1379  0.2570 -0.4853
13261TIP3    H161274   5.740   0.916  14.717 -0.2852  1.2451  0.0736
13261TIP3    H261275   5.837   0.926  14.602 -0.3665 -0.6865 -0.2031
13262TIP3   OH261276   4.717   3.286   3.269 -0.1144 -0.2195 -0.0395
13262TIP3    H161277   4.630   3.281   3.309  0.0365  2.3678  0.7889
13262TIP3    H261278   4.700   3.277   3.175 -1.1125 -1.0842  0.2022
13263TIP3   OH261279   5.805   2.879   3.125 -0.3311  0.3268 -0.4388
13263TIP3    H161280   5.840   2.793   3.150 -0.6859 -0.5210 -2.6759
13263TIP3    H261281   5.712   2.863   3.108 -0.2398  0.9755 -1.6006
13264TIP3   OH261282   1.388   4.833  13.026 -0.0052  0.6164 -0.3561
13264TIP3    H161283   1.456   4.767  13.034 -0.8429 -0.3141 -0.7059
13264TIP3    H261284   1.419   4.892  12.957  0.3529  0.0876 -0.6474
13265TIP3   OH261285   2.191   2.913   3.946  0.0303  0.5830 -0.4230
13265TIP3    H161286   2.158   2.927   4.035  0.4661  1.5419 -0.4068
13265TIP3    H261287   2.159   2.826   3.922  0.5611 -0.0091  0.9622
13266TIP3   OH261288   4.016   6.014  14.577 -0.0625  0.4426 -0.4024
13266TIP3    H161289   4.104   6.047  14.595  0.3761 -1.1390  0.5954
13266TIP3    H261290   4.017   5.991  14.484  0.2217  1.4041 -0.6480
13267TIP3   OH261291   4.210   1.046  15.801  0.1476  0.3823  0.0064
13267TIP3    H161292   4.293   1.000  15.813 -0.0870 -0.3642 -1.1078
13267TIP3    H261293   4.144   0.987  15.839 -0.1881 -0.3884 -1.6777
13268TIP3   OH261294   5.047   0.507  12.966  0.5623 -0.7345 -0.3326
13268TIP3    H161295   4.985   0.544  13.028  1.4552  0.5072 -0.1588
13268TIP3    H261296   5.076   0.425  13.006 -0.1087 -0.7643  0.0969
13269TIP3   OH261297   0.891   3.462  16.857 -0.3528 -0.4957  0.8271
13269TIP3    H161298   0.933   3.423  16.780 -2.2878  1.8371 -1.6081
13269TIP3    H261299   0.854   3.387  16.904 -0.2599 -1.9346 -1.2380
13270TIP3   OH261300   4.485   3.854  10.956  0.0765  0.0921  0.2501
13270TIP3    H161301   4.530   3.773  10.981 -2.5805 -1.9594 -1.1409
13270TIP3    H261302   4.511   3.869  10.865  0.8505  1.0821  0.6134
13271TIP3   OH261303   0.008   3.824   2.265  0.5169 -0.1607  0.2318
13271TIP3    H161304  -0.085   3.818   2.243  0.8013  0.4290 -1.2885
13271TIP3    H261305   0.026   3.747   2.319 -0.5798 -0.9451 -0.4883
13272TIP3   OH261306   5.323   2.542   3.776  0.0855  0.2271  0.3115
13272TIP3    H161307   5.355   2.456   3.804  0.7064 -0.6003 -2.5812
13272TIP3    H261308   5.231   2.528   3.755 -0.2145  0.6918  1.2360
13273TIP3   OH261309   4.860   0.515   0.384  0.0531  0.1370  0.1845
13273TIP3    H161310   4.791   0.559   0.334 -2.3331 -2.0222  1.3213
13273TIP3    H261311   4.928   0.581   0.395 -2.9490  3.3728  1.1939
13274TIP3   OH261312   3.386   4.578   5.917 -0.1707  0.4256 -0.2719
13274TIP3    H161313   3.336   4.604   5.839  0.3162  0.3942 -0.6002
13274TIP3    H261314   3.400   4.484   5.905  0.8868  0.6298 -0.7210
13275TIP3   OH261315   4.442   4.763   5.368 -0.2356  0.1137 -0.4220
13275TIP3    H161316   4.368   4.794   5.316 -0.5886 -0.1644 -0.0882
13275TIP3    H261317   4.415   4.776   5.459  1.0137  2.1423 -0.2669
13276TIP3   OH261318   0.440   2.517   3.882  0.0615  0.5015  0.3005
13276TIP3    H161319   0.465   2.425   3.875  1.4388  0.8371  0.5534
13276TIP3    H261320   0.516   2.560   3.921 -0.4977  1.7853  0.0384
13277TIP3   OH261321   5.920   1.701  16.421 -0.3755  0.1160  0.1458
13277TIP3    H161322   6.001   1.747  16.445  0.8761 -2.0116  0.2364
13277TIP3    H261323   5.863   1.714  16.497  0.1042  1.1236  0.3563
13278TIP3   OH261324   3.827   0.451  17.022  0.1054  0.1509  0.4006
13278TIP3    H161325   3.736   0.427  17.004  0.7365 -2.6800  0.5275
13278TIP3    H261326   3.830   0.464  17.117 -0.8416  3.9514  0.0644
13279TIP3   OH261327   0.734   1.941  13.947 -0.9434  0.2657 -0.2009
13279TIP3    H161328   0.802   1.949  13.880 -0.4977 -1.1640  0.0299
13279TIP3    H261329   0.686   2.023  13.943  0.3730  1.0419 -0.8496
13280TIP3   OH261330   0.623   3.478   3.546 -0.0265 -0.1506  0.4298
13280TIP3    H161331   0.567   3.555   3.554 -0.3053 -0.3464  0.3643
13280TIP3    H261332   0.706   3.504   3.588  0.6714  0.9443 -1.5000
13281TIP3   OH261333   4.151   4.357   3.149 -0.5482  0.6144  0.2950
13281TIP3    H161334   4.203   4.415   3.094  0.1609  0.4654  0.8004
13281TIP3    H261335   4.101   4.304   3.087  2.4801 -1.7057 -0.4152
13282TIP3   OH261336   3.084   5.054   0.971 -0.3815 -0.0318 -0.5737
13282TIP3    H161337   3.116   5.036   1.059  0.8180  0.8781 -0.7943
13282TIP3    H261338   3.164   5.070   0.920 -1.0817 -0.0618 -1.7131
13283TIP3   OH261339   6.398   2.046   4.008  0.9051  0.3395 -0.3132
13283TIP3    H161340   6.458   2.103   4.057  2.8526 -3.2858  2.0191
13283TIP3    H261341   6.338   2.012   4.074  1.0955 -1.7525 -1.1537
13284TIP3   OH261342   0.836   5.295  12.139  0.5054 -0.2943  0.1231
13284TIP3    H161343   0.876   5.252  12.063 -1.7406 -0.4255 -1.0841
13284TIP3    H261344   0.787   5.225  12.182  2.5432 -0.4523  2.3676
13285TIP3   OH261345   2.526   5.397   5.243 -0.3409  0.0972 -0.5810
13285TIP3    H161346   2.565   5.461   5.303  0.0941  1.3033 -2.0623
13285TIP3    H261347   2.473   5.341   5.298  1.6665 -0.1569  1.2107
13286TIP3   OH261348   2.137   3.473  12.891  0.4259 -0.3632  0.4031
13286TIP3    H161349   2.090   3.557  12.889  0.4385 -0.3758 -1.3982
13286TIP3    H261350   2.229   3.498  12.890  0.4406 -0.3942  0.7766
13287TIP3   OH261351   4.590   5.947   0.820 -0.0717 -0.8285  0.7991
13287TIP3    H161352   4.596   5.885   0.746  1.5339 -0.6187  0.7124
13287TIP3    H261353   4.565   5.893   0.894  3.2354 -2.0946  1.1823
13288TIP3   OH261354   1.274   3.180  14.012  0.3461 -0.4521  0.3220
13288TIP3    H161355   1.364   3.212  14.021  0.5477 -0.7099 -0.6432
13288TIP3    H261356   1.234   3.242  13.950  0.2083 -1.0022 -0.1487
13289TIP3   OH261357   5.854   6.461  16.713  0.1255  0.4026 -0.4355
13289TIP3    H161358   5.923   6.423  16.660  0.2656  0.1346 -0.0616
13289TIP3    H261359   5.795   6.503  16.649  0.1652 -0.1153 -0.8152
13290TIP3   OH261360   1.764   3.348  16.570  0.0060  0.0863 -0.2154
13290TIP3    H161361   1.834   3.413  16.576 -0.0228  0.0595  0.4982
13290TIP3    H261362   1.683   3.399  16.579 -0.0016 -0.0971  0.8752
13291TIP3   OH261363   2.357   2.911   2.078 -0.1685  0.2526  0.2374
13291TIP3    H161364   2.421   2.966   2.124  0.9863 -1.3006  0.6122
13291TIP3    H261365   2.374   2.926   1.985  0.3032  0.3654  0.3382
13292TIP3   OH261366   1.773   3.144   3.915 -0.0966  0.2331 -0.4350
13292TIP3    H161367   1.793   3.053   3.935  0.5214  0.5413  0.3872
13292TIP3    H261368   1.843   3.172   3.856  1.3208  0.9523  1.4788
13293TIP3   OH261369   3.331   1.302  15.432  0.2095 -0.5784 -0.6787
13293TIP3    H161370   3.275   1.373  15.464  1.0867  0.3727 -1.1953
13293TIP3    H261371   3.396   1.345  15.377  0.9310 -1.7595 -0.8001
13294TIP3   OH261372   1.402   2.135   0.264  0.4837 -0.3436  0.7325
13294TIP3    H161373   1.433   2.219   0.299 -0.2610  0.3632 -0.2721
13294TIP3    H261374   1.377   2.154   0.174  0.1503 -1.6154  0.5411
13295TIP3   OH261375   1.052   3.898  14.027 -0.5123 -0.0919 -0.0985
13295TIP3    H161376   1.011   3.977  14.061 -1.4050 -1.1185  1.3282
13295TIP3    H261377   1.060   3.840  14.103 -1.3156 -1.9742 -1.3593
13296TIP3   OH261378   1.865   4.240   5.023 -0.5828 -0.0331 -0.3460
13296TIP3    H161379   1.880   4.195   4.940 -0.0249 -0.7264  0.1242
13296TIP3    H261380   1.769   4.248   5.028 -0.6114  0.1877 -1.1424
13297TIP3   OH261381   6.730   1.335  15.519  0.3894  0.5345 -0.6760
13297TIP3    H161382   6.668   1.304  15.585 -1.3072  1.8504 -1.5809
13297TIP3    H261383   6.699   1.422  15.495  1.2939  0.3362 -2.7858
13298TIP3   OH261384   2.518   3.143   3.342 -0.4474  0.0657 -0.3059
13298TIP3    H161385   2.580   3.216   3.344 -0.3126  0.1119  4.1301
13298TIP3    H261386   2.434   3.182   3.364 -0.7640 -0.8424  0.1640
13299TIP3   OH261387   4.779   0.627   1.558 -0.0896  0.2088 -0.1137
13299TIP3    H161388   4.715   0.693   1.532  0.6635  1.2193  0.4966
13299TIP3    H261389   4.791   0.573   1.481 -2.5471 -0.7713  0.1111
13300TIP3   OH261390   2.738   1.644   1.921  0.1550 -0.1038  0.0638
13300TIP3    H161391   2.697   1.726   1.950  0.8056 -0.0984  1.0325
13300TIP3    H261392   2.798   1.621   1.992  0.4077 -1.1233 -0.4568
13301TIP3   OH261393   6.154   5.673   1.765 -0.0214  0.7311  0.6502
13301TIP3    H161394   6.222   5.703   1.704 -0.3328  1.1152  0.4924
13301TIP3    H261395   6.097   5.618   1.712 -0.0435  0.7059  0.6999
13302TIP3   OH261396   4.409   1.644   3.910 -0.7036  0.5115  0.0460
13302TIP3    H161397   4.433   1.724   3.957  1.1777 -0.7427  1.3943
13302TIP3    H261398   4.361   1.592   3.974  2.0665 -1.3098  0.8287
13303TIP3   OH261399   6.311   0.747  13.286 -0.2328 -0.3399 -0.1265
13303TIP3    H161400   6.391   0.799  13.290 -1.2290  1.4600 -1.9046
13303TIP3    H261401   6.313   0.706  13.200  0.2369 -2.9105  1.0111
13304TIP3   OH261402   4.001   1.470   3.362 -0.1054  0.6218  0.3652
13304TIP3    H161403   3.932   1.507   3.307 -0.1398 -0.8091 -0.6149
13304TIP3    H261404   4.040   1.545   3.407 -0.3402  1.7882 -1.3101
13305TIP3   OH261405   5.418   2.473  15.284 -0.6580 -0.2708  0.2237
13305TIP3    H161406   5.384   2.430  15.362  0.2844  0.3860  1.0081
13305TIP3    H261407   5.371   2.431  15.212 -3.0214  0.4559  1.2167
13306TIP3   OH261408   1.126   6.189  14.648  0.1630  0.0122 -0.0336
13306TIP3    H161409   1.191   6.233  14.703  0.1905  1.5349 -1.2206
13306TIP3    H261410   1.178   6.135  14.588  0.3470  0.9142 -0.7131
13307TIP3   OH261411   2.635   3.238   3.653 -0.1377 -0.2739  0.0895
13307TIP3    H161412   2.568   3.172   3.636  2.4812 -2.9328 -0.7803
13307TIP3    H261413   2.666   3.264   3.566  0.1891  0.6154  0.4651
13308TIP3   OH261414   5.628   4.497  16.426 -0.0160 -0.3330  0.4758
13308TIP3    H161415   5.564   4.541  16.483  0.9508  1.4365  0.2537
13308TIP3    H261416   5.686   4.450  16.486  0.0519  0.2164  0.8392
13309TIP3   OH261417   4.077   4.689   5.359  0.0982  0.0352  0.0937
13309TIP3    H161418   4.025   4.713   5.435  1.0914 -0.6584  1.0288
13309TIP3    H261419   4.119   4.770   5.332 -1.5031  0.6309 -0.7496
13310TIP3   OH261420   0.245   0.329   2.626  0.0845 -0.1344 -0.2186
13310TIP3    H161421   0.189   0.402   2.652 -1.3562 -1.3803  0.3092
13310TIP3    H261422   0.269   0.287   2.708  0.8511 -0.3029 -0.5239
13311TIP3   OH261423   5.004   4.692   0.373  0.0924  0.3229  0.1990
13311TIP3    H161424   4.982   4.643   0.452 -0.1159  0.9099  0.5127
13311TIP3    H261425   5.010   4.783   0.403 -0.2558  0.5826 -0.5109
13312TIP3   OH261426   0.595   2.657  13.407  0.7506  0.8141 -0.6621
13312TIP3    H161427   0.558   2.690  13.489 -1.1459  4.1146 -2.6157
13312TIP3    H261428   0.686   2.687  13.408  1.0158  0.0650  0.5175
13313TIP3   OH261429   2.545   4.297  12.291 -0.1202  0.0343 -0.6778
13313TIP3    H161430   2.562   4.391  12.288  0.7650 -0.1192 -0.9641
13313TIP3    H261431   2.536   4.272  12.199 -2.6016  0.1916 -0.5324
13314TIP3   OH261432   0.164   1.805   2.732  0.7537 -0.2397  0.7363
13314TIP3    H161433   0.111   1.873   2.773 -1.2676 -1.8945  0.9967
13314TIP3    H261434   0.245   1.850   2.708  0.3318  1.7803  2.7017
13315TIP3   OH261435   5.139   5.242  16.403 -0.3255  0.5235  0.3161
13315TIP3    H161436   5.079   5.167  16.399  0.2542  0.0953 -1.1861
13315TIP3    H261437   5.225   5.203  16.415 -0.1945  1.0629  1.1787
13316TIP3   OH261438   4.517   5.185   4.214  0.2470 -0.9939  0.0324
13316TIP3    H161439   4.468   5.114   4.254 -2.3808  0.0463 -1.1146
13316TIP3    H261440   4.509   5.257   4.277 -2.1612  0.0135 -1.3005
13317TIP3   OH261441   2.802   5.436  13.246 -0.5304 -0.5456 -0.6148
13317TIP3    H161442   2.751   5.407  13.321 -0.9420  2.0108  0.1866
13317TIP3    H261443   2.864   5.500  13.282  0.1185 -0.1905 -2.2621
13318TIP3   OH261444   6.408   2.429   2.134  0.5414  0.1749 -0.2552
13318TIP3    H161445   6.495   2.468   2.139  0.0974  1.1283  0.4322
13318TIP3    H261446   6.395   2.388   2.220 -0.4348  1.7618  0.4135
13319TIP3   OH261447   2.929   2.775   4.188 -0.2389  0.7001 -0.1619
13319TIP3    H161448   2.934   2.863   4.152 -1.3754  0.0614 -1.9924
13319TIP3    H261449   2.847   2.773   4.237 -0.4848  0.5158 -0.5749
13320TIP3   OH261450   6.233   6.100   0.692  0.4450 -0.4520 -0.0162
13320TIP3    H161451   6.257   6.176   0.639  0.9395  0.0211  0.8506
13320TIP3    H261452   6.195   6.038   0.630 -1.0984  0.9618 -0.5778
13321TIP3   OH261453   4.146   0.252  11.351  0.1132 -0.2202  0.0637
13321TIP3    H161454   4.055   0.251  11.321  0.5692  2.6213 -1.8616
13321TIP3    H261455   4.188   0.181  11.303 -0.8597 -0.8912  0.1764
13322TIP3   OH261456   3.022   6.747   5.595 -0.1918 -0.1787 -0.1957
13322TIP3    H161457   3.030   6.654   5.571 -0.0221 -0.4480  0.8860
13322TIP3    H261458   3.036   6.749   5.689 -0.7332  0.8880 -0.1280
13323TIP3   OH261459   4.456   2.021  12.799  0.1297  0.0752 -0.1286
13323TIP3    H161460   4.428   2.099  12.847  0.5314  0.3938 -0.3985
13323TIP3    H261461   4.453   2.046  12.707  0.2303 -0.2377 -0.2208
13324TIP3   OH261462   2.400   1.541  15.014 -0.0469  0.3219  0.2221
13324TIP3    H161463   2.430   1.527  15.104 -2.1442 -0.6560  0.8134
13324TIP3    H261464   2.329   1.604  15.022  1.3555  2.1771 -1.0883
13325TIP3   OH261465   0.220   0.215   2.910  0.4953 -0.5461 -0.1949
13325TIP3    H161466   0.197   0.175   2.994  0.4009  0.0878  0.0896
13325TIP3    H261467   0.183   0.156   2.844 -0.2457 -0.5696  0.2267
13326TIP3   OH261468   5.366   2.146  11.111 -0.3374 -0.3843 -0.2130
13326TIP3    H161469   5.420   2.196  11.050  2.0450 -1.1663  1.1388
13326TIP3    H261470   5.364   2.057  11.073 -2.0295 -0.0387 -1.0379
13327TIP3   OH261471   1.082   0.592   5.062 -0.4281  0.2599  0.2464
13327TIP3    H161472   1.104   0.684   5.054  0.5106 -0.1105 -2.0581
13327TIP3    H261473   1.093   0.556   4.974 -0.5650 -2.0978  1.1137
13328TIP3   OH261474   6.701   5.881  16.756 -1.1585  0.0600  0.0632
13328TIP3    H161475   6.676   5.802  16.707 -2.4697 -0.4778  1.5269
13328TIP3    H261476   6.776   5.854  16.808 -0.5909  0.2599 -0.6337
13329TIP3   OH261477   6.485   2.156   1.161 -0.2958  0.1047  0.2870
13329TIP3    H161478   6.574   2.188   1.173  0.1911 -0.7908 -0.7644
13329TIP3    H261479   6.430   2.226   1.196  0.8081  0.7743  0.7416
13330TIP3   OH261480   4.470   6.106  12.904  0.0185  1.3419  0.1779
13330TIP3    H161481   4.523   6.056  12.842 -0.5873  0.2782  0.5009
13330TIP3    H261482   4.383   6.068  12.897 -0.1140  1.3686  1.5014
13331TIP3   OH261483   5.658   0.489   5.865  0.7213 -0.9353  0.1403
13331TIP3    H161484   5.630   0.398   5.875 -2.2882 -0.1512 -0.2862
13331TIP3    H261485   5.614   0.536   5.936 -1.6036  0.8661 -2.2862
13332TIP3   OH261486   5.199   5.093  12.127  0.6532 -0.1549  0.2936
13332TIP3    H161487   5.286   5.063  12.156  0.5741 -0.0987  0.5897
13332TIP3    H261488   5.142   5.018  12.143  0.8076 -0.5062 -0.7217
13333TIP3   OH261489   1.635   6.428   0.933  0.2855 -0.1499 -0.6300
13333TIP3    H161490   1.728   6.447   0.921 -0.0724  1.8625 -0.6828
13333TIP3    H261491   1.591   6.506   0.901 -1.5193 -1.6063 -1.8733
13334TIP3   OH261492   5.838   4.704   4.802 -0.1530  0.1698  0.5186
13334TIP3    H161493   5.905   4.649   4.844 -0.2176 -0.7241 -0.5031
13334TIP3    H261494   5.816   4.657   4.722 -0.4949  1.5132 -0.1999
13335TIP3   OH261495   5.880   1.005   2.239  0.2158  0.1238  0.0097
13335TIP3    H161496   5.962   1.016   2.288 -0.5044  0.3281  1.1944
13335TIP3    H261497   5.813   0.997   2.306 -0.7321 -0.1534 -0.9539
13336TIP3   OH261498   6.686   5.483  13.330 -0.1093 -0.2845  0.1025
13336TIP3    H161499   6.603   5.519  13.360 -0.4016  0.5134 -1.5133
13336TIP3    H261500   6.718   5.547  13.266  1.3605 -0.9686  0.1085
13337TIP3   OH261501   4.970   4.827   6.207  0.2323  0.1335  0.3363
13337TIP3    H161502   4.882   4.862   6.190 -0.6260 -1.9329  0.2538
13337TIP3    H261503   5.023   4.861   6.135 -0.5058  1.2800  0.2885
13338TIP3   OH261504   0.425   6.394   4.651  0.1665  0.0936  0.2629
13338TIP3    H161505   0.493   6.367   4.590  1.5103  1.7879  0.9250
13338TIP3    H261506   0.469   6.397   4.736 -0.5655  1.6916  0.6306
13339TIP3   OH261507   2.661   1.665  16.274  0.2297 -0.2599  0.1994
13339TIP3    H161508   2.591   1.730  16.265 -0.2210 -0.9292 -1.4820
13339TIP3    H261509   2.741   1.714  16.259  0.0368  0.2542  0.7985
13340TIP3   OH261510   0.774   2.494  15.694 -0.4739  0.5592 -0.4538
13340TIP3    H161511   0.714   2.544  15.639 -1.8085  0.2221  0.6583
13340TIP3    H261512   0.821   2.437  15.633  1.8639  3.7280 -1.9679
13341TIP3   OH261513   5.221   5.044   0.305  0.8392 -0.0168 -0.4990
13341TIP3    H161514   5.169   5.031   0.385  1.2952 -0.6881 -0.3085
13341TIP3    H261515   5.158   5.035   0.234 -0.0077  2.5962 -0.2039
13342TIP3   OH261516   5.729   6.000  16.528 -0.4599 -0.0221 -0.3218
13342TIP3    H161517   5.747   5.914  16.490 -1.5238 -0.0337 -0.8427
13342TIP3    H261518   5.764   5.994  16.618  0.7389 -0.4992 -0.7975
13343TIP3   OH261519   5.122   2.953   3.352  0.5870 -0.2756  1.0790
13343TIP3    H161520   5.100   2.876   3.405  0.5627 -1.2290 -0.2639
13343TIP3    H261521   5.192   2.996   3.401  1.3390 -1.7366  1.3491
13344TIP3   OH261522   6.673   2.553  17.055  0.3361 -0.2267  0.1453
13344TIP3    H161523   6.628   2.517  16.979 -0.6296  2.3144 -0.6125
13344TIP3    H261524   6.757   2.584  17.020 -0.0369  0.7868  0.1150
13345TIP3   OH261525   3.538   4.457   0.647 -0.1091  0.4238 -0.1787
13345TIP3    H161526   3.577   4.370   0.659 -0.7865 -0.2387 -2.3208
13345TIP3    H261527   3.550   4.476   0.554 -1.1820  2.0355 -0.0305
13346TIP3   OH261528   3.067   3.228  16.936  0.2046 -0.4162 -0.3550
13346TIP3    H161529   2.979   3.243  16.971 -1.1753 -2.0889 -2.8576
13346TIP3    H261530   3.101   3.156  16.988 -0.4258 -0.6114 -0.2055
13347TIP3   OH261531   5.351   5.303   2.881 -0.1842  0.0749  0.1021
13347TIP3    H161532   5.440   5.269   2.890  0.7452  2.0654 -0.7736
13347TIP3    H261533   5.339   5.311   2.786 -1.7641 -1.2273  0.1639
13348TIP3   OH261534   6.797   4.573  12.576  0.3398  0.3024 -0.0250
13348TIP3    H161535   6.724   4.514  12.598  1.0739 -0.4538  0.4316
13348TIP3    H261536   6.847   4.524  12.510  1.5849 -0.0832  1.1778
13349TIP3   OH261537   6.671   6.458   2.839  0.5160  0.4912 -1.0063
13349TIP3    H161538   6.683   6.553   2.845 -0.4562  0.5784 -0.3507
13349TIP3    H261539   6.589   6.447   2.792 -0.7158  0.0490  1.1009
13350TIP3   OH261540   4.162   3.775   6.108 -0.0995 -0.1728  0.8265
13350TIP3    H161541   4.211   3.842   6.156  0.3059 -1.1950  1.8727
13350TIP3    H261542   4.205   3.692   6.131 -2.1703 -1.0922  1.6272
13351TIP3   OH261543   2.492   5.624  15.636 -0.3024  0.5633  0.0751
13351TIP3    H161544   2.467   5.675  15.713 -0.9721  1.1770 -0.5384
13351TIP3    H261545   2.567   5.572  15.665 -0.8819  0.3853  1.2973
13352TIP3   OH261546   2.928   0.204  14.151  0.2930 -0.1076  0.5865
13352TIP3    H161547   2.848   0.218  14.202 -0.5368  0.3661 -0.7876
13352TIP3    H261548   2.920   0.114  14.118  0.3506 -0.0799  0.4966
13353TIP3   OH261549   1.589   0.211  14.381  0.3203 -0.0333  0.3414
13353TIP3    H161550   1.623   0.283  14.328 -2.6172  1.8042  0.7404
13353TIP3    H261551   1.587   0.246  14.470 -0.9127 -0.6655  0.5828
13354TIP3   OH261552   5.930   5.706   5.326  0.2518 -0.8848 -0.4098
13354TIP3    H161553   5.980   5.783   5.300 -0.7368  0.0370  0.3343
13354TIP3    H261554   5.989   5.632   5.308  2.2000  0.1850  1.1240
13355TIP3   OH261555   5.523   6.062  12.073 -0.3139 -0.3368  0.0846
13355TIP3    H161556   5.465   5.990  12.047 -1.7012  1.0215 -0.7577
13355TIP3    H261557   5.536   6.112  11.992 -0.0295  0.7991  0.8105
13356TIP3   OH261558   3.801   1.219  13.888 -0.1356  0.7516 -0.1299
13356TIP3    H161559   3.714   1.180  13.874  0.0242  0.4630 -0.3125
13356TIP3    H261560   3.802   1.295  13.831  0.2667 -0.0503 -1.2088
13357TIP3   OH261561   6.629   0.159   4.011 -0.0813 -0.1576 -0.3282
13357TIP3    H161562   6.572   0.087   4.038  0.3289 -0.4551 -0.2440
13357TIP3    H261563   6.573   0.215   3.958 -0.3859 -0.5802 -0.4631
13358TIP3   OH261564   2.979   1.507  12.694 -0.1498  0.4197  0.1216
13358TIP3    H161565   3.006   1.599  12.701  0.8028  0.0334  2.0008
13358TIP3    H261566   3.059   1.460  12.671 -0.3609 -0.1055  0.4632
13359TIP3   OH261567   3.170   0.906  16.801 -0.3626 -0.4303 -0.1195
13359TIP3    H161568   3.253   0.897  16.848  0.1098 -1.0631 -1.0355
13359TIP3    H261569   3.188   0.869  16.715 -1.7647 -1.1038 -0.1456
13360TIP3   OH261570   1.654   6.173   1.597  0.2145 -0.4303  0.3633
13360TIP3    H161571   1.692   6.260   1.607  2.2204 -1.2475  0.4346
13360TIP3    H261572   1.703   6.118   1.659 -0.4887 -1.7432 -0.1944
13361TIP3   OH261573   3.422   3.253  17.235  0.7308 -0.0037  0.4779
13361TIP3    H161574   3.373   3.182  17.193 -0.2698  0.6453  0.5110
13361TIP3    H261575   3.489   3.208  17.287 -0.7041 -1.0125  1.5444
13362TIP3   OH261576   3.133   5.918  11.416  0.2987 -0.5240 -0.4705
13362TIP3    H161577   3.068   5.848  11.417 -0.4083  0.0928 -1.3433
13362TIP3    H261578   3.099   5.984  11.476  1.1027 -1.0307  0.5659
13363TIP3   OH261579   2.397   5.809  11.911 -0.5096  0.2826 -0.0217
13363TIP3    H161580   2.355   5.745  11.854 -0.4093  0.3709 -0.1955
13363TIP3    H261581   2.460   5.758  11.962 -1.4999 -0.0287  0.9398
13364TIP3   OH261582   5.583   5.620  14.466 -0.3676 -0.5945 -0.3995
13364TIP3    H161583   5.577   5.564  14.389 -1.5438 -1.6242  0.3803
13364TIP3    H261584   5.493   5.649  14.481  0.0009  0.3653  0.0373
13365TIP3   OH261585   4.893   0.054  12.693 -0.5604  0.7992 -0.3716
13365TIP3    H161586   4.911   0.001  12.771  0.6030 -1.6197 -2.1522
13365TIP3    H261587   4.798   0.058  12.688 -0.7047 -1.4643 -0.3230
13366TIP3   OH261588   0.360   0.438   5.364 -0.2120  0.0318  0.0081
13366TIP3    H161589   0.315   0.435   5.448  0.8789  1.9107  0.7072
13366TIP3    H261590   0.395   0.349   5.353 -1.4118 -0.5872  0.9206
13367TIP3   OH261591   4.425   6.636  15.066 -0.0153 -0.5209  0.0533
13367TIP3    H161592   4.382   6.719  15.046  0.0099 -0.9583 -1.9884
13367TIP3    H261593   4.515   6.648  15.037  0.1743 -1.0288  0.4245
13368TIP3   OH261594   1.901   4.193  16.422 -0.3203  0.2461  0.1989
13368TIP3    H161595   1.838   4.143  16.474  1.1727  0.2953  2.1663
13368TIP3    H261596   1.848   4.234  16.353 -2.3183 -0.2321  1.3606
13369TIP3   OH261597   5.737   2.549  16.342 -0.1982  0.2636 -0.2251
13369TIP3    H161598   5.822   2.505  16.341 -0.5613 -0.4494 -0.3557
13369TIP3    H261599   5.704   2.535  16.431 -0.1840  0.5382 -0.1745
13370TIP3   OH261600   5.879   2.449   3.367  0.2848 -0.3137  0.5379
13370TIP3    H161601   5.873   2.464   3.273 -1.1238 -0.8170  0.5159
13370TIP3    H261602   5.965   2.482   3.392  0.8929 -0.6435 -1.0128
13371TIP3   OH261603   2.262   4.375  11.450  0.2864  0.5618 -0.2701
13371TIP3    H161604   2.334   4.322  11.485  0.6004  0.9467 -0.3208
13371TIP3    H261605   2.234   4.330  11.371  0.3270  0.2904 -0.1290
13372TIP3   OH261606   5.556   1.391   6.085  0.2453  0.0142 -0.4835
13372TIP3    H161607   5.511   1.428   6.161  1.4835  1.7011 -0.5014
13372TIP3    H261608   5.520   1.439   6.011  0.5375 -0.1422 -0.7282
13373TIP3   OH261609   0.872   4.510  13.949 -0.1727  0.4472  0.0124
13373TIP3    H161610   0.834   4.487  14.034  0.9557 -2.3645 -0.1374
13373TIP3    H261611   0.965   4.525  13.968 -0.3079  1.9717 -0.4263
13374TIP3   OH261612   0.287   5.252   1.597  0.0395 -0.0104 -0.3129
13374TIP3    H161613   0.267   5.204   1.678  0.7338 -1.8358 -1.1568
13374TIP3    H261614   0.351   5.317   1.623  0.3025 -0.6185  0.6086
13375TIP3   OH261615   3.655   4.834   4.367 -0.2206  0.0868  0.0213
13375TIP3    H161616   3.598   4.788   4.306  0.0892 -0.2767  0.0019
13375TIP3    H261617   3.644   4.788   4.450 -1.3405  1.1403  0.4884
13376TIP3   OH261618   4.749   1.999  14.983 -0.4164 -0.3384  0.2312
13376TIP3    H161619   4.711   1.923  14.939 -0.2655 -0.1458 -0.2442
13376TIP3    H261620   4.700   2.074  14.948  2.3208  0.2727 -2.7580
13377TIP3   OH261621   0.078   0.375   3.887  0.3814  0.0512  0.7725
13377TIP3    H161622   0.083   0.280   3.873 -0.8022  0.3248 -2.3386
13377TIP3    H261623   0.160   0.409   3.852 -0.6287  0.3600 -1.5081
13378TIP3   OH261624   3.104   2.372   3.098  0.2554  0.5059  0.2367
13378TIP3    H161625   3.079   2.335   3.013 -1.3046 -0.9275  1.2707
13378TIP3    H261626   3.039   2.439   3.115  0.2205  0.3871  0.5702
13379TIP3   OH261627   5.456   4.825  14.864  0.1138 -0.0189  0.4289
13379TIP3    H161628   5.420   4.831  14.953 -1.2612  1.3685 -0.1828
13379TIP3    H261629   5.501   4.909  14.851  0.0568 -0.0971 -0.2895
13380TIP3   OH261630   5.902   6.340  15.523 -0.0087  0.3472 -0.0754
13380TIP3    H161631   5.856   6.413  15.564 -0.9022 -1.0089  1.4705
13380TIP3    H261632   5.988   6.339  15.564  0.1175  0.7027 -0.3264
13381TIP3   OH261633   6.059   1.938  11.869 -0.7201 -0.2332  0.2432
13381TIP3    H161634   6.085   1.981  11.789  0.4406 -1.9040 -0.3349
13381TIP3    H261635   6.069   1.844  11.851  0.7842 -0.6597  2.6883
13382TIP3   OH261636   3.064   4.124  10.722 -0.9639  0.2914 -0.0331
13382TIP3    H161637   3.086   4.122  10.629  2.1150  1.2707  0.5536
13382TIP3    H261638   3.036   4.214  10.739 -1.5813  0.0992 -0.0050
13383TIP3   OH261639   4.650   2.924   5.110  0.6610 -0.1103  0.4189
13383TIP3    H161640   4.660   2.991   5.042 -0.6692 -1.3298 -1.0689
13383TIP3    H261641   4.703   2.851   5.079  1.0135 -0.2471  1.3257
13384TIP3   OH261642   6.638   2.491  13.045  0.2940  0.4686  0.0710
13384TIP3    H161643   6.721   2.533  13.024  1.6226 -1.1478  1.7559
13384TIP3    H261644   6.586   2.500  12.966  2.7259 -0.0142 -1.6937
13385TIP3   OH261645   5.760   6.539  13.554 -0.2190 -0.1056  0.1922
13385TIP3    H161646   5.704   6.482  13.503  0.4357  0.7412 -1.5411
13385TIP3    H261647   5.822   6.575  13.491  1.8284 -0.4446  1.9079
13386TIP3   OH261648   0.757   2.113   2.246  0.1529  0.1734  0.0295
13386TIP3    H161649   0.715   2.046   2.192  0.0352  1.1034 -1.0647
13386TIP3    H261650   0.851   2.102   2.228  0.2577 -0.6064  0.9524
13387TIP3   OH261651   2.692   1.104  12.033 -0.0148  0.1016 -0.5804
13387TIP3    H161652   2.697   1.064  12.119  3.1228  1.7005  0.1283
13387TIP3    H261653   2.599   1.100  12.009 -1.0927  0.0981  3.0961
13388TIP3   OH261654   3.938   4.213  12.157  0.1856 -0.2567  0.7246
13388TIP3    H161655   3.945   4.182  12.247  0.5992  0.6290  1.0109
13388TIP3    H261656   3.867   4.162  12.119 -0.8816  0.2537  1.9545
13389TIP3   OH261657   0.334   0.535  13.154 -0.3205  0.4054 -0.5090
13389TIP3    H161658   0.417   0.491  13.171  0.2329  0.5635 -2.5380
13389TIP3    H261659   0.271   0.464  13.140  0.2002  0.2356 -2.1192
13390TIP3   OH261660   3.247   5.201  13.700 -0.5938  0.3054  0.4200
13390TIP3    H161661   3.297   5.280  13.723  0.3520  0.2349 -1.2931
13390TIP3    H261662   3.160   5.217  13.739 -1.1949  3.2953 -1.7361
13391TIP3   OH261663   0.318   1.306  10.843 -0.0350  0.0971 -0.0807
13391TIP3    H161664   0.342   1.378  10.902 -2.0459 -1.6946  3.2314
13391TIP3    H261665   0.255   1.345  10.782 -0.9281  1.3030  1.5131
13392TIP3   OH261666   5.631   1.822   4.671  0.8416 -0.2906  0.0244
13392TIP3    H161667   5.662   1.751   4.615  2.2350 -0.2099  0.6662
13392TIP3    H261668   5.642   1.789   4.760  0.7724  0.4442  0.3094
13393TIP3   OH261669   6.051   6.317   5.783 -0.2025 -0.4003  0.1973
13393TIP3    H161670   5.995   6.375   5.834  0.8831  0.7247  0.1418
13393TIP3    H261671   6.048   6.353   5.694  1.8959  0.7000  0.5180
13394TIP3   OH261672   5.922   4.695  11.431  0.2053 -0.0199  0.7154
13394TIP3    H161673   5.964   4.774  11.400  0.9230 -0.4028  0.6943
13394TIP3    H261674   5.897   4.647  11.352  1.1164 -0.5124  0.7126
13395TIP3   OH261675   1.562   0.541  13.866  0.3278  0.1641  0.3352
13395TIP3    H161676   1.634   0.530  13.928 -0.7503 -0.1332  1.5682
13395TIP3    H261677   1.553   0.455  13.825  0.2844  0.0312  0.6202
13396TIP3   OH261678   3.199   0.712   0.270  0.3093  0.4878  0.6927
13396TIP3    H161679   3.241   0.796   0.254 -1.5810  1.1211 -1.4203
13396TIP3    H261680   3.114   0.733   0.307 -0.6046 -0.3673 -0.7858
13397TIP3   OH261681   1.660   4.730   5.226 -0.6088  1.0600  0.2818
13397TIP3    H161682   1.711   4.650   5.215 -1.3554  0.5182  0.6287
13397TIP3    H261683   1.622   4.722   5.314 -1.2165  1.4798  0.0661
13398TIP3   OH261684   3.848   6.355  12.581  0.4740 -0.2187  0.4876
13398TIP3    H161685   3.891   6.271  12.563 -0.6484 -0.7157  0.0959
13398TIP3    H261686   3.774   6.332  12.637  0.4174  0.5687  0.7380
13399TIP3   OH261687   0.896   5.736   1.626 -0.1290  0.3440  0.1776
13399TIP3    H161688   0.922   5.697   1.709 -0.9684  1.5395  1.0361
13399TIP3    H261689   0.979   5.759   1.584  0.3278  2.1237  1.8975
13400TIP3   OH261690   5.959   3.838   0.855 -0.1557 -0.0668  0.2889
13400TIP3    H161691   6.044   3.879   0.842  0.2349 -0.5909  1.1511
13400TIP3    H261692   5.967   3.790   0.937 -0.9601 -0.9584 -0.1352
13401TIP3   OH261693   3.080   4.054   3.737  0.0044 -0.4237 -0.5744
13401TIP3    H161694   3.085   4.095   3.823  0.5940 -2.0554  0.2105
13401TIP3    H261695   3.163   4.007   3.728  1.0191  1.6219 -3.0849
13402TIP3   OH261696   2.476   4.029  14.355  0.2928 -0.0493  0.0670
13402TIP3    H161697   2.528   4.096  14.400  0.0391  1.2987 -1.5270
13402TIP3    H261698   2.541   3.971  14.315  0.5542  0.3699 -0.1262
13403TIP3   OH261699   0.669   4.047   1.991  0.1723 -0.4279 -0.9131
13403TIP3    H161700   0.685   4.079   2.080 -0.3486  0.1959 -1.0373
13403TIP3    H261701   0.649   4.126   1.941  1.5173 -0.6381 -1.8317
13404TIP3   OH261702   3.624   6.301  14.834 -0.3062 -0.3681 -0.1892
13404TIP3    H161703   3.547   6.253  14.865 -2.4452  2.0584 -1.4045
13404TIP3    H261704   3.659   6.246  14.763 -1.3476 -1.1829 -0.1044
13405TIP3   OH261705   1.457   5.154   0.970  0.6582 -0.1367 -0.1947
13405TIP3    H161706   1.524   5.093   1.001  0.3535  1.6306  4.9835
13405TIP3    H261707   1.506   5.230   0.940  1.0632 -0.0627  0.6099
13406TIP3   OH261708   5.170   0.245  16.958  0.5330  0.3159  0.2591
13406TIP3    H161709   5.219   0.222  16.879  1.7722  1.6519  0.5867
13406TIP3    H261710   5.141   0.335  16.942  0.3316  0.4021  1.0936
13407TIP3   OH261711   6.020   4.335   0.297 -0.3676  0.1688  0.0391
13407TIP3    H161712   5.931   4.363   0.275 -0.1785  1.5458  0.8755
13407TIP3    H261713   6.064   4.327   0.213  0.0483  4.2247 -0.3357
13408TIP3   OH261714   3.119   6.154   0.468 -0.8372 -0.3509 -0.6700
13408TIP3    H161715   3.105   6.093   0.396  0.2752 -1.4770  0.0261
13408TIP3    H261716   3.146   6.236   0.425  2.7307 -1.8134 -1.5325
13409TIP3   OH261717   4.781   4.442  16.317 -0.3447 -0.0272 -0.2338
13409TIP3    H161718   4.757   4.460  16.407 -0.5142  0.4038 -0.3641
13409TIP3    H261719   4.876   4.430  16.319 -0.0912  1.7323 -0.2686
13410TIP3   OH261720   3.638   4.355   2.798  0.2612 -0.8625  0.1057
13410TIP3    H161721   3.591   4.308   2.729 -2.4458 -0.5217  1.5958
13410TIP3    H261722   3.617   4.447   2.784  1.1607 -0.6098  0.3529
13411TIP3   OH261723   2.928   3.451  15.801 -0.5521  0.3741  0.6142
13411TIP3    H161724   2.857   3.436  15.862 -1.5436  1.5799 -0.2043
13411TIP3    H261725   2.953   3.542  15.814  1.0789 -0.0961  1.0972
13412TIP3   OH261726   2.956   1.040  12.210 -1.2911  0.1185  0.2179
13412TIP3    H161727   2.901   1.111  12.244 -0.9996  0.6349 -0.3622
13412TIP3    H261728   3.023   1.028  12.277 -1.0887  0.6961  0.1286
13413TIP3   OH261729   6.047   6.588   4.577  0.1544 -0.0651  0.3294
13413TIP3    H161730   5.991   6.515   4.551 -1.1034  0.6892  0.8089
13413TIP3    H261731   6.119   6.587   4.514 -0.3574 -1.1016 -0.2715
13414TIP3   OH261732   5.056   0.403  11.196 -0.2830 -0.1392 -0.1747
13414TIP3    H161733   5.087   0.327  11.147 -0.2574 -0.6676  0.6587
13414TIP3    H261734   4.961   0.393  11.200 -0.2492 -0.2993  0.2230
13415TIP3   OH261735   2.745   6.702   3.056  0.1723  0.3098 -0.0460
13415TIP3    H161736   2.720   6.699   3.149  0.1227 -1.9557 -0.0762
13415TIP3    H261737   2.829   6.657   3.053 -0.8053 -1.5519 -1.3294
13416TIP3   OH261738   2.081   6.739  13.369 -0.4454  0.0684 -0.7029
13416TIP3    H161739   2.176   6.741  13.370 -0.4414 -0.1726 -0.6666
13416TIP3    H261740   2.058   6.757  13.277 -0.4028  1.5328 -0.4623
13417TIP3   OH261741   3.661   5.302   0.141 -0.2142 -0.0827 -0.4269
13417TIP3    H161742   3.745   5.345   0.123  0.2437 -1.2056 -1.0843
13417TIP3    H261743   3.596   5.371   0.131  0.5872  0.7165 -0.3011
13418TIP3   OH261744   0.893   5.672   0.952  0.0680  0.1661  0.1785
13418TIP3    H161745   0.939   5.752   0.976  0.2901 -0.0048  0.3349
13418TIP3    H261746   0.854   5.691   0.867  1.2820 -0.0111 -0.4485
13419TIP3   OH261747   0.610   3.987  16.232  0.3556 -0.4358 -0.1056
13419TIP3    H161748   0.668   3.913  16.252 -0.4377 -0.8055  0.9081
13419TIP3    H261749   0.601   4.032  16.316 -0.7773 -0.3569 -0.2665
13420TIP3   OH261750   2.948   5.108  15.301  0.0251  0.1316 -0.1927
13420TIP3    H161751   2.856   5.096  15.322 -0.2506 -0.0776 -1.4419
13420TIP3    H261752   2.995   5.052  15.364 -0.7115 -0.0649  0.1921
13421TIP3   OH261753   6.600   4.261  12.619 -0.3488 -0.0414  0.1870
13421TIP3    H161754   6.596   4.203  12.543  1.9120  0.7357 -0.6071
13421TIP3    H261755   6.569   4.345  12.586  0.5674  0.2778  0.1135
13422TIP3   OH261756   1.286   0.127   1.345  0.1026 -0.1212  0.2136
13422TIP3    H161757   1.328   0.170   1.420  1.9947 -0.7572 -0.4295
13422TIP3    H261758   1.311   0.035   1.354 -0.4709 -0.3664 -0.6624
13423TIP3   OH261759   2.254   5.558   1.887  0.1573  0.3967  0.2174
13423TIP3    H161760   2.276   5.551   1.794  0.1436 -2.4826  0.3330
13423TIP3    H261761   2.172   5.606   1.889  0.6478  1.3715 -1.1525
13424TIP3   OH261762   6.598   5.406   6.025 -0.0746 -0.3522 -0.5704
13424TIP3    H161763   6.638   5.491   6.042 -0.4789 -0.1325 -0.7233
13424TIP3    H261764   6.582   5.369   6.111  0.5549 -0.4902 -0.5039
13425TIP3   OH261765   0.937   2.333  15.565 -0.1699 -0.0406  0.3580
13425TIP3    H161766   1.031   2.350  15.554 -0.3155  0.1037 -0.8998
13425TIP3    H261767   0.907   2.307  15.477 -0.7097 -3.2626  1.3772
13426TIP3   OH261768   1.455   2.616   0.493  0.2262 -0.0917  0.0538
13426TIP3    H161769   1.466   2.618   0.588  0.7495  2.9519  0.0168
13426TIP3    H261770   1.380   2.673   0.477  1.5092  1.2542 -1.4555
13427TIP3   OH261771   2.257   3.977   0.372  0.2717 -0.4728  0.4663
13427TIP3    H161772   2.241   4.013   0.459 -0.9983 -0.9587  0.4635
13427TIP3    H261773   2.276   3.885   0.387  0.0560 -0.5561  0.2388
13428TIP3   OH261774   6.757   1.482  14.439  0.5278 -0.0089  0.2909
13428TIP3    H161775   6.680   1.514  14.391  0.7761 -0.7021 -0.5965
13428TIP3    H261776   6.829   1.489  14.377  0.5502 -2.4873 -0.0467
13429TIP3   OH261777   3.343   1.632   1.393  0.3780  0.6537  0.1678
13429TIP3    H161778   3.340   1.695   1.465 -0.6765  0.9791 -0.1397
13429TIP3    H261779   3.426   1.649   1.349  0.6716  0.9834  0.8375
13430TIP3   OH261780   3.021   2.096   1.970  0.1799  0.2848  0.0842
13430TIP3    H161781   3.072   2.049   2.035 -0.7637  0.6684  1.1347
13430TIP3    H261782   3.022   2.187   2.000 -1.4528  0.2342  0.3913
13431TIP3   OH261783   1.087   4.982  12.916 -0.4822 -0.6489  0.1864
13431TIP3    H161784   1.105   4.917  12.984 -0.2222 -0.3154  0.4391
13431TIP3    H261785   1.168   4.985  12.864 -0.0505  0.3279  0.8893
13432TIP3   OH261786   2.309   0.726   4.892 -0.0505 -0.3750  0.2029
13432TIP3    H161787   2.241   0.725   4.824  1.7933 -1.0800 -1.7318
13432TIP3    H261788   2.336   0.818   4.898 -0.6892 -0.2011  0.4934
13433TIP3   OH261789   3.473   2.193  14.660  0.6175 -0.2913 -0.2578
13433TIP3    H161790   3.550   2.187  14.603 -0.5633  1.4343 -2.1835
13433TIP3    H261791   3.398   2.191  14.599 -0.7233  1.6199  1.2026
13434TIP3   OH261792   0.474   5.174   3.954 -0.6830 -0.0536  0.6389
13434TIP3    H161793   0.556   5.125   3.960 -0.4737  0.4357  2.3354
13434TIP3    H261794   0.416   5.132   4.017 -1.8742 -0.5704 -0.7426
13435TIP3   OH261795   6.742   6.809  14.727  0.1267  0.2017 -0.1162
13435TIP3    H161796   6.778   6.750  14.793 -0.5446 -0.2578 -0.1499
13435TIP3    H261797   6.649   6.788  14.724  0.1989 -0.0375 -1.4570
13436TIP3   OH261798   1.238   6.287   5.675 -0.1536 -0.6444 -0.4562
13436TIP3    H161799   1.276   6.207   5.639  0.7336 -0.3321 -0.2515
13436TIP3    H261800   1.207   6.262   5.762 -0.7730 -0.9994 -0.7776
13437TIP3   OH261801   2.051   1.003  16.549  0.2343 -0.4558  0.2518
13437TIP3    H161802   2.106   1.061  16.602  1.0517 -1.4572  0.5178
13437TIP3    H261803   2.012   0.943  16.612  1.0684 -1.5403 -0.2520
13438TIP3   OH261804   1.252   1.223   3.976  0.0655  0.0020  0.1863
13438TIP3    H161805   1.195   1.192   3.905  2.5188 -1.8308 -1.1451
13438TIP3    H261806   1.237   1.161   4.047 -0.0762 -0.0913  0.0754
13439TIP3   OH261807   3.937   2.163   1.003 -0.4098  0.1778 -0.4641
13439TIP3    H161808   3.887   2.183   1.083  0.3348  1.1706 -0.2384
13439TIP3    H261809   3.970   2.247   0.973  4.9622 -0.6907  1.9020
13440TIP3   OH261810   6.273   2.612   4.083 -0.3063  0.0049  0.0705
13440TIP3    H161811   6.224   2.661   4.017 -2.4694  0.6569  2.0303
13440TIP3    H261812   6.232   2.635   4.166  2.8883 -0.0359  1.8257
13441TIP3   OH261813   1.463   2.905   0.069 -0.6281 -0.6230 -0.2163
13441TIP3    H161814   1.531   2.918   0.002 -0.4664 -0.2053  0.0248
13441TIP3    H261815   1.382   2.929   0.025 -0.4224  0.4750 -0.0125
13442TIP3   OH261816   3.378   3.535  15.567  0.5003 -0.4680  0.1558
13442TIP3    H161817   3.447   3.493  15.618 -0.8673  0.1345  2.6701
13442TIP3    H261818   3.297   3.495  15.600 -0.4441 -0.3045 -1.8498
13443TIP3   OH261819   0.890   3.901   1.723  0.1097 -0.7707 -0.2126
13443TIP3    H161820   0.968   3.848   1.742 -0.3441 -1.2945  0.2414
13443TIP3    H261821   0.881   3.958   1.799 -0.5933 -1.5080  0.2743
13444TIP3   OH261822   5.180   0.726  12.821  0.0192 -0.5749  0.2214
13444TIP3    H161823   5.132   0.792  12.870 -0.1446 -1.2976  1.0472
13444TIP3    H261824   5.136   0.643  12.842  0.3681 -0.9881 -0.6096
13445TIP3   OH261825   6.624   4.909  16.868  0.4508  0.1264  0.2543
13445TIP3    H161826   6.582   4.989  16.836  0.8549  0.0883 -0.3730
13445TIP3    H261827   6.717   4.932  16.874  0.7110 -0.5940 -0.8700
13446TIP3   OH261828   2.069   6.252  12.264 -0.9051 -0.3448 -0.0669
13446TIP3    H161829   2.126   6.210  12.200 -0.5111  1.5290 -1.0023
13446TIP3    H261830   2.128   6.307  12.315 -1.1062 -2.1702  2.3540
13447TIP3   OH261831   0.017   0.815  14.274 -0.5407 -0.1570 -0.7373
13447TIP3    H161832  -0.077   0.797  14.272 -0.2710 -1.8025 -0.0151
13447TIP3    H261833   0.052   0.767  14.199 -0.4008  1.4379 -1.7290
13448TIP3   OH261834   1.779   1.674  13.620  0.1515  0.0948 -0.5562
13448TIP3    H161835   1.751   1.745  13.562 -1.1018  1.2935  1.3936
13448TIP3    H261836   1.713   1.605  13.607 -0.2545  0.4500 -0.4196
13449TIP3   OH261837   2.090   5.294   2.553  0.1787 -0.1581  0.0408
13449TIP3    H161838   2.138   5.252   2.482  1.1344  0.4539  0.3064
13449TIP3    H261839   2.097   5.233   2.626  0.9953  0.1397  0.2261
13450TIP3   OH261840   5.642   5.246  11.923  0.0210 -0.3687  0.4388
13450TIP3    H161841   5.651   5.203  12.008 -2.0992 -0.6998  0.5551
13450TIP3    H261842   5.667   5.178  11.860 -0.3317 -0.7918  0.7427
13451TIP3   OH261843   2.831   5.658   5.030  0.1231 -0.0770  0.3143
13451TIP3    H161844   2.750   5.647   4.979 -0.3176  0.7598  0.8136
13451TIP3    H261845   2.804   5.706   5.108  1.0025 -0.3275  0.7831
13452TIP3   OH261846   4.441   3.808  15.601  1.1365  0.1538  0.1917
13452TIP3    H161847   4.462   3.718  15.578 -2.2394 -0.9984  1.0876
13452TIP3    H261848   4.404   3.845  15.521  1.2491  0.3113  0.2116
13453TIP3   OH261849   5.874   2.537  13.932  0.3812 -0.4178  0.1056
13453TIP3    H161850   5.893   2.452  13.972 -1.1272  0.5235  3.0999
13453TIP3    H261851   5.816   2.516  13.858  1.0412 -2.0508  0.0171
13454TIP3   OH261852   1.220   3.363   0.407  0.3829  0.3085  0.1872
13454TIP3    H161853   1.211   3.279   0.364 -0.2574 -0.2776  1.4148
13454TIP3    H261854   1.134   3.405   0.398  1.3751  1.9633 -2.5981
13455TIP3   OH261855   2.041   3.546  13.413 -0.1493 -0.4440  0.1440
13455TIP3    H161856   2.075   3.615  13.470  0.4246 -1.2309  0.7757
13455TIP3    H261857   1.949   3.538  13.437 -1.4606  2.9198 -2.7746
13456TIP3   OH261858   1.355   6.253  13.208  0.0281  0.6839  0.1934
13456TIP3    H161859   1.446   6.244  13.179 -0.5604 -0.4186 -1.4279
13456TIP3    H261860   1.322   6.328  13.160 -0.4528 -0.0826 -0.6916
13457TIP3   OH261861   3.741   6.147  14.605 -0.1148  0.4052  0.0872
13457TIP3    H161862   3.697   6.133  14.521 -0.3593 -1.8858  0.5350
13457TIP3    H261863   3.806   6.077  14.610 -0.3444  0.2879  1.9525
13458TIP3   OH261864   0.558   1.473   2.712  0.2563 -0.4633  0.1360
13458TIP3    H161865   0.594   1.487   2.624  0.0575 -1.5259 -0.1364
13458TIP3    H261866   0.570   1.556   2.757  0.5162  0.0433 -0.8474
13459TIP3   OH261867   3.064   2.993   0.396 -0.4028 -0.5939  0.6440
13459TIP3    H161868   3.145   3.044   0.388 -1.6749  1.1969 -2.7187
13459TIP3    H261869   3.027   3.020   0.480 -0.0494  2.6780 -0.1157
13460TIP3   OH261870   1.580   0.313   2.718  0.7403  0.3654  0.3951
13460TIP3    H161871   1.606   0.267   2.638 -0.8359  1.2567 -0.6763
13460TIP3    H261872   1.532   0.248   2.769 -0.2168  0.3989 -0.4443
13461TIP3   OH261873   6.406   3.661   3.806  0.1610 -0.4158 -0.2410
13461TIP3    H161874   6.461   3.583   3.811  0.4560 -0.1310  1.8737
13461TIP3    H261875   6.391   3.674   3.712  3.3289 -0.7545 -0.9086
13462TIP3   OH261876   2.279   1.170   2.355 -0.1506  0.9828  0.1563
13462TIP3    H161877   2.350   1.232   2.372 -0.6046  0.9533  2.6189
13462TIP3    H261878   2.204   1.207   2.403 -1.1828 -0.0826 -0.5922
13463TIP3   OH261879   4.736   4.347  13.966  0.1534 -0.3913  0.4004
13463TIP3    H161880   4.794   4.275  13.992  0.4686 -1.2239 -2.2900
13463TIP3    H261881   4.648   4.314  13.984  0.3143 -1.3512 -0.4805
13464TIP3   OH261882   0.075   3.168   1.603 -0.3895  0.0506 -0.0127
13464TIP3    H161883   0.165   3.201   1.606 -0.5032  0.3061  0.9147
13464TIP3    H261884   0.037   3.195   1.686 -0.4180 -2.6840  0.9314
13465TIP3   OH261885   2.645   3.190  12.517 -0.4050 -0.5622 -0.3454
13465TIP3    H161886   2.602   3.151  12.593 -1.3024  0.4803 -0.2957
13465TIP3    H261887   2.596   3.157  12.442 -1.7465  1.1039 -0.2575
13466TIP3   OH261888   5.134   1.088  14.127 -0.2677 -0.4627 -0.3681
13466TIP3    H161889   5.129   1.161  14.189  0.9524  0.0480 -0.8513
13466TIP3    H261890   5.174   1.017  14.176  1.0483  0.0615 -0.6579
13467TIP3   OH261891   2.271   4.669  15.547 -0.1480  0.0753 -0.0346
13467TIP3    H161892   2.277   4.612  15.624 -0.6027  0.9327  0.6461
13467TIP3    H261893   2.204   4.628  15.492 -1.2442  0.5061  0.9463
13468TIP3   OH261894   2.348   4.265   5.180 -0.1405 -0.5042 -0.4170
13468TIP3    H161895   2.262   4.223   5.187 -0.9688  0.7275 -2.3268
13468TIP3    H261896   2.402   4.202   5.133 -0.2037 -0.9934  0.1572
13469TIP3   OH261897   6.028   6.259  11.932  0.3967 -0.1367 -0.1260
13469TIP3    H161898   5.991   6.172  11.918 -0.7364  0.1540  0.8891
13469TIP3    H261899   5.952   6.317  11.940  1.1137  0.8435 -0.1452
13470TIP3   OH261900   3.072   3.901   2.033 -0.1476  0.0911 -0.7593
13470TIP3    H161901   3.031   3.960   2.097  2.7996  0.8141  0.6301
13470TIP3    H261902   3.086   3.956   1.956 -0.0199  0.3927 -0.5262
13471TIP3   OH261903   5.944   3.410   1.848 -0.1452 -0.5850  0.1678
13471TIP3    H161904   5.849   3.415   1.839 -0.4877 -0.0032  3.1814
13471TIP3    H261905   5.959   3.344   1.916  1.5268  0.4847  0.9034
13472TIP3   OH261906   5.280   0.593  16.249  0.6591  0.3105  0.3190
13472TIP3    H161907   5.257   0.679  16.212  3.3563  1.1444  0.3081
13472TIP3    H261908   5.340   0.555  16.184  2.2770  0.0185  1.9172
13473TIP3   OH261909   3.928   6.226  16.620 -0.3777  0.0553 -0.1479
13473TIP3    H161910   3.991   6.295  16.602 -1.1341  0.6465 -0.5946
13473TIP3    H261911   3.867   6.230  16.547 -0.9802 -0.4480  0.3175
13474TIP3   OH261912   6.169   6.377  11.284  0.4297  0.5392 -0.1623
13474TIP3    H161913   6.198   6.325  11.209  2.4389  1.6453 -0.2239
13474TIP3    H261914   6.148   6.463  11.248 -0.3389  0.5636  0.3071
13475TIP3   OH261915   4.909   5.975  14.869 -0.5549  0.0558 -0.7671
13475TIP3    H161916   4.872   5.887  14.869 -0.5952  0.0247  1.2858
13475TIP3    H261917   4.973   5.974  14.940  0.6614  1.2182 -1.7951
13476TIP3   OH261918   4.351   1.623   3.638 -0.1000 -0.6781 -0.5156
13476TIP3    H161919   4.362   1.605   3.732 -0.0342 -1.7269 -0.7065
13476TIP3    H261920   4.426   1.677   3.615 -0.4416  0.1067  0.1577
13477TIP3   OH261921   6.349   6.646   4.409 -0.0839  0.2260 -0.2591
13477TIP3    H161922   6.308   6.565   4.441 -0.8364  1.2291  1.4596
13477TIP3    H261923   6.307   6.662   4.324  1.0999 -1.8840 -1.3388
13478TIP3   OH261924   1.259   4.623  11.947  0.3967  0.0398  0.5694
13478TIP3    H161925   1.230   4.536  11.919 -1.4754  0.8192 -0.1278
13478TIP3    H261926   1.252   4.622  12.043  1.3694 -0.8786  0.6379
13479TIP3   OH261927   4.972   5.229  11.171 -0.5628  0.4022 -0.5567
13479TIP3    H161928   5.031   5.168  11.215  0.3607  1.3816 -0.4080
13479TIP3    H261929   4.947   5.184  11.090 -2.1594 -1.3631  0.8137
13480TIP3   OH261930   0.636   3.874  14.470 -0.0903  0.4014  0.3011
13480TIP3    H161931   0.634   3.817  14.394  1.5825  0.9916 -0.2316
13480TIP3    H261932   0.544   3.883  14.496 -0.5273 -1.2447 -0.5336
13481TIP3   OH261933   3.736   1.397   1.265  0.1971  0.2598  0.3981
13481TIP3    H161934   3.659   1.427   1.218  0.3061  1.3061  0.8739
13481TIP3    H261935   3.790   1.475   1.277  0.9351 -0.2961  0.8207
13482TIP3   OH261936   5.852   6.178  10.271  0.4732 -0.7918  0.0401
13482TIP3    H161937   5.882   6.120  10.340  1.9278  0.1721  0.2649
13482TIP3    H261938   5.768   6.141  10.243 -0.9675 -0.3498  3.3396
13483TIP3   OH261939   1.070   5.409  11.416  0.3624 -0.1265 -0.3314
13483TIP3    H161940   1.139   5.345  11.432 -1.4740 -1.7610  1.5336
13483TIP3    H261941   1.051   5.447  11.502 -0.9410  0.4191 -0.8294
13484TIP3   OH261942   4.037   4.444  10.896 -0.2134 -0.1773  0.1864
13484TIP3    H161943   3.972   4.441  10.967  0.7709  1.4295  1.2138
13484TIP3    H261944   4.108   4.386  10.926  0.9775  1.7925  1.4045
13485TIP3   OH261945   3.510   6.595   1.829 -0.3133 -0.3060  1.4373
13485TIP3    H161946   3.501   6.528   1.896 -1.2660 -0.7796  0.8503
13485TIP3    H261947   3.473   6.674   1.868  0.3826 -0.2280  1.9551
13486TIP3   OH261948   2.361   0.656  17.024  0.6428  0.3353  0.3544
13486TIP3    H161949   2.285   0.647  17.081  0.6076  0.9078  0.4039
13486TIP3    H261950   2.330   0.711  16.952  0.3313 -1.3512 -0.8666
13487TIP3   OH261951   5.121   2.579   0.770  0.7890 -0.5932  0.2755
13487TIP3    H161952   5.088   2.667   0.749 -0.3814 -1.5143 -2.1409
13487TIP3    H261953   5.057   2.520   0.730  1.9306 -2.5485  1.2183
13488TIP3   OH261954   5.044   2.563  13.594 -0.3810 -0.5387  0.4748
13488TIP3    H161955   4.957   2.528  13.611 -1.6758  1.3042 -1.8569
13488TIP3    H261956   5.029   2.654  13.568  2.2741 -0.0858  0.2457
13489TIP3   OH261957   2.635   6.153   2.686  0.0659  0.4554  0.0704
13489TIP3    H161958   2.582   6.135   2.608 -0.7857  0.1248  0.7113
13489TIP3    H261959   2.614   6.244   2.708  0.1462  0.4824  0.0356
13490TIP3   OH261960   4.764   0.086   3.001  1.1611 -0.1072 -0.7888
13490TIP3    H161961   4.680   0.090   3.047  1.0555  0.2219 -1.0106
13490TIP3    H261962   4.751   0.020   2.933  1.4907 -1.0037 -0.0044
13491TIP3   OH261963   5.376   5.879   0.116  0.9558 -0.1660 -0.2635
13491TIP3    H161964   5.438   5.857   0.047  0.5696  0.1391 -0.7206
13491TIP3    H261965   5.294   5.897   0.069  0.2721 -1.4490  0.3831
13492TIP3   OH261966   2.174   2.452  11.544  0.5949  0.3698 -0.4571
13492TIP3    H161967   2.188   2.365  11.581 -3.6403 -0.1959  0.2475
13492TIP3    H261968   2.227   2.510  11.600 -2.0810 -0.9698  3.9616
13493TIP3   OH261969   2.695   3.555   2.466  0.7028 -0.7244 -0.1269
13493TIP3    H161970   2.621   3.533   2.522  1.6100 -1.3627  0.8474
13493TIP3    H261971   2.683   3.503   2.387  0.7646 -1.7767  0.5487
13494TIP3   OH261972   6.123   6.012  11.748  0.0643 -0.0688  0.2227
13494TIP3    H161973   6.206   6.006  11.700 -0.7399  2.1179 -1.6229
13494TIP3    H261974   6.059   5.972  11.690 -0.4176 -0.4074  0.9773
13495TIP3   OH261975   2.339   5.438  16.151 -0.0043  0.0423  0.1018
13495TIP3    H161976   2.331   5.418  16.245  1.7265  1.8364  0.7139
13495TIP3    H261977   2.250   5.458  16.123 -0.4275  0.4658  1.6480
13496TIP3   OH261978   5.947   0.061   0.008  0.8990  0.2138 -0.6609
13496TIP3    H161979   5.890   0.075   0.083  0.5503  0.2988 -0.9395
13496TIP3    H261980   5.891   0.016  -0.057 -0.0131  3.5801 -2.4207
13497TIP3   OH261981   3.902   4.948  16.126  0.1282  0.2725 -0.1169
13497TIP3    H161982   3.995   4.932  16.142  0.3380  0.9942 -0.5440
13497TIP3    H261983   3.884   4.905  16.043 -0.0876 -0.4395  0.2951
13498TIP3   OH261984   2.280   4.232   0.089  0.5295  0.5458 -0.0199
13498TIP3    H161985   2.327   4.165   0.137  1.5831  0.4205 -1.1835
13498TIP3    H261986   2.189   4.222   0.117  1.1507  0.9338  2.4390
13499TIP3   OH261987   4.476   0.557  16.131 -0.3928  0.7006  0.2870
13499TIP3    H161988   4.524   0.473  16.128 -0.5538  0.5999  0.5401
13499TIP3    H261989   4.475   0.586  16.040 -1.1292 -0.0275  0.0502
13500TIP3   OH261990   0.696   2.248  14.288 -0.2400 -0.3944  0.0931
13500TIP3    H161991   0.690   2.157  14.318  1.1377 -0.5446 -0.0010
13500TIP3    H261992   0.742   2.242  14.205 -0.8779  0.3339 -0.3251
13501TIP3   OH261993   0.677   6.411  15.322  0.1593 -0.8807  0.1389
13501TIP3    H161994   0.744   6.345  15.336  0.3623 -1.3401 -2.5159
13501TIP3    H261995   0.596   6.373  15.358  0.3001 -2.5313 -1.2188
13502TIP3   OH261996   4.599   2.820   4.777 -0.1309 -0.4330 -0.6410
13502TIP3    H161997   4.541   2.805   4.702  0.7258 -0.0649 -1.3897
13502TIP3    H261998   4.556   2.774   4.850 -0.7423 -1.1882 -1.4586
13503TIP3   OH261999   2.688   3.861  11.853 -0.4761  0.1906 -0.7772
13503TIP3    H162000   2.719   3.773  11.875 -0.3758  0.5969  0.8590
13503TIP3    H262001   2.593   3.853  11.849 -0.6016  0.2947  1.0129
13504TIP3   OH262002   0.741   6.542  13.808 -0.5177 -0.0697  0.3046
13504TIP3    H162003   0.670   6.481  13.825 -1.5289  0.9918  0.0465
13504TIP3    H262004   0.792   6.543  13.889  0.3866 -2.3240 -0.1901
13505TIP3   OH262005   1.443   1.955  15.482 -0.2841 -0.7097 -0.3659
13505TIP3    H162006   1.529   1.918  15.464  0.0089  0.0855 -0.6700
13505TIP3    H262007   1.459   2.049  15.491 -0.7766 -0.7737  1.7667
13506TIP3   OH262008   0.943   0.832   2.587 -0.3418 -0.3315 -0.1914
13506TIP3    H162009   0.917   0.752   2.633  0.2313  0.0525  0.8289
13506TIP3    H262010   0.972   0.802   2.501 -0.9575 -1.1242 -0.1282
13507TIP3   OH262011   6.650   1.248  16.311 -0.1116 -0.2716 -0.3199
13507TIP3    H162012   6.730   1.299  16.297 -0.2568 -0.3430 -1.4358
13507TIP3    H262013   6.672   1.189  16.384 -0.2696  2.0393  1.7369
13508TIP3   OH262014   0.049   1.389  13.252 -0.5718 -0.0073  0.0397
13508TIP3    H162015   0.095   1.324  13.198 -2.3542 -0.6225 -0.8185
13508TIP3    H262016   0.119   1.440  13.293  0.8622 -0.3975 -1.7891
13509TIP3   OH262017   0.741   0.565  14.477 -0.3466  0.5253  0.7041
13509TIP3    H162018   0.698   0.551  14.561  0.4240  1.0354  1.2038
13509TIP3    H262019   0.769   0.477  14.450 -0.8773  0.3164  0.8205
13510TIP3   OH262020   3.512   4.087  11.438  0.1652  0.1563 -0.1601
13510TIP3    H162021   3.429   4.080  11.484  0.6741 -1.6126  0.5470
13510TIP3    H262022   3.497   4.156  11.373 -1.0742  1.6052  1.5467
13511TIP3   OH262023   3.511   4.095  16.757 -0.1640 -0.1977 -0.1699
13511TIP3    H162024   3.506   4.135  16.670  0.8092  0.4297  0.0471
13511TIP3    H262025   3.423   4.060  16.772 -0.2365 -0.6909 -1.5732
13512TIP3   OH262026   0.714   5.938   5.711  1.1805  0.2036  0.7214
13512TIP3    H162027   0.785   5.989   5.749  0.0168  0.3666  2.8505
13512TIP3    H262028   0.673   5.894   5.786 -0.3597 -0.6396 -0.5449
13513TIP3   OH262029   5.560   6.050  14.121  0.1790 -0.1616  0.1560
13513TIP3    H162030   5.508   6.120  14.081 -0.1892  0.7217  2.0673
13513TIP3    H262031   5.649   6.066  14.092  0.1082  1.1596  0.6337
13514TIP3   OH262032   0.585   5.078  10.903 -0.4435  0.5032 -0.4430
13514TIP3    H162033   0.648   5.147  10.922  2.5384 -2.2138  0.5971
13514TIP3    H262034   0.597   5.058  10.810 -2.0983  1.9802 -1.0270
13515TIP3   OH262035   0.100   5.549  14.725 -0.3333  0.4413 -0.4169
13515TIP3    H162036   0.033   5.501  14.677  0.0939  0.5335 -1.1083
13515TIP3    H262037   0.126   5.620  14.667 -2.1597  2.6055  1.2137
13516TIP3   OH262038   1.977   0.472   1.777 -0.2612  0.8013  0.7332
13516TIP3    H162039   1.886   0.503   1.779 -0.1749  1.1302 -0.0443
13516TIP3    H262040   2.026   0.545   1.740  0.3046  0.5787  1.0355
13517TIP3   OH262041   0.742   6.273   1.519  0.0623  0.3869 -0.3770
13517TIP3    H162042   0.763   6.201   1.578  4.2944 -0.4873 -2.5624
13517TIP3    H262043   0.735   6.349   1.576  0.8009 -0.8910  1.5217
13518TIP3   OH262044   1.802   3.807  14.651  1.1347 -0.1970 -0.2317
13518TIP3    H162045   1.716   3.766  14.655  1.4734 -0.8562  2.4232
13518TIP3    H262046   1.788   3.888  14.603 -1.5158  0.7852  1.9481
13519TIP3   OH262047   0.050   5.072   5.131 -0.4053 -0.5470  0.0675
13519TIP3    H162048   0.006   5.063   5.046  0.6712  0.9861 -0.7153
13519TIP3    H262049  -0.012   5.119   5.186 -0.2567  0.5297 -0.6470
13520TIP3   OH262050   2.145   3.172  16.210 -0.2382  0.0809  0.1349
13520TIP3    H162051   2.118   3.096  16.260 -0.8066  0.5744  0.5881
13520TIP3    H262052   2.184   3.136  16.130 -0.3734 -0.6805  0.4123
13521TIP3   OH262053   1.859   0.101  15.943  0.5655 -0.3065  0.5388
13521TIP3    H162054   1.771   0.104  15.907  1.0437 -0.1047 -0.6358
13521TIP3    H262055   1.896   0.187  15.923  1.8108 -1.1653 -1.0084
13522TIP3   OH262056   0.852   1.752   1.307  0.1892  0.2685 -0.1049
13522TIP3    H162057   0.798   1.710   1.374 -0.6378  0.5736 -0.5644
13522TIP3    H262058   0.825   1.710   1.225 -0.7741  1.7810 -0.6008
13523TIP3   OH262059   5.736   4.214   4.179  0.0299 -0.1949  0.0052
13523TIP3    H162060   5.744   4.187   4.088  0.0093 -0.3017  0.0344
13523TIP3    H262061   5.804   4.280   4.191 -0.8692  0.8419 -0.4633
13524TIP3   OH262062   5.780   5.842   0.053 -0.3204  0.0848 -0.0932
13524TIP3    H162063   5.767   5.751   0.079 -2.3571  0.0074 -1.1524
13524TIP3    H262064   5.862   5.842   0.003  0.3960 -0.8830  1.0500
13525TIP3   OH262065   5.048   0.689  13.579  0.5728  0.4026 -0.0289
13525TIP3    H162066   5.071   0.776  13.611  1.9216  0.1705 -0.2826
13525TIP3    H262067   5.015   0.643  13.657 -2.3077  1.7699 -0.3237
13526TIP3   OH262068   4.172   5.967   3.446  0.1894  0.2420  0.7048
13526TIP3    H162069   4.235   5.931   3.509 -0.7627  0.2510  1.7067
13526TIP3    H262070   4.093   5.915   3.461  0.3131 -0.6500 -1.4350
13527TIP3   OH262071   4.087   0.940  12.290  0.8504 -0.5120 -0.5199
13527TIP3    H162072   4.028   1.004  12.331 -0.8199 -1.4227 -1.4014
13527TIP3    H262073   4.171   0.954  12.334  0.1827  1.3115  0.3019
13528TIP3   OH262074   4.027   0.719   4.349 -0.6602 -0.0229 -0.1762
13528TIP3    H162075   4.060   0.759   4.429 -1.6079  0.3278  0.0555
13528TIP3    H262076   4.062   0.629   4.350  0.2684  0.3290  0.0397
13529TIP3   OH262077   3.256   2.978   0.166 -0.2332 -0.1893  0.5553
13529TIP3    H162078   3.279   2.999   0.076  2.2744  0.0531  1.1594
13529TIP3    H262079   3.192   2.908   0.159 -0.4759  0.1743 -1.4051
13530TIP3   OH262080   5.808   5.792   1.536 -0.3139  0.2517  0.5856
13530TIP3    H162081   5.813   5.847   1.614  1.8889 -0.6665  1.1900
13530TIP3    H262082   5.737   5.829   1.484 -1.1305  1.5459  2.5234
13531TIP3   OH262083   3.446   0.916  11.268  0.0142 -0.5687 -0.2618
13531TIP3    H162084   3.421   0.860  11.342 -1.7288 -0.4518 -0.7228
13531TIP3    H262085   3.399   0.998  11.283  0.9399  0.0533 -0.6613
13532TIP3   OH262086   5.047   6.013   2.323 -0.3394  0.2521  0.3493
13532TIP3    H162087   4.989   5.940   2.299  1.6178 -1.2308 -0.1472
13532TIP3    H262088   5.023   6.083   2.262 -0.9586 -0.6512 -0.4821
13533TIP3   OH262089   0.197   0.305  16.819  0.2385 -0.0947  0.0746
13533TIP3    H162090   0.160   0.219  16.799 -0.2078  0.4848 -1.8442
13533TIP3    H262091   0.269   0.315  16.757  0.3111  0.8874  0.2938
13534TIP3   OH262092   4.094   0.855   1.847 -0.8075  0.0186  0.0993
13534TIP3    H162093   4.106   0.947   1.870 -0.6986  0.2426 -0.8117
13534TIP3    H262094   4.183   0.821   1.836 -0.8449 -0.2175  0.5143
13535TIP3   OH262095   3.839   2.113  15.748 -0.0311  0.0039 -0.0001
13535TIP3    H162096   3.878   2.062  15.819 -0.7583  1.0384  1.1814
13535TIP3    H262097   3.745   2.105  15.762 -0.1592  1.4344  0.0531
13536TIP3   OH262098   6.588   3.382   1.237 -0.0282  0.0665  0.1150
13536TIP3    H162099   6.543   3.462   1.211 -0.3367 -0.1762 -0.0976
13536TIP3    H262100   6.630   3.350   1.157  0.8020  0.4708  0.3846
13537TIP3   OH262101   0.278   6.723   6.620  0.1815  0.0734 -0.1343
13537TIP3    H162102   0.359   6.765   6.646  0.1225  0.8471 -1.1481
13537TIP3    H262103   0.250   6.674   6.697  1.2716  0.3178  0.4256
13538TIP3   OH262104   0.339   5.135   3.711 -0.0135 -0.2469  0.2331
13538TIP3    H162105   0.302   5.216   3.674  0.0458 -0.0161  0.6807
13538TIP3    H262106   0.388   5.164   3.787  0.1246 -0.6936  0.3118
13539TIP3   OH262107   5.353   2.701  11.961  0.3631 -0.1176  0.0396
13539TIP3    H162108   5.365   2.796  11.961 -0.9377  0.0910 -1.3358
13539TIP3    H262109   5.406   2.670  11.888 -0.9216 -0.1574 -0.9061
13540TIP3   OH262110   1.016   5.386   4.292  0.5322 -0.2337 -0.4586
13540TIP3    H162111   1.093   5.440   4.275 -1.0261  1.0945 -4.3864
13540TIP3    H262112   0.962   5.440   4.350  1.4255 -0.1561  0.3476
13541TIP3   OH262113   5.352   6.216   0.643 -0.2642  0.7674  0.2633
13541TIP3    H162114   5.429   6.194   0.696  0.3340 -2.1205 -1.5467
13541TIP3    H262115   5.387   6.236   0.556 -1.4869 -2.4509 -1.1267
13542TIP3   OH262116   4.065   0.217   1.578 -0.1569  0.0520 -0.1236
13542TIP3    H162117   4.030   0.300   1.546  0.8480  0.5280 -0.0368
13542TIP3    H262118   4.124   0.187   1.509  0.4065  0.0317  0.3496
13543TIP3   OH262119   0.178   1.737  16.443  0.4115  0.0052 -0.2004
13543TIP3    H162120   0.180   1.791  16.364 -0.1368  0.2514 -0.0510
13543TIP3    H262121   0.269   1.736  16.473  0.7283 -0.5093 -1.1099
13544TIP3   OH262122   2.656   1.514  11.124  0.1155  0.3120 -0.0603
13544TIP3    H162123   2.663   1.423  11.154  0.8039  0.9032  1.7419
13544TIP3    H262124   2.733   1.527  11.069  0.2335 -0.0802  0.0107
13545TIP3   OH262125   6.049   3.650  13.111  0.5480 -0.2346  0.0352
13545TIP3    H162126   6.009   3.682  13.192 -0.4585 -1.2806 -0.0090
13545TIP3    H262127   6.016   3.708  13.043 -0.1181 -0.4762  0.1415
13546TIP3   OH262128   4.741   6.323  11.016 -0.3661 -0.5627 -0.3679
13546TIP3    H162129   4.691   6.267  10.957  0.9537 -0.8662 -1.2511
13546TIP3    H262130   4.719   6.412  10.989 -0.5439 -0.6914 -0.6511
13547TIP3   OH262131   0.287   4.111   1.968  0.2531 -0.6112 -0.1204
13547TIP3    H162132   0.310   4.124   1.876 -1.2393 -0.9497 -0.5671
13547TIP3    H262133   0.256   4.021   1.973 -0.1498 -0.4375  0.6204
13548TIP3   OH262134   2.820   4.456   4.708  0.6793  0.1023  0.2988
13548TIP3    H162135   2.886   4.457   4.639 -0.2652 -1.6378 -0.7037
13548TIP3    H262136   2.869   4.439   4.789  1.5690 -0.0628 -0.2669
13549TIP3   OH262137   4.049   4.032   1.568  0.2660 -0.1947  0.0042
13549TIP3    H162138   4.038   4.000   1.478  0.1283  1.1145 -0.4620
13549TIP3    H262139   4.113   4.103   1.561 -0.3232  0.4453  0.8061
13550TIP3   OH262140   1.046   3.488  13.917  0.5635  0.0710 -0.3566
13550TIP3    H162141   0.956   3.508  13.893  1.1771  2.3970 -0.9546
13550TIP3    H262142   1.098   3.515  13.842  1.8062 -0.9167  0.1114
13551TIP3   OH262143   2.229   6.606  11.672 -0.1183 -0.1127  0.2841
13551TIP3    H162144   2.133   6.608  11.670 -0.1954 -1.0872  1.6790
13551TIP3    H262145   2.250   6.545  11.742  1.5336  1.0863  0.8895
13552TIP3   OH262146   5.213   5.482   5.421  0.1677 -0.5248  0.0670
13552TIP3    H162147   5.294   5.532   5.427 -1.2921  2.4706 -2.3566
13552TIP3    H262148   5.151   5.531   5.476 -1.4420  0.8879 -2.7820
13553TIP3   OH262149   3.514   4.324  15.864  0.2785 -0.0562 -0.2027
13553TIP3    H162150   3.449   4.277  15.812 -1.0252  1.1693  0.2827
13553TIP3    H262151   3.527   4.269  15.941 -1.0519  0.2460  0.2477
13554TIP3   OH262152   0.502   3.093   0.844  0.1167 -0.5368 -0.2814
13554TIP3    H162153   0.497   3.168   0.784 -1.7086 -0.9056 -0.6394
13554TIP3    H262154   0.490   3.017   0.788 -1.2818 -0.9121  0.4919
13555TIP3   OH262155   3.430   1.680  11.319 -0.2296  0.2753  0.2275
13555TIP3    H162156   3.338   1.658  11.332 -0.8976  2.2659 -0.8078
13555TIP3    H262157   3.444   1.673  11.224  0.8274 -0.4534  0.4148
13556TIP3   OH262158   0.941   3.176   0.481  0.5416  0.5395 -0.1256
13556TIP3    H162159   0.879   3.187   0.408  0.9412 -1.0417 -0.7547
13556TIP3    H262160   0.894   3.121   0.544  0.4348  1.3758  0.5484
13557TIP3   OH262161   3.428   4.122  13.768  0.1980 -0.1312  0.0443
13557TIP3    H162162   3.496   4.146  13.706 -1.2866  0.5659 -1.4003
13557TIP3    H262163   3.474   4.076  13.838  2.0933  0.1155 -0.9796
13558TIP3   OH262164   4.889   5.313  15.517  0.0098 -0.5345  0.1848
13558TIP3    H162165   4.903   5.219  15.521  1.3362 -0.3102  2.3339
13558TIP3    H262166   4.976   5.351  15.515 -0.4435  0.6632  1.3396
13559TIP3   OH262167   1.182   4.885  15.795 -0.5037 -0.1364  0.2687
13559TIP3    H162168   1.143   4.863  15.880 -0.7544 -1.0845 -0.0700
13559TIP3    H262169   1.202   4.978  15.801 -0.2775 -0.2407  1.4628
13560TIP3   OH262170   1.506   4.896  13.745 -0.1510  0.4241 -0.0497
13560TIP3    H162171   1.534   4.971  13.798 -0.2427  1.2909 -1.1679
13560TIP3    H262172   1.584   4.841  13.738  0.3861  1.2111 -0.4936
13561TIP3   OH262173   6.459   2.195  16.980  0.5326  0.0950 -0.1393
13561TIP3    H162174   6.442   2.158  16.894  0.1464 -1.4867  0.5897
13561TIP3    H262175   6.517   2.132  17.022 -1.9027 -0.9313  1.9532
13562TIP3   OH262176   3.174   2.567  14.707  0.0412 -0.0900 -0.0915
13562TIP3    H162177   3.115   2.538  14.638 -0.4262  2.0998 -0.6946
13562TIP3    H262178   3.220   2.488  14.734 -1.9411 -1.5561 -0.7763
13563TIP3   OH262179   6.266   5.595   0.009  0.0782 -0.2471 -0.1165
13563TIP3    H162180   6.315   5.642   0.076  1.1170 -0.0274 -1.0100
13563TIP3    H262181   6.246   5.660  -0.058 -1.0566 -0.4369  0.0089
13564TIP3   OH262182   6.691   5.540   5.158 -0.4390 -0.3147  0.5468
13564TIP3    H162183   6.694   5.626   5.199  0.5634 -0.1560  0.1802
13564TIP3    H262184   6.781   5.524   5.129 -1.0115 -0.5869 -1.2195
13565TIP3   OH262185   4.577   2.357   0.322  0.0209 -0.2048  0.5115
13565TIP3    H162186   4.604   2.303   0.396 -3.2364 -1.0511  1.2446
13565TIP3    H262187   4.574   2.297   0.248  0.7303  0.0553  0.2568
13566TIP3   OH262188   4.517   5.481  15.558  0.1229  0.1386  0.2087
13566TIP3    H162189   4.562   5.559  15.589 -0.3260  0.6427 -0.3828
13566TIP3    H262190   4.575   5.445  15.491  0.2659  0.0413  0.3845
13567TIP3   OH262191   6.504   1.158  11.181 -0.3470  0.0728  0.0388
13567TIP3    H162192   6.527   1.094  11.114  1.1791  0.8136 -0.2016
13567TIP3    H262193   6.513   1.243  11.137  1.9625  0.6488  1.4428
13568TIP3   OH262194   1.997   0.605  13.210 -0.0089 -0.0393  0.5356
13568TIP3    H162195   1.953   0.610  13.124 -0.2523  0.6911  0.6888
13568TIP3    H262196   2.090   0.607  13.189 -0.0532 -0.7106  0.2485
13569TIP3   OH262197   2.392   4.391   2.091 -0.1842  0.2005 -0.2798
13569TIP3    H162198   2.323   4.447   2.055 -1.5235 -1.2138 -0.0366
13569TIP3    H262199   2.380   4.306   2.047  2.0764  0.1642 -0.9823
13570TIP3   OH262200   6.002   3.076   1.923 -0.4111 -0.4689  0.1512
13570TIP3    H162201   5.972   2.996   1.966 -3.6965 -0.0174 -1.0380
13570TIP3    H262202   5.990   3.059   1.830  0.6773  0.7605 -0.2511
13571TIP3   OH262203   5.636   6.511   2.307 -0.0941 -0.4402 -0.3098
13571TIP3    H162204   5.660   6.600   2.279  1.9002 -0.2696  1.6715
13571TIP3    H262205   5.720   6.468   2.324 -0.9507 -3.1340 -2.2538
13572TIP3   OH262206   4.156   6.209   4.069 -0.1801 -0.1549  0.3246
13572TIP3    H162207   4.113   6.284   4.029 -0.6154  0.3552  1.6891
13572TIP3    H262208   4.129   6.211   4.161 -0.9359 -2.5121  0.2351
13573TIP3   OH262209   0.253   5.879  13.614 -0.1479 -0.0265  0.2338
13573TIP3    H162210   0.336   5.835  13.629 -0.0055 -0.0024 -0.4526
13573TIP3    H262211   0.187   5.810  13.628  0.0896 -0.5737 -1.2100
13574TIP3   OH262212   0.757   4.979  11.442  0.1930 -0.7308 -0.7826
13574TIP3    H162213   0.682   4.941  11.395 -1.2998 -0.5465  1.3296
13574TIP3    H262214   0.755   5.072  11.418 -1.7114 -0.2494  0.9502
13575TIP3   OH262215   1.910   0.446  11.556 -0.4088  0.2319 -0.0153
13575TIP3    H162216   1.913   0.354  11.583  1.2109  0.9049  2.3877
13575TIP3    H262217   1.817   0.465  11.546 -0.8959 -1.1322  1.4808
13576TIP3   OH262218   0.657   3.454  15.980 -0.3759 -0.0628 -0.3431
13576TIP3    H162219   0.692   3.474  15.893  0.5079 -0.5222 -0.1030
13576TIP3    H262220   0.629   3.539  16.014  0.1925  0.2712 -0.6835
13577TIP3   OH262221   1.815   2.215   2.172 -0.5179 -0.2125  0.3169
13577TIP3    H162222   1.846   2.288   2.225  0.6792 -1.9637  2.1753
13577TIP3    H262223   1.722   2.207   2.194 -0.2409 -0.3422  1.4924
13578TIP3   OH262224   5.011   4.427   4.287 -0.0119  0.3510 -0.2910
13578TIP3    H162225   5.055   4.366   4.228 -0.3283  0.6786 -0.8737
13578TIP3    H262226   4.944   4.374   4.330 -0.6313  0.3890 -1.1808
13579TIP3   OH262227   5.689   4.789   3.633 -0.2174  0.2717 -0.6342
13579TIP3    H162228   5.745   4.729   3.583 -1.6118  1.4809 -3.8928
13579TIP3    H262229   5.613   4.737   3.658  0.5361 -0.3663  0.4221
13580TIP3   OH262230   4.678   3.679   0.442 -0.8702 -0.4016 -0.4283
13580TIP3    H162231   4.734   3.755   0.426  0.1897 -0.9223  0.6376
13580TIP3    H262232   4.659   3.684   0.536 -1.4254 -1.0361 -0.5037
13581TIP3   OH262233   4.544   0.704  15.126 -0.0020  0.3535 -0.2939
13581TIP3    H162234   4.587   0.619  15.125  0.1098  0.3186  2.0932
13581TIP3    H262235   4.488   0.704  15.049  0.8963 -1.3868 -0.9937
13582TIP3   OH262236   5.861   4.357   4.719 -0.0652  0.3568  0.2775
13582TIP3    H162237   5.882   4.342   4.811 -2.4475  1.3110  1.0447
13582TIP3    H262238   5.770   4.387   4.719 -1.2778 -2.5860 -2.6078
13583TIP3   OH262239   3.433   2.005   1.416 -0.1870 -0.0653 -0.4748
13583TIP3    H162240   3.399   1.961   1.493 -0.1371  2.0382  0.8209
13583TIP3    H262241   3.528   1.994   1.422 -0.2245 -0.5291 -0.6594
13584TIP3   OH262242   4.948   0.344   1.270  0.6553  0.2026  0.2779
13584TIP3    H162243   5.016   0.399   1.231  0.4498  0.3172  0.0796
13584TIP3    H262244   4.908   0.299   1.196 -1.1062  1.9400  0.0698
13585TIP3   OH262245   1.701   4.024   6.393  0.4455 -0.1239 -0.5211
13585TIP3    H162246   1.666   4.111   6.372  0.6174 -0.4790 -2.4804
13585TIP3    H262247   1.792   4.041   6.419 -0.5604  0.6202  2.9419
13586TIP3   OH262248   4.417   6.772   0.310 -0.2964 -0.7188  0.4319
13586TIP3    H162249   4.325   6.751   0.327 -1.2248  1.0863 -1.8247
13586TIP3    H262250   4.463   6.742   0.388 -3.1357  0.6952  2.8762
13587TIP3   OH262251   0.680   6.021  14.517 -0.0528 -0.1020  0.2581
13587TIP3    H162252   0.770   5.991  14.526  0.1019  0.6238  1.4029
13587TIP3    H262253   0.627   5.943  14.531  0.3870 -0.6519 -0.9980
13588TIP3   OH262254   5.974   4.695  12.927  0.1204  0.2605  0.0309
13588TIP3    H162255   5.998   4.602  12.920 -4.2671 -1.0473 -1.0031
13588TIP3    H262256   5.977   4.713  13.021  1.2693 -0.8009  0.2360
13589TIP3   OH262257   0.472   6.533   4.085 -0.0363  0.2355  0.4375
13589TIP3    H162258   0.451   6.517   4.177 -0.5001  0.3824  0.3611
13589TIP3    H262259   0.463   6.628   4.075 -0.4172  0.1707  0.1381
13590TIP3   OH262260   4.402   1.289  15.487 -0.6321 -0.2997 -0.2520
13590TIP3    H162261   4.315   1.268  15.519 -0.2799 -0.2781  0.7585
13590TIP3    H262262   4.457   1.217  15.518 -0.1365  0.1154 -0.1571
13591TIP3   OH262263   6.035   5.055   2.999 -0.0976  0.1559 -0.0192
13591TIP3    H162264   5.971   5.079   2.932  0.0291  0.8156  0.0903
13591TIP3    H262265   6.114   5.032   2.949  0.5515  2.2935 -0.0690
13592TIP3   OH262266   4.215   6.504  14.036  0.0498  0.0393  0.5381
13592TIP3    H162267   4.124   6.520  14.061  0.2109  0.4053  0.9259
13592TIP3    H262268   4.213   6.421  13.988 -0.0778 -1.5762  3.1371
13593TIP3   OH262269   3.762   2.274  13.767  0.0045 -0.2600  0.3080
13593TIP3    H162270   3.719   2.195  13.801 -0.7678 -0.0257 -0.0965
13593TIP3    H262271   3.759   2.335  13.840 -0.6143 -0.1512  0.1982
13594TIP3   OH262272   6.251   0.472   2.962  0.2356 -0.5406  0.3449
13594TIP3    H162273   6.294   0.478   2.877 -1.5105  2.3292 -0.4366
13594TIP3    H262274   6.311   0.516   3.023 -0.2281  0.8483 -0.1774
13595TIP3   OH262275   0.781   1.272   0.111  0.1785  0.5569 -0.0964
13595TIP3    H162276   0.775   1.249   0.018 -1.8495  1.0212 -0.1358
13595TIP3    H262277   0.692   1.301   0.134  0.8193  1.1672  1.8023
13596TIP3   OH262278   5.171   6.430  16.636 -0.1908 -0.5241 -0.2623
13596TIP3    H162279   5.198   6.338  16.640  2.1604 -0.2063 -3.9062
13596TIP3    H262280   5.226   6.473  16.702 -1.6715 -1.6855  1.8439
13597TIP3   OH262281   6.326   1.936   5.958 -0.2737 -0.4963 -0.4957
13597TIP3    H162282   6.298   2.014   6.007  0.7201  0.5403 -1.5201
13597TIP3    H262283   6.363   1.971   5.877 -0.1837 -2.0768 -1.1578
13598TIP3   OH262284   5.691   4.641  17.233  1.1643 -0.3055 -0.0087
13598TIP3    H162285   5.749   4.705  17.274 -0.7686  1.6689 -0.1765
13598TIP3    H262286   5.628   4.694  17.183 -0.1583 -2.3737 -0.6645
13599TIP3   OH262287   2.959   1.894   3.929 -0.2378  0.3008  0.5401
13599TIP3    H162288   2.962   1.800   3.909 -3.7654  0.1805 -0.1486
13599TIP3    H262289   2.925   1.934   3.849  2.1423  2.4154  0.4540
13600TIP3   OH262290   2.713   0.667   1.423 -0.1567 -0.6082 -0.4071
13600TIP3    H162291   2.734   0.759   1.439  0.6489 -0.5809 -1.5079
13600TIP3    H262292   2.642   0.669   1.359 -1.0139 -0.7543  0.5154
13601TIP3   OH262293   4.920   1.219   0.325  0.3701  0.3095 -0.2249
13601TIP3    H162294   4.997   1.262   0.361 -0.0992  1.8659 -0.9822
13601TIP3    H262295   4.852   1.230   0.391  0.5822 -0.4169  0.1259
13602TIP3   OH262296   4.752   2.693  12.077 -0.7778 -0.0256  0.3388
13602TIP3    H162297   4.736   2.739  12.159 -1.8007 -1.2079  0.8302
13602TIP3    H262298   4.740   2.600  12.098 -1.4725 -0.3363 -1.2230
13603TIP3   OH262299   4.009   0.945  14.828 -0.3865  0.3868 -0.6062
13603TIP3    H162300   3.917   0.942  14.804 -0.5342  1.5278 -0.2096
13603TIP3    H262301   4.009   0.935  14.923 -0.0156 -0.6635 -0.6952
13604TIP3   OH262302   5.383   6.613   4.216 -0.3342  0.3567 -0.2681
13604TIP3    H162303   5.417   6.688   4.167 -0.3500  0.8488  0.4699
13604TIP3    H262304   5.293   6.602   4.183 -0.1497  0.3060 -0.7708
13605TIP3   OH262305   3.441   6.265   2.730 -0.4472 -0.4380 -0.7278
13605TIP3    H162306   3.467   6.354   2.706 -1.3251  0.1044  0.2354
13605TIP3    H262307   3.435   6.218   2.647  1.6938 -0.0947 -1.1314
13606TIP3   OH262308   5.324   2.147   5.408  0.6054 -0.0633 -0.2885
13606TIP3    H162309   5.383   2.210   5.448  0.8129  0.6714 -1.6993
13606TIP3    H262310   5.370   2.063   5.414  2.2411  0.6222 -2.1078
13607TIP3   OH262311   1.759   4.576  14.251  0.2663 -0.7768 -0.0336
13607TIP3    H162312   1.669   4.545  14.248 -0.3942  1.0778 -1.8775
13607TIP3    H262313   1.780   4.597  14.159  1.7631  1.0101  0.6498
13608TIP3   OH262314   2.371   4.340  16.710 -0.1270  0.0046 -0.6092
13608TIP3    H162315   2.348   4.391  16.788  2.4565  0.6269 -0.1376
13608TIP3    H262316   2.297   4.282  16.696 -1.5880  1.3586  1.0449
13609TIP3   OH262317   5.682   3.818  15.397  0.0554 -0.2399 -0.0423
13609TIP3    H162318   5.588   3.817  15.416  0.3644 -3.1185  2.0228
13609TIP3    H262319   5.723   3.795  15.480  2.4741 -0.9009 -1.3436
13610TIP3   OH262320   2.764   0.415  10.781  0.2705  0.3684 -0.3526
13610TIP3    H162321   2.847   0.369  10.772  0.2442 -0.1675  1.6383
13610TIP3    H262322   2.702   0.348  10.808 -0.0213  1.3086  1.4648
13611TIP3   OH262323   0.893   4.269  12.643 -0.7748  0.0424  0.2655
13611TIP3    H162324   0.800   4.266  12.619 -0.6918  1.3794 -0.3349
13611TIP3    H262325   0.896   4.333  12.714 -0.5943 -1.6596  1.8580
13612TIP3   OH262326   1.206   1.012   0.365  0.1393 -0.3422 -0.0353
13612TIP3    H162327   1.184   0.921   0.380 -0.6263 -0.5059 -1.8523
13612TIP3    H262328   1.129   1.049   0.322  0.3902  1.1960  0.7715
13613TIP3   OH262329   0.192   4.816   4.352 -0.0247 -0.1069  0.0847
13613TIP3    H162330   0.230   4.873   4.419  2.4568 -0.7346 -0.6832
13613TIP3    H262331   0.180   4.732   4.396  2.0254 -0.6504 -0.2704
13614TIP3   OH262332   5.281   4.547   5.127 -0.2023 -0.0704 -0.3521
13614TIP3    H162333   5.347   4.607   5.093 -0.5076  0.9124  0.7305
13614TIP3    H262334   5.257   4.583   5.212 -0.8647 -1.3855  0.0497
13615TIP3   OH262335   6.390   2.040  11.926 -0.1111 -0.4887  0.0245
13615TIP3    H162336   6.296   2.060  11.926 -0.0515 -0.0064 -1.5422
13615TIP3    H262337   6.401   1.976  11.855  0.9484  0.8109 -1.0558
13616TIP3   OH262338   0.579   4.175  15.544 -0.1377 -0.0019  0.5467
13616TIP3    H162339   0.552   4.083  15.551  1.1593 -0.7033 -2.2172
13616TIP3    H262340   0.647   4.185  15.610 -1.0068 -0.6914  1.5912
13617TIP3   OH262341   5.860   4.026   0.124  0.0991  0.0267 -0.5303
13617TIP3    H162342   5.795   3.971   0.080 -1.0977  0.6140  0.4729
13617TIP3    H262343   5.906   4.071   0.052  1.2111 -2.3212 -1.3938
13618TIP3   OH262344   1.961   1.924   0.616 -0.3034  0.3726  0.5128
13618TIP3    H162345   1.879   1.903   0.660  0.0003  0.7848  1.3119
13618TIP3    H262346   1.947   2.012   0.581 -0.5165  0.0766 -0.1618
13619TIP3   OH262347   0.502   1.914   1.611  0.6375 -0.0072 -0.3712
13619TIP3    H162348   0.511   1.863   1.692  1.2170 -0.0514 -0.4582
13619TIP3    H262349   0.467   1.998   1.639  4.6787  1.6143  0.5746
13620TIP3   OH262350   4.570   3.276  16.215  0.1000 -0.1790  0.0870
13620TIP3    H162351   4.503   3.330  16.257 -2.3158 -0.1760 -3.3922
13620TIP3    H262352   4.649   3.331  16.218 -1.1872  1.7657  0.3369
13621TIP3   OH262353   1.541   3.962  13.981 -0.6527 -0.1787 -0.3795
13621TIP3    H162354   1.594   3.891  13.943 -0.2070 -0.2670  0.3871
13621TIP3    H262355   1.601   4.036  13.987 -0.5404 -0.3407  0.6904
13622TIP3   OH262356   6.527   6.257   2.579  0.7714  0.2785  0.3121
13622TIP3    H162357   6.473   6.316   2.526  1.5225 -0.1056 -0.8907
13622TIP3    H262358   6.464   6.214   2.637  0.1934  2.1872  1.1858
13623TIP3   OH262359   4.267   2.404  11.359 -0.0354  0.0376 -0.3768
13623TIP3    H162360   4.185   2.355  11.357  0.5669 -1.1449  1.2031
13623TIP3    H262361   4.321   2.357  11.423  0.3310  3.2005  1.8887
13624TIP3   OH262362   0.498   6.589   5.771 -0.3556  0.1485 -0.3198
13624TIP3    H162363   0.533   6.589   5.682  1.1339  1.9173  0.2243
13624TIP3    H262364   0.566   6.547   5.824 -1.1048 -0.6218  0.0635
13625TIP3   OH262365   0.577   5.764  15.953  0.0480 -0.1182  0.5560
13625TIP3    H162366   0.517   5.750  16.025  1.2980  1.9566  2.1104
13625TIP3    H262367   0.657   5.718  15.979  0.7274  1.1884  0.8519
13626TIP3   OH262368   2.131   0.122   1.549  0.3872 -0.0430  0.0738
13626TIP3    H162369   2.062   0.149   1.611 -0.1988 -1.9850  0.3208
13626TIP3    H262370   2.144   0.199   1.494 -1.0151  0.8353  0.8981
13627TIP3   OH262371   2.706   0.659   4.492 -0.1861 -0.4710  0.1438
13627TIP3    H162372   2.639   0.593   4.474 -1.5050  1.2067 -1.4597
13627TIP3    H262373   2.657   0.734   4.526  1.3003 -0.3403  2.1752
13628TIP3   OH262374   1.189   5.652  17.080  0.2619 -0.2979 -0.8149
13628TIP3    H162375   1.255   5.622  17.143 -0.0005 -0.0237 -0.4006
13628TIP3    H262376   1.198   5.747  17.079 -1.8404  0.0215  1.2573
13629TIP3   OH262377   5.453   5.372  16.931  0.1106  0.1256  0.0265
13629TIP3    H162378   5.521   5.328  16.982  1.8705  2.1002 -0.4831
13629TIP3    H262379   5.373   5.322  16.950  1.1419 -0.6791  2.7930
13630TIP3   OH262380   3.562   2.714  16.199  0.0092  0.0349  0.5614
13630TIP3    H162381   3.646   2.756  16.185  0.1534 -0.3636  0.1982
13630TIP3    H262382   3.538   2.736  16.289  0.5522  0.0580  0.7012
13631TIP3   OH262383   4.373   4.509  16.854 -0.0919  0.0210 -0.3609
13631TIP3    H162384   4.423   4.567  16.913  0.2094  2.7651 -3.0546
13631TIP3    H262385   4.298   4.481  16.907  0.2530  2.1560  1.4537
13632TIP3   OH262386   3.621   0.723  13.582  0.0967 -0.0903 -0.0119
13632TIP3    H162387   3.554   0.655  13.575 -2.0287  1.8658  0.3509
13632TIP3    H262388   3.629   0.740  13.676  0.7795  0.0368 -0.0856
13633TIP3   OH262389   4.777   6.140   0.498  0.0837 -0.1139 -0.2292
13633TIP3    H162390   4.820   6.154   0.583 -1.1838 -2.2616  0.8599
13633TIP3    H262391   4.693   6.186   0.506  0.9094  1.6526 -1.2604
13634TIP3   OH262392   1.854   3.583  12.617  0.5436  0.4066  0.6402
13634TIP3    H162393   1.908   3.649  12.574 -2.3034  1.8045 -1.0906
13634TIP3    H262394   1.802   3.544  12.547  1.0076 -2.7018  1.8388
13635TIP3   OH262395   2.987   1.361  15.370  0.2301  0.6999 -0.1008
13635TIP3    H162396   2.938   1.351  15.452  0.9414 -0.4166  0.2142
13635TIP3    H262397   3.026   1.449  15.376 -1.0390  1.2780  0.0045
13636TIP3   OH262398   2.358   3.641   5.178 -0.0212 -0.2161 -0.0181
13636TIP3    H162399   2.329   3.596   5.257  0.6362 -1.0383 -0.2372
13636TIP3    H262400   2.333   3.583   5.106  1.0167 -0.3549 -0.2868
13637TIP3   OH262401   0.544   6.612   0.534 -0.0752  0.1318 -0.4069
13637TIP3    H162402   0.499   6.601   0.618 -0.4730  0.8169 -0.5237
13637TIP3    H262403   0.550   6.524   0.498  0.9529 -0.3048  0.7778
13638TIP3   OH262404   5.415   3.855  11.640  0.1647  0.4519  0.2073
13638TIP3    H162405   5.332   3.810  11.657 -0.3872  1.8583  1.5547
13638TIP3    H262406   5.455   3.807  11.568 -0.7439 -1.6629  1.0298
13639TIP3   OH262407   6.495   3.619  13.736  0.2976  0.0817 -0.2039
13639TIP3    H162408   6.481   3.527  13.715  0.5972 -0.0247  0.0469
13639TIP3    H262409   6.504   3.621  13.831  0.8892  0.2797 -0.2553
13640TIP3   OH262410   1.364   0.105   0.445  0.3042 -0.2179  0.2096
13640TIP3    H162411   1.297   0.075   0.507 -0.6173  0.2559 -0.5293
13640TIP3    H262412   1.431   0.037   0.446  0.7317  0.1555  2.3496
13641TIP3   OH262413   2.650   4.762   3.033  0.1037 -0.0797  0.0426
13641TIP3    H162414   2.584   4.829   3.049  0.1787  0.3475 -1.3659
13641TIP3    H262415   2.702   4.795   2.960  1.1727 -0.9278  0.3891
13642TIP3   OH262416   4.391   4.679   0.321 -0.3365 -0.0637 -0.3190
13642TIP3    H162417   4.482   4.692   0.294 -0.0420 -0.8763  0.2332
13642TIP3    H262418   4.361   4.604   0.268 -1.3945  1.5221 -2.0800
13643TIP3   OH262419   2.530   1.312   3.818  0.1094 -0.0848  0.1603
13643TIP3    H162420   2.565   1.326   3.730 -0.4410 -0.9803 -0.2251
13643TIP3    H262421   2.468   1.239   3.807  1.3141 -1.3838  1.6017
13644TIP3   OH262422   5.818   0.443   2.042  0.2578  0.1890 -0.3762
13644TIP3    H162423   5.858   0.392   1.973  2.9458  0.6372  0.7413
13644TIP3    H262424   5.724   0.435   2.027  0.6015 -3.3796 -1.4107
13645TIP3   OH262425   4.783   3.530  10.635 -0.2726  0.2835 -0.3186
13645TIP3    H162426   4.778   3.524  10.730  1.0700 -0.4481 -0.2747
13645TIP3    H262427   4.774   3.624  10.617  1.4408  0.6871  0.6951
13646TIP3   OH262428   0.806   1.987   3.643 -0.3246 -0.1990  0.2431
13646TIP3    H162429   0.824   2.059   3.582 -0.0841 -0.9950 -0.6650
13646TIP3    H262430   0.890   1.972   3.687 -0.3629  0.0475  0.4004
13647TIP3   OH262431   5.781   5.921  15.335  0.3855  0.3631 -0.1125
13647TIP3    H162432   5.832   5.977  15.276 -1.8328  0.8270 -1.7218
13647TIP3    H262433   5.716   5.980  15.374 -1.2559 -0.8097 -0.9508
13648TIP3   OH262434   6.143   6.505   0.724 -0.5294  0.7596 -0.0020
13648TIP3    H162435   6.193   6.585   0.743 -0.5535  0.5834  0.8812
13648TIP3    H262436   6.209   6.436   0.722 -0.6287  0.6544  0.2927
13649TIP3   OH262437   4.293   5.269   0.502 -0.7520 -0.5731  0.4983
13649TIP3    H162438   4.370   5.317   0.531 -0.9737 -0.6956  1.3010
13649TIP3    H262439   4.328   5.189   0.463 -0.4535 -0.4252  0.4645
13650TIP3   OH262440   6.138   2.861   5.263 -0.2010  0.3089  0.2405
13650TIP3    H162441   6.132   2.950   5.299  0.3571  1.3698 -2.0927
13650TIP3    H262442   6.232   2.848   5.248 -0.3245 -0.4989  0.1502
13651TIP3   OH262443   5.902   4.523  14.267  0.0696 -0.2243  0.7389
13651TIP3    H162444   5.936   4.595  14.321 -1.2556  2.0802 -1.2920
13651TIP3    H262445   5.809   4.521  14.286 -0.2595  0.0463 -0.7521
13652TIP3   OH262446   3.055   1.637   3.889 -1.1125 -0.5775  0.3572
13652TIP3    H162447   3.066   1.546   3.861  0.1714 -0.6570  1.0653
13652TIP3    H262448   3.076   1.637   3.982 -0.5964  0.5235  0.2595
13653TIP3   OH262449   4.480   2.002  14.712  0.1362 -0.5754 -0.6828
13653TIP3    H162450   4.443   2.065  14.649  0.0760  0.0371 -0.0502
13653TIP3    H262451   4.574   2.005  14.696  0.3140  0.8729  0.3774
13654TIP3   OH262452   1.461   4.521  16.539 -0.1884  0.4570  0.0178
13654TIP3    H162453   1.488   4.573  16.615  2.0048 -0.8178  0.1847
13654TIP3    H262454   1.427   4.440  16.576  1.8192 -0.5946 -0.2934
13655TIP3   OH262455   6.495   3.803  13.554  0.0670  0.0489 -0.3372
13655TIP3    H162456   6.589   3.798  13.537  0.3531  0.2384  1.0789
13655TIP3    H262457   6.477   3.730  13.614 -0.5184  0.5102  0.0680
13656TIP3   OH262458   6.192   5.819  15.805  0.0614  0.4906  0.0439
13656TIP3    H162459   6.108   5.830  15.849 -0.4787 -1.6365 -0.3462
13656TIP3    H262460   6.210   5.725  15.811  2.6809  0.9405  0.5663
13657TIP3   OH262461   4.770   0.217  16.578 -0.1615 -0.0867  0.2579
13657TIP3    H162462   4.771   0.310  16.558  1.1879  0.2503  1.6759
13657TIP3    H262463   4.702   0.207  16.644 -1.2922 -0.3819 -0.9128
13658TIP3   OH262464   5.589   5.887   2.481 -0.1618 -0.1182  0.0615
13658TIP3    H162465   5.598   5.854   2.392 -1.2605 -0.7672  0.1747
13658TIP3    H262466   5.668   5.939   2.495  0.0480 -0.0443 -1.2670
13659TIP3   OH262467   1.911   5.022   2.391  0.8043  0.6450  0.1448
13659TIP3    H162468   1.976   4.953   2.379 -1.7566 -1.8440 -0.4505
13659TIP3    H262469   1.943   5.072   2.466  3.2040 -0.6196  0.0685
13660TIP3   OH262470   0.868   0.568   2.681 -0.0271 -0.3376 -0.4113
13660TIP3    H162471   0.905   0.480   2.670 -2.2477 -1.5265  0.9579
13660TIP3    H262472   0.907   0.600   2.762  0.2052 -0.3758 -0.5075
13661TIP3   OH262473   1.769   6.337  16.230 -0.1880  0.0251 -0.0585
13661TIP3    H162474   1.740   6.412  16.178  0.0655 -0.0236 -0.2698
13661TIP3    H262475   1.852   6.365  16.269  0.6984 -0.6791 -1.3588
13662TIP3   OH262476   5.347   3.516   1.254  0.2085 -0.3266  0.3955
13662TIP3    H162477   5.311   3.548   1.337 -0.4204  0.5317 -0.1900
13662TIP3    H262478   5.404   3.587   1.224 -1.9084  0.7342 -1.3778
13663TIP3   OH262479   3.411   3.111   2.642  0.5336 -0.4460 -0.1342
13663TIP3    H162480   3.326   3.141   2.675  1.1242  1.1759  0.0320
13663TIP3    H262481   3.391   3.071   2.558 -0.4642 -0.6521  0.1818
13664TIP3   OH262482   0.201   6.554   6.806  0.2359  0.0358 -0.2220
13664TIP3    H162483   0.263   6.519   6.871 -0.0362  0.4048  0.2491
13664TIP3    H262484   0.115   6.532   6.841  0.0697  0.8023 -0.1252
13665TIP3   OH262485   0.100   0.734  16.429 -0.0810  0.4575 -0.2423
13665TIP3    H162486   0.061   0.813  16.390  2.8455  2.1054 -0.1856
13665TIP3    H262487   0.177   0.717  16.374  0.3203 -1.3124  0.8049
13666TIP3   OH262488   0.907   6.098   5.783 -0.1177 -0.5564  0.5986
13666TIP3    H162489   0.980   6.037   5.793  0.1725 -0.5504 -1.1605
13666TIP3    H262490   0.915   6.158   5.857  1.5040 -0.7391  0.5960
13667TIP3   OH262491   6.590   6.046   5.134  0.3349  0.9293  0.7383
13667TIP3    H162492   6.551   6.064   5.219 -0.4589  0.1510  0.5528
13667TIP3    H262493   6.562   5.957   5.112 -0.1701  1.4001 -0.6980
13668TIP3   OH262494   3.380   1.651   4.190  0.3300 -0.3258  0.6156
13668TIP3    H162495   3.286   1.657   4.174  0.0560 -0.7532  1.9463
13668TIP3    H262496   3.410   1.742   4.188 -0.4509 -0.0115  2.0161
13669TIP3   OH262497   4.275   4.133  13.306 -0.0055 -0.1685 -0.6211
13669TIP3    H162498   4.197   4.082  13.328  0.6775 -1.4569 -1.0400
13669TIP3    H262499   4.298   4.178  13.387  0.8345 -2.6111  0.6153
13670TIP3   OH262500   6.592   6.430  12.827 -0.7738  0.7335 -0.6127
13670TIP3    H162501   6.623   6.348  12.788  0.1787  1.2408 -0.9455
13670TIP3    H262502   6.497   6.428  12.813 -1.0258 -1.1228  0.9551
13671TIP3   OH262503   3.444   5.108  15.601  0.4077  0.3559  0.1991
13671TIP3    H162504   3.408   5.186  15.645  0.1902  0.2354  0.2360
13671TIP3    H262505   3.416   5.117  15.510 -0.1976 -0.0200  0.3417
13672TIP3   OH262506   1.381   5.240   0.601  0.6789 -0.3244 -0.0371
13672TIP3    H162507   1.288   5.219   0.609  0.4816  0.4822 -0.1413
13672TIP3    H262508   1.423   5.157   0.580 -0.0517 -0.6481 -0.2248
13673TIP3   OH262509   4.155   1.532   4.675  0.1295 -0.1757  0.6030
13673TIP3    H162510   4.133   1.612   4.724 -2.6314  0.2808 -1.1398
13673TIP3    H262511   4.200   1.564   4.597 -0.0865 -0.4079  0.3817
13674TIP3   OH262512   2.157   5.701   6.921  0.8926  0.8082 -0.0554
13674TIP3    H162513   2.230   5.665   6.970  0.0057 -0.6896  0.2039
13674TIP3    H262514   2.190   5.708   6.831  1.7987  1.4969  0.3143
13675TIP3   OH262515   0.479   4.344  16.368  0.1774  0.4784  0.2189
13675TIP3    H162516   0.521   4.416  16.416  2.4787 -1.6400  1.6362
13675TIP3    H262517   0.442   4.288  16.436 -1.0359 -0.0169 -0.8119
13676TIP3   OH262518   5.765   2.761   2.753 -0.2211  0.0373  0.4952
13676TIP3    H162519   5.716   2.771   2.835  0.6116  0.9230  0.9186
13676TIP3    H262520   5.726   2.685   2.710 -0.5435 -0.5788  1.8182
13677TIP3   OH262521   5.753   1.559  12.561  0.2438 -0.2530  0.2983
13677TIP3    H162522   5.814   1.562  12.635 -0.0888  0.5382  0.5445
13677TIP3    H262523   5.753   1.648  12.526  0.0951 -0.5238 -0.4143
13678TIP3   OH262524   0.026   0.068  10.584 -0.3456  0.2082 -0.7865
13678TIP3    H162525   0.080   0.084  10.506 -1.0526  0.6128 -1.2082
13678TIP3    H262526   0.063  -0.011  10.623 -0.0837 -0.0969 -1.6268
13679TIP3   OH262527   1.737   1.225   0.343 -0.1904 -0.1328 -0.5526
13679TIP3    H162528   1.736   1.312   0.383  1.6591 -0.4751  0.3318
13679TIP3    H262529   1.650   1.190   0.361 -0.9188  1.4522 -0.7943
13680TIP3   OH262530   0.577   3.102  13.297 -0.8538  0.3054  0.0924
13680TIP3    H162531   0.558   3.009  13.281 -0.9712  0.1125  1.2792
13680TIP3    H262532   0.655   3.119  13.244 -0.9926 -0.3946 -0.3624
13681TIP3   OH262533   5.570   6.482  15.755  0.3744 -0.1070 -0.8184
13681TIP3    H162534   5.499   6.513  15.813  0.2173 -1.7794 -0.0626
13681TIP3    H262535   5.603   6.562  15.713 -0.5719  0.9640  0.3841
13682TIP3   OH262536   3.441   6.601   6.771 -0.7106  0.2596 -0.0001
13682TIP3    H162537   3.353   6.588   6.735 -0.6643  0.7104 -0.2856
13682TIP3    H262538   3.457   6.695   6.761  0.7175 -0.1451 -2.0637
13683TIP3   OH262539   6.429   2.057  16.751  0.4073  0.0768  0.0493
13683TIP3    H162540   6.491   1.998  16.708 -1.6636 -0.7193 -2.0900
13683TIP3    H262541   6.347   2.007  16.756 -0.5693  1.6818  1.1085
13684TIP3   OH262542   0.477   4.154   5.236 -0.4512 -0.7191  0.3313
13684TIP3    H162543   0.464   4.249   5.243  1.2443 -0.0371 -3.1523
13684TIP3    H262544   0.411   4.125   5.173  1.3008 -1.0213 -1.5049
13685TIP3   OH262545   6.546   2.590   3.407 -0.1027  0.4487  0.3296
13685TIP3    H162546   6.601   2.659   3.444 -0.0994  0.2991  0.6056
13685TIP3    H262547   6.607   2.519   3.388  0.4655  1.6294 -2.9161
13686TIP3   OH262548   5.454   1.359  14.555  0.4045 -0.1909  0.1086
13686TIP3    H162549   5.480   1.411  14.479  0.0145  0.8103  0.6399
13686TIP3    H262550   5.403   1.287  14.518  1.5471 -0.6029 -0.6979
13687TIP3   OH262551   5.352   5.580   6.349 -0.4393  0.2256 -1.1193
13687TIP3    H162552   5.447   5.594   6.358 -0.6825  1.0800  0.5598
13687TIP3    H262553   5.335   5.499   6.397 -0.7137  0.7558 -0.2965
13688TIP3   OH262554   1.080   2.585  12.460  0.4607  0.1214  0.1431
13688TIP3    H162555   0.990   2.615  12.477  0.4174  0.3503 -0.4554
13688TIP3    H262556   1.102   2.623  12.375  0.6190 -1.0748 -0.3734
13689TIP3   OH262557   5.994   1.483  16.158  0.1627 -0.3994  0.7169
13689TIP3    H162558   5.909   1.491  16.200  0.8112 -2.3262  2.5691
13689TIP3    H262559   6.009   1.389  16.152  1.0650 -0.1702 -1.9928
13690TIP3   OH262560   1.344   4.346   0.992 -0.0328  0.5889 -0.5715
13690TIP3    H162561   1.338   4.421   1.051 -0.2321  0.7366 -0.7745
13690TIP3    H262562   1.390   4.380   0.915 -1.0496  0.7943 -1.1089
13691TIP3   OH262563   2.644   2.302  17.007 -0.2150  0.0465 -0.9577
13691TIP3    H162564   2.695   2.233  17.049  0.5610  0.7296 -0.7546
13691TIP3    H262565   2.703   2.341  16.943 -1.1141 -0.4086 -2.1135
13692TIP3   OH262566   4.144   4.902   4.257  0.2238 -0.3589 -0.3797
13692TIP3    H162567   4.100   4.817   4.262 -1.6023  0.4758 -1.4172
13692TIP3    H262568   4.076   4.963   4.229  1.4813  1.4775  0.3611
13693TIP3   OH262569   6.635   3.272  15.041  0.0120  0.3481  0.2589
13693TIP3    H162570   6.644   3.230  14.956 -2.4811  0.4165 -0.1315
13693TIP3    H262571   6.585   3.209  15.093  0.6003  0.7512  1.3442
13694TIP3   OH262572   3.095   1.525   1.515 -0.7032  0.4333  0.1178
13694TIP3    H162573   3.077   1.437   1.482 -3.5626  1.5065 -1.5244
13694TIP3    H262574   3.170   1.555   1.464 -1.5190 -0.0376 -1.4045
13695TIP3   OH262575   0.900   3.950  12.137 -0.1969 -0.7021 -0.3477
13695TIP3    H162576   0.836   3.969  12.205  0.1593 -0.3300 -0.1105
13695TIP3    H262577   0.857   3.973  12.055 -0.2581 -0.1636 -0.1662
13696TIP3   OH262578   2.195   5.361   0.269 -0.1988 -0.4016 -0.6336
13696TIP3    H162579   2.148   5.439   0.298 -1.5506 -1.0311 -1.0560
13696TIP3    H262580   2.241   5.330   0.347 -2.3969 -1.0915  0.4882
13697TIP3   OH262581   3.387   1.160  11.379  0.5610 -0.4079 -0.1409
13697TIP3    H162582   3.322   1.227  11.399  0.5345 -0.2211 -0.8195
13697TIP3    H262583   3.457   1.175  11.442 -0.6791 -1.5586  1.5878
13698TIP3   OH262584   5.060   2.752  16.420 -0.2310  0.2402  0.1532
13698TIP3    H162585   5.065   2.661  16.393  0.4900  0.4582 -0.4917
13698TIP3    H262586   5.068   2.750  16.515 -1.3546 -0.4409  0.2448
13699TIP3   OH262587   1.224   3.155  16.724  0.4088  0.1408 -0.2291
13699TIP3    H162588   1.292   3.123  16.783 -0.5691  0.2743  1.0158
13699TIP3    H262589   1.155   3.089  16.729  0.3397  0.1164 -1.3026
13700TIP3   OH262590   1.253   6.515   2.522  0.6415 -0.0927 -1.1404
13700TIP3    H162591   1.321   6.496   2.586  0.9628  1.3934 -0.9998
13700TIP3    H262592   1.180   6.549   2.573  0.7672  0.7658 -1.5144
13701TIP3   OH262593   1.045   0.609   0.643 -0.0636  0.2985  0.2027
13701TIP3    H162594   1.087   0.694   0.657  0.7379 -0.3083  1.7206
13701TIP3    H262595   1.108   0.545   0.676  0.0675 -1.0585 -2.3880
13702TIP3   OH262596   2.113   2.988   3.440 -0.7541 -0.0269 -0.1683
13702TIP3    H162597   2.129   3.022   3.528 -1.5884  0.4385 -0.1784
13702TIP3    H262598   2.191   2.937   3.419 -0.4118  0.1080  0.7172
13703TIP3   OH262599   4.533   0.589  12.814  0.0855  0.3580 -0.3617
13703TIP3    H162600   4.492   0.502  12.818 -1.1111  0.9167  0.1382
13703TIP3    H262601   4.464   0.645  12.778  0.0730  1.5075  1.3372
13704TIP3   OH262602   2.631   3.030   1.566 -0.7787  0.1596 -0.0936
13704TIP3    H162603   2.680   3.004   1.645 -1.3973  2.1292  1.0094
13704TIP3    H262604   2.656   3.121   1.552 -1.6120  0.1874 -1.4824
13705TIP3   OH262605   2.271   3.216  16.459  0.3691 -0.1100  0.1006
13705TIP3    H162606   2.281   3.310  16.445 -1.1682  0.1860  0.8271
13705TIP3    H262607   2.289   3.177  16.373  0.3380  0.8910 -0.3765
13706TIP3   OH262608   4.711   0.969  17.171  0.5177 -0.4636 -0.5347
13706TIP3    H162609   4.624   1.007  17.162  0.3269 -0.3771  1.3719
13706TIP3    H262610   4.745   0.964  17.081 -0.2500  2.2607 -1.0502
13707TIP3   OH262611   3.577   3.814   4.912  0.0918  0.2775  0.5441
13707TIP3    H162612   3.482   3.814   4.904  0.0994 -1.0033  0.1897
13707TIP3    H262613   3.593   3.776   4.999  0.2726  1.6002  1.1092
13708TIP3   OH262614   2.827   4.210  13.094  0.3407 -0.2256 -0.2615
13708TIP3    H162615   2.745   4.168  13.067  0.7689 -1.8095  0.8107
13708TIP3    H262616   2.812   4.236  13.185  1.5782 -2.1602  0.5624
13709TIP3   OH262617   5.181   2.953   4.260  0.5760 -0.0905  0.2845
13709TIP3    H162618   5.267   2.916   4.282  1.5406  2.7139  1.7824
13709TIP3    H262619   5.127   2.935   4.337  0.9628  1.2357  0.8950
13710TIP3   OH262620   0.446   5.674  13.634  0.3374 -0.0320 -0.2617
13710TIP3    H162621   0.388   5.609  13.595  0.2016  0.8142 -1.5400
13710TIP3    H262622   0.532   5.656  13.596  0.8642 -1.0396  1.3301
13711TIP3   OH262623   3.818   2.777  11.560 -0.0334 -0.0524  0.5993
13711TIP3    H162624   3.793   2.685  11.553 -0.5265  0.0488  0.9863
13711TIP3    H262625   3.913   2.774  11.576  0.4927 -0.3840 -2.1437
13712TIP3   OH262626   5.490   5.207  14.620  0.0693  0.3691  0.1926
13712TIP3    H162627   5.539   5.152  14.681 -0.9769  0.6957  1.3571
13712TIP3    H262628   5.406   5.163  14.608  0.6330 -0.2572 -1.8969
13713TIP3   OH262629   4.167   2.281  16.523 -0.1853  0.4817 -0.2565
13713TIP3    H162630   4.078   2.252  16.544 -0.2445 -0.7750 -1.9933
13713TIP3    H262631   4.156   2.340  16.448  0.3464  1.5443  0.4719
13714TIP3   OH262632   6.691   5.417  14.708 -0.5238  0.2304 -0.0237
13714TIP3    H162633   6.677   5.350  14.641 -0.4020 -1.5168  1.6162
13714TIP3    H262634   6.612   5.413  14.762 -0.7572  1.8322 -0.1923
13715TIP3   OH262635   0.091   2.614  16.897  0.1329 -0.3256 -0.3220
13715TIP3    H162636   0.156   2.609  16.968 -1.1808 -0.5051  0.9088
13715TIP3    H262637   0.065   2.706  16.896 -2.0976 -0.8421  1.5926
13716TIP3   OH262638   0.466   5.985  12.428  0.0756  0.6118  0.1608
13716TIP3    H162639   0.489   5.926  12.500  2.3391 -0.3424 -1.2218
13716TIP3    H262640   0.425   5.929  12.362  0.6760  0.8711 -0.4548
13717TIP3   OH262641   5.105   3.725  10.469  0.0184 -0.7220  0.2219
13717TIP3    H162642   5.076   3.790  10.405 -1.5276  0.0170  1.6222
13717TIP3    H262643   5.199   3.741  10.477 -0.2543  1.1008  0.2453
13718TIP3   OH262644   5.527   5.558  12.718  0.0424 -0.4140 -0.3390
13718TIP3    H162645   5.483   5.518  12.642 -0.7028  0.0798 -0.1714
13718TIP3    H262646   5.617   5.574  12.687 -0.5578  0.8740 -1.5236
13719TIP3   OH262647   3.606   0.014  15.521 -0.2148 -0.1431 -0.2894
13719TIP3    H162648   3.670   0.075  15.557 -1.0014 -0.6474  2.1362
13719TIP3    H262649   3.636  -0.073  15.549 -1.1903 -0.5042 -0.3003
13720TIP3   OH262650   6.100   0.650  12.678  0.0686  0.1617 -0.3256
13720TIP3    H162651   6.165   0.581  12.667  1.3248  0.8356  2.1183
13720TIP3    H262652   6.150   0.731  12.677 -0.9736  0.8391 -0.1283
13721TIP3   OH262653   0.952   2.465   4.938 -0.2854  0.0985 -0.6671
13721TIP3    H162654   0.930   2.426   5.023 -1.2038  1.6043 -0.1717
13721TIP3    H262655   1.027   2.415   4.907  0.9202  0.3385  1.6556
13722TIP3   OH262656   1.480   5.603  14.625  0.0596  0.1230  0.4562
13722TIP3    H162657   1.388   5.625  14.612  0.0400 -0.1506  0.1179
13722TIP3    H262658   1.486   5.510  14.603  0.9961  0.8132 -2.5961
13723TIP3   OH262659   1.910   2.819  12.605 -0.2705 -0.2910  0.1828
13723TIP3    H162660   1.845   2.749  12.601 -1.4680  0.5240  2.6583
13723TIP3    H262661   1.979   2.785  12.663 -0.4285  0.2240  0.6855
13724TIP3   OH262662   2.017   1.518  13.703  0.4552  0.0981  0.0883
13724TIP3    H162663   2.096   1.571  13.713 -0.9842  2.2332  0.6847
13724TIP3    H262664   1.961   1.569  13.645 -0.9191 -0.8858  0.5094
13725TIP3   OH262665   3.316   0.451   6.111  0.2090  0.4035  0.1271
13725TIP3    H162666   3.405   0.484   6.124  0.1615 -0.0157  1.7565
13725TIP3    H262667   3.320   0.359   6.138 -0.6176  0.2448 -0.2451
13726TIP3   OH262668   6.204   0.611  16.427 -0.0476 -0.3620 -0.1091
13726TIP3    H162669   6.214   0.706  16.416 -0.3655 -0.4937 -1.8896
13726TIP3    H262670   6.113   0.594  16.404  0.5001 -1.3063 -1.7523
13727TIP3   OH262671   3.854   0.125   0.451 -0.0033 -0.4017  0.2385
13727TIP3    H162672   3.909   0.093   0.523 -0.5242 -0.4949  0.5990
13727TIP3    H262673   3.913   0.178   0.398  0.7164 -1.4017 -0.0024
13728TIP3   OH262674   5.467   1.279  17.001  0.6323  0.3961  0.1586
13728TIP3    H162675   5.492   1.368  17.026 -0.0974  1.2445 -1.9553
13728TIP3    H262676   5.382   1.288  16.959  1.1385 -1.1065 -1.2832
13729TIP3   OH262677   3.653   2.067  12.356  0.6018 -0.1682  0.4659
13729TIP3    H162678   3.585   2.006  12.330  1.6608 -2.0160  1.8354
13729TIP3    H262679   3.618   2.111  12.434 -0.4748  1.6467 -0.9506
13730TIP3   OH262680   2.993   6.358  12.701 -0.0812  0.7932  0.0007
13730TIP3    H162681   2.959   6.354  12.790  0.6133  1.0124  0.2828
13730TIP3    H262682   3.063   6.423  12.705  0.3761  0.3421 -0.5693
13731TIP3   OH262683   3.179   2.001  14.652  0.0196 -0.3169 -0.1568
13731TIP3    H162684   3.216   2.075  14.604 -0.4053 -0.0965 -0.1539
13731TIP3    H262685   3.196   1.925  14.597 -1.0152  0.0203 -0.9667
13732TIP3   OH262686   3.047   3.023  12.955  0.1059 -0.2183  0.5627
13732TIP3    H162687   3.059   2.944  13.007  2.0305  0.2060  0.8414
13732TIP3    H262688   3.006   3.085  13.015  0.0429 -0.5129  0.8223
13733TIP3   OH262689   4.117   4.288   4.953 -0.0244 -0.2381 -0.4998
13733TIP3    H162690   4.191   4.317   4.900  1.0095 -0.6609  0.6920
13733TIP3    H262691   4.114   4.349   5.027  1.0453 -1.9842  1.0610
13734TIP3   OH262692   6.765   6.531   3.505  0.9430  0.7668 -0.3853
13734TIP3    H162693   6.828   6.468   3.541  0.4073  0.9211  0.8985
13734TIP3    H262694   6.735   6.491   3.423  0.7490 -0.5913  0.3123
13735TIP3   OH262695   6.676   0.177  15.837  0.0237 -0.1834 -0.2914
13735TIP3    H162696   6.695   0.182  15.930 -0.1927 -1.4359 -0.1626
13735TIP3    H262697   6.664   0.268  15.810 -0.5159  0.1568  1.0241
13736TIP3   OH262698   4.834   3.236   4.415  0.3013 -0.1259 -0.6042
13736TIP3    H162699   4.832   3.242   4.510 -1.3514 -0.7177 -0.5747
13736TIP3    H262700   4.766   3.296   4.385  1.0113  0.2876 -1.4405
13737TIP3   OH262701   3.366   5.237   3.927  0.0807  0.0684 -0.1820
13737TIP3    H162702   3.362   5.143   3.910  1.4377 -0.1361  0.5603
13737TIP3    H262703   3.397   5.275   3.845  1.0469 -0.3031  0.0071
13738TIP3   OH262704   3.259   3.532   2.519  0.5368  0.0905  0.0877
13738TIP3    H162705   3.336   3.510   2.572  0.0487 -1.3181  0.2520
13738TIP3    H262706   3.196   3.568   2.582  1.3525  2.1437 -0.1890
13739TIP3   OH262707   6.530   0.658   3.352 -0.4337  0.2945 -0.6268
13739TIP3    H162708   6.546   0.622   3.439 -2.2662  2.3919  0.6726
13739TIP3    H262709   6.600   0.723   3.340 -0.8322  0.8034 -0.2196
13740TIP3   OH262710   5.666   5.443   3.074  0.3917 -0.5104  0.1801
13740TIP3    H162711   5.670   5.400   2.989 -1.3594 -0.3921  0.0022
13740TIP3    H262712   5.665   5.536   3.054 -1.0379 -0.4903  0.2330
13741TIP3   OH262713   6.483   5.315  11.640 -0.5729  0.1682 -0.3315
13741TIP3    H162714   6.408   5.268  11.676  0.6035 -0.3469  1.6024
13741TIP3    H262715   6.514   5.369  11.713  2.2424 -1.2651 -0.3570
13742TIP3   OH262716   3.848   5.354   5.917 -0.0111  0.0307 -0.1874
13742TIP3    H162717   3.929   5.304   5.920  0.2808  0.4743 -0.5366
13742TIP3    H262718   3.871   5.435   5.872 -0.3565  0.7191  0.8387
13743TIP3   OH262719   2.362   5.570   5.073  0.7976  0.1195  0.2994
13743TIP3    H162720   2.293   5.516   5.113  0.8195  0.0094  0.1910
13743TIP3    H262721   2.444   5.529   5.102  0.8756  1.4394  2.0918
13744TIP3   OH262722   3.354   2.939   4.501  0.0057  0.6624  0.4302
13744TIP3    H162723   3.427   3.002   4.501  0.7607 -0.1722 -0.3317
13744TIP3    H262724   3.327   2.935   4.409 -2.7748  2.8912  1.0214
13745TIP3   OH262725   0.383   5.180  13.619  0.1276 -0.0040 -0.0887
13745TIP3    H162726   0.372   5.126  13.541  0.3540  1.6237 -1.2971
13745TIP3    H262727   0.301   5.170  13.667 -0.5052 -0.0778 -1.1615
13746TIP3   OH262728   5.096   0.733   2.366  0.4297  0.6707  0.0787
13746TIP3    H162729   5.021   0.787   2.339 -1.3597 -0.5897  2.2073
13746TIP3    H262730   5.146   0.790   2.424  0.8683  1.3529 -0.9455
13747TIP3   OH262731   2.279   3.357   3.816  0.1457 -0.3801  0.3536
13747TIP3    H162732   2.358   3.354   3.870  1.1879  1.1168 -0.9917
13747TIP3    H262733   2.232   3.434   3.847  0.1323 -0.2256 -0.0406
13748TIP3   OH262734   2.515   1.872  11.370 -0.5322 -0.4751 -0.7370
13748TIP3    H162735   2.582   1.870  11.438 -1.2239 -0.2933 -0.0358
13748TIP3    H262736   2.462   1.794  11.386 -1.6394  0.3775 -0.0675
13749TIP3   OH262737   4.494   3.373   2.767  0.2409 -0.5295  0.2850
13749TIP3    H162738   4.580   3.335   2.752  0.6802 -0.0773  1.5731
13749TIP3    H262739   4.462   3.395   2.679  2.0128  0.5481 -0.1510
13750TIP3   OH262740   5.078   0.306   2.852  0.7518  0.4544 -0.7587
13750TIP3    H162741   5.113   0.365   2.786  2.9234  0.7459  0.5411
13750TIP3    H262742   5.062   0.224   2.805  0.6505  1.1496 -1.9654
13751TIP3   OH262743   6.642   1.511  13.302 -0.2383  1.1424 -0.3798
13751TIP3    H162744   6.610   1.481  13.388 -0.2201  0.2002 -0.6845
13751TIP3    H262745   6.733   1.481  13.299 -0.2220  1.2207 -0.7096
13752TIP3   OH262746   3.633   1.386  11.934 -0.3018  0.0054  0.0214
13752TIP3    H162747   3.550   1.406  11.977 -0.3045 -0.8031  0.4174
13752TIP3    H262748   3.668   1.311  11.983 -0.4688 -1.1951 -1.6050
13753TIP3   OH262749   0.927   3.051  12.310  0.1232 -0.4173  0.2803
13753TIP3    H162750   0.847   3.040  12.258 -1.5525  1.4243  2.2384
13753TIP3    H262751   0.986   3.101  12.254  0.7154 -3.2733 -1.8562
13754TIP3   OH262752   2.659   1.816   3.581 -0.3690 -0.4450  0.1295
13754TIP3    H162753   2.711   1.736   3.586  0.5079  0.0804 -0.2933
13754TIP3    H262754   2.569   1.786   3.572  0.0711 -1.3958 -1.4549
13755TIP3   OH262755   0.054   1.971  12.617  0.4472 -0.0823 -0.0711
13755TIP3    H162756  -0.037   1.976  12.646  0.7526  0.3789  0.8513
13755TIP3    H262757   0.095   1.910  12.678  0.8266 -0.0625 -0.3013
13756TIP3   OH262758   4.584   0.281  15.921 -0.7938  0.2122 -0.1049
13756TIP3    H162759   4.560   0.188  15.915  0.5382 -0.2100  0.6195
13756TIP3    H262760   4.625   0.289  16.007 -2.3839  1.8641  0.5492
13757TIP3   OH262761   4.884   1.809   4.223 -0.0146  0.1532  0.0625
13757TIP3    H162762   4.874   1.805   4.128 -1.0183 -2.6133  0.2119
13757TIP3    H262763   4.848   1.727   4.255  1.6943  0.3295  2.7481
13758TIP3   OH262764   5.942   0.840  14.420  0.0337 -0.3879  0.4957
13758TIP3    H162765   5.928   0.749  14.447 -1.5604  0.0033  1.0837
13758TIP3    H262766   6.020   0.867  14.469 -0.3066 -1.0151  1.4092
13759TIP3   OH262767   1.478   6.411   2.651 -0.4876 -0.0266  0.1759
13759TIP3    H162768   1.536   6.336   2.637 -1.4261 -0.3853 -2.1005
13759TIP3    H262769   1.520   6.484   2.606 -0.2049  0.5535  1.3268
13760TIP3   OH262770   1.506   3.130   4.791  0.2979  0.4095  0.6511
13760TIP3    H162771   1.476   3.044   4.822 -2.5570  0.2207 -2.0770
13760TIP3    H262772   1.517   3.119   4.697 -0.1296  2.9888  0.2131
13761TIP3   OH262773   1.837   0.307   2.647  0.0990 -0.2854 -0.0055
13761TIP3    H162774   1.780   0.338   2.717 -0.6216 -0.0782 -0.6790
13761TIP3    H262775   1.913   0.270   2.693 -0.7105 -0.8568  0.9005
13762TIP3   OH262776   2.594   4.061  14.663 -1.2181 -0.0628 -0.1467
13762TIP3    H162777   2.570   3.971  14.642 -0.8274 -0.2556  0.2296
13762TIP3    H262778   2.521   4.114  14.628 -1.4479 -0.5189 -0.3660
13763TIP3   OH262779   1.974   6.209   2.104 -0.4137 -0.6413  0.3271
13763TIP3    H162780   2.021   6.256   2.035  1.0809  0.8782  2.2790
13763TIP3    H262781   1.957   6.122   2.067  2.2912 -0.6233 -1.1656
13764TIP3   OH262782   1.319   0.275  12.092  0.3864 -0.0632 -0.1151
13764TIP3    H162783   1.374   0.221  12.148  0.6360 -0.0626 -0.3556
13764TIP3    H262784   1.234   0.231  12.092  0.9640 -1.2661 -1.4435
13765TIP3   OH262785   1.799   0.708  17.120 -0.4715 -0.3138  0.3444
13765TIP3    H162786   1.717   0.749  17.147  0.1056 -1.0385  3.5187
13765TIP3    H262787   1.849   0.778  17.079 -1.5289  0.8513  0.9914
13766TIP3   OH262788   3.856   1.433   1.788  0.7271  0.1414 -0.0986
13766TIP3    H162789   3.844   1.392   1.873  0.1023 -0.0911 -0.2987
13766TIP3    H262790   3.858   1.360   1.726  0.0407  0.3858 -0.4085
13767TIP3   OH262791   1.840   3.492  17.115 -0.5323  0.0268  0.4781
13767TIP3    H162792   1.787   3.533  17.046  0.7275  0.4605 -0.2735
13767TIP3    H262793   1.776   3.449  17.172 -1.6835  0.5224 -0.3878
13768TIP3   OH262794   3.491   6.730   4.898 -0.4187 -0.0798 -0.6603
13768TIP3    H162795   3.537   6.716   4.981  0.6808 -0.1590 -1.2520
13768TIP3    H262796   3.542   6.679   4.834 -0.1738  1.4049 -1.7032
13769TIP3   OH262797   1.608   0.216  13.600 -0.0874  0.0688 -0.1264
13769TIP3    H162798   1.577   0.224  13.690 -0.1484 -0.3792 -0.1062
13769TIP3    H262799   1.681   0.279  13.595  0.1835 -0.1951  0.3561
13770TIP3   OH262800   1.443   5.412   5.530  0.2210 -0.4652  0.1047
13770TIP3    H162801   1.459   5.349   5.460  1.1624 -0.3723  0.2187
13770TIP3    H262802   1.389   5.480   5.489 -0.1087 -0.9241 -0.2399
13771TIP3   OH262803   3.323   6.229  16.010  0.0179  0.4005  0.5280
13771TIP3    H162804   3.338   6.271  15.925 -0.6882 -3.1651 -1.5273
13771TIP3    H262805   3.245   6.273  16.044  0.3786  1.9793 -0.5628
13772TIP3   OH262806   5.751   3.763  15.152  0.2348 -0.3580  0.4899
13772TIP3    H162807   5.728   3.796  15.239 -0.2585  0.7285 -0.0250
13772TIP3    H262808   5.764   3.669  15.163  0.0861 -0.2400  1.7136
13773TIP3   OH262809   1.552   1.609   3.984  0.0742 -0.2064 -0.4628
13773TIP3    H162810   1.499   1.599   4.063  0.4491  1.1890 -0.0142
13773TIP3    H262811   1.511   1.550   3.920 -0.0432 -1.5937  0.8406
13774TIP3   OH262812   1.706   0.392   3.998  0.5757  0.4774  0.3155
13774TIP3    H162813   1.740   0.481   4.008  0.5555  0.4249  0.9004
13774TIP3    H262814   1.771   0.348   3.942  0.4867  0.9089 -0.1339
13775TIP3   OH262815   3.571   3.496  16.245 -0.4422 -0.2896 -0.0405
13775TIP3    H162816   3.487   3.453  16.263 -0.8911  0.4420 -0.3319
13775TIP3    H262817   3.637   3.434  16.276 -0.8990 -2.6415 -3.2294
13776TIP3   OH262818   3.522   5.939   2.799  0.1645  0.2416 -0.5031
13776TIP3    H162819   3.445   5.897   2.760  0.6887  0.0955 -1.4094
13776TIP3    H262820   3.578   5.960   2.724  0.0647  2.3009 -0.0672
13777TIP3   OH262821   3.804   0.187   2.216 -0.2704  0.2920 -0.1188
13777TIP3    H162822   3.738   0.144   2.163 -1.0881 -1.4689  2.1877
13777TIP3    H262823   3.888   0.155   2.182 -0.6699  0.6276 -1.4656
13778TIP3   OH262824   3.645   2.863  14.930  0.4752  0.3300 -0.1926
13778TIP3    H162825   3.550   2.861  14.943  0.5855 -0.7915  0.4985
13778TIP3    H262826   3.656   2.898  14.841 -0.5262  1.5790  0.1368
13779TIP3   OH262827   1.982   0.515  10.651  0.1100  0.2574 -0.1867
13779TIP3    H162828   2.066   0.540  10.689  1.0043 -1.3733 -1.0077
13779TIP3    H262829   1.992   0.424  10.626 -1.6710  0.2257 -0.9907
13780TIP3   OH262830   3.073   2.947  17.076  0.7505 -0.8480 -0.6314
13780TIP3    H162831   3.033   2.909  17.154 -2.8447  0.4721 -1.6124
13780TIP3    H262832   3.040   2.893  17.004 -1.4429  1.6891 -1.6954
13781TIP3   OH262833   2.895   4.989   0.776 -0.0459  0.2103 -0.6680
13781TIP3    H162834   2.949   4.990   0.855 -0.0590  0.6862 -0.6628
13781TIP3    H262835   2.957   4.972   0.705 -0.1483 -1.0671 -0.4783
13782TIP3   OH262836   5.227   6.241   3.460  0.1645  0.1144 -0.6535
13782TIP3    H162837   5.252   6.329   3.490  0.8793 -0.4936  0.5808
13782TIP3    H262838   5.308   6.205   3.424 -0.5086  0.5584 -2.7501
13783TIP3   OH262839   3.248   3.709  12.522  0.0378  0.1017 -0.4065
13783TIP3    H162840   3.221   3.709  12.614  1.7382 -0.6837  0.1365
13783TIP3    H262841   3.217   3.624  12.488  1.8783 -0.8934  0.2733
13784TIP3   OH262842   6.185   1.085  11.427  0.2062  0.3453  0.4139
13784TIP3    H162843   6.192   1.082  11.331  1.2288  2.7445  0.3189
13784TIP3    H262844   6.234   1.164  11.451 -1.2996  0.6498  2.8011
13785TIP3   OH262845   6.130   3.096   3.221 -0.0943  0.5937  0.2999
13785TIP3    H162846   6.153   3.049   3.141 -1.4210 -1.3580  1.0026
13785TIP3    H262847   6.045   3.135   3.201  0.3508  1.5428  0.2088
13786TIP3   OH262848   5.773   1.685   2.785  0.3288 -0.1790  0.0834
13786TIP3    H162849   5.689   1.730   2.770 -0.3352 -1.5862 -0.6650
13786TIP3    H262850   5.839   1.748   2.757 -0.4554  1.0571  0.9198
13787TIP3   OH262851   5.275   4.464  15.136  0.4777 -0.2079  0.1542
13787TIP3    H162852   5.240   4.389  15.086 -2.3596 -0.4958  2.3144
13787TIP3    H262853   5.288   4.430  15.224  1.9453  1.1614  0.5001
13788TIP3   OH262854   4.786   4.592  13.913 -0.2217 -0.4074  0.2061
13788TIP3    H162855   4.760   4.500  13.912 -1.7161 -0.0252  1.0350
13788TIP3    H262856   4.768   4.621  14.003 -0.6370  0.9267 -0.2888
13789TIP3   OH262857   4.485   0.293   0.411  0.0427 -0.0441 -0.2089
13789TIP3    H162858   4.390   0.302   0.425 -0.2376 -1.8699 -0.7436
13789TIP3    H262859   4.494   0.283   0.317  0.9255  1.3526 -0.3062
13790TIP3   OH262860   2.884   2.244  15.922  0.0989 -0.8593  0.3140
13790TIP3    H162861   2.808   2.187  15.932 -1.4480  1.0848  0.1332
13790TIP3    H262862   2.886   2.296  16.003  1.9078 -1.5842  0.7947
13791TIP3   OH262863   3.234   4.357   3.471  0.1537  0.0461  0.5381
13791TIP3    H162864   3.224   4.264   3.455 -1.7999  0.3408 -0.2674
13791TIP3    H262865   3.268   4.392   3.388  1.1439  0.0219  0.9283
13792TIP3   OH262866   1.977   1.981  10.859 -0.5016 -0.5029  0.0428
13792TIP3    H162867   1.965   2.064  10.905 -0.0903 -1.5278  2.0910
13792TIP3    H262868   1.938   1.996  10.772 -1.0865  1.5822  0.6145
13793TIP3   OH262869   4.374   4.349   5.905  0.0100 -0.5104  0.2340
13793TIP3    H162870   4.422   4.396   5.837 -0.6888  0.7885  0.5978
13793TIP3    H262871   4.301   4.308   5.859  0.3014 -0.7679 -0.0021
13794TIP3   OH262872   2.145   0.873  16.339 -0.3934  0.3223 -0.1138
13794TIP3    H162873   2.145   0.925  16.420 -0.8921  1.0636 -0.5809
13794TIP3    H262874   2.201   0.922  16.279  0.6830 -0.6668  0.0313
13795TIP3   OH262875   5.534   5.882   2.010  0.3184  0.0404  0.4236
13795TIP3    H162876   5.478   5.899   2.086  0.9258  1.1661  0.6410
13795TIP3    H262877   5.474   5.854   1.941 -0.2416 -1.0371  1.3116
13796TIP3   OH262878   0.940   2.249   1.895  0.7903  0.5508  0.4430
13796TIP3    H162879   1.024   2.290   1.878 -0.2613  2.3052 -0.8446
13796TIP3    H262880   0.886   2.272   1.819 -0.9968 -0.1064  1.4501
13797TIP3   OH262881   0.517   0.985   3.249 -0.1922 -0.2004  0.3933
13797TIP3    H162882   0.565   1.064   3.273 -0.9896  0.8880 -1.3640
13797TIP3    H262883   0.566   0.950   3.174 -1.1632 -0.0124 -0.3477
13798TIP3   OH262884   5.488   4.900  12.150 -0.2174  0.2598  0.0361
13798TIP3    H162885   5.438   4.867  12.225  0.6556  1.2659  1.0905
13798TIP3    H262886   5.439   4.869  12.073 -0.9763 -1.0354  0.9982
13799TIP3   OH262887   1.201   6.438  15.632 -0.1199  0.3269 -0.0997
13799TIP3    H162888   1.247   6.460  15.713 -3.1291 -0.8926  2.1397
13799TIP3    H262889   1.212   6.343  15.623 -0.2996  0.3653 -0.8194
13800TIP3   OH262890   1.152   1.342   4.311  0.3618  0.4432 -0.1243
13800TIP3    H162891   1.133   1.435   4.328  0.5114  0.7581 -1.5374
13800TIP3    H262892   1.245   1.340   4.291  0.4904 -0.1191  0.5154
13801TIP3   OH262893   5.227   5.104  13.478  0.2792  0.3440  0.2820
13801TIP3    H162894   5.207   5.011  13.490 -0.5496  0.0596 -2.5002
13801TIP3    H262895   5.147   5.150  13.504 -0.4893 -0.0231 -1.3052
13802TIP3   OH262896   6.678   4.807   2.455  0.1091  0.1627  0.2039
13802TIP3    H162897   6.723   4.827   2.537  1.5211  0.8976 -0.6977
13802TIP3    H262898   6.585   4.802   2.479  0.5027  0.1824  1.8571
13803TIP3   OH262899   5.582   2.619  11.791 -0.0074  0.1977  0.2287
13803TIP3    H162900   5.668   2.621  11.749  0.5681 -0.1626  1.3565
13803TIP3    H262901   5.521   2.645  11.721  1.0330  0.7290 -0.5204
13804TIP3   OH262902   0.147   4.147  15.211  0.7020 -0.0490  0.6648
13804TIP3    H162903   0.051   4.142  15.207  0.7800 -1.8602 -2.7588
13804TIP3    H262904   0.169   4.226  15.162  0.9519 -1.1612 -1.0920
13805TIP3   OH262905   0.160   2.854  11.300  0.0951 -0.1673  0.0605
13805TIP3    H162906   0.250   2.886  11.300  0.7474 -1.8630 -1.6558
13805TIP3    H262907   0.167   2.759  11.309 -1.3573 -0.6001 -2.4164
13806TIP3   OH262908   3.495   5.430   2.151 -0.1377 -0.1715  0.7375
13806TIP3    H162909   3.495   5.346   2.106  2.5386  1.0151 -1.7862
13806TIP3    H262910   3.461   5.410   2.238 -0.0633 -3.7464  0.1093
13807TIP3   OH262911   0.411   2.238   3.908 -0.2543 -0.6984 -0.5995
13807TIP3    H162912   0.480   2.200   3.962 -0.7520 -0.5891  0.1270
13807TIP3    H262913   0.348   2.167   3.896 -1.1587 -0.1484  0.7129
13808TIP3   OH262914   5.011   5.547   1.119  0.4418 -0.3535  0.1810
13808TIP3    H162915   4.955   5.602   1.066  0.0430  0.0676  1.0178
13808TIP3    H262916   5.078   5.607   1.154  2.3962 -1.0997 -2.0353
13809TIP3   OH262917   6.196   6.776   5.689  0.6311  0.0056 -0.0075
13809TIP3    H162918   6.113   6.733   5.708  0.2918  0.6527  0.0134
13809TIP3    H262919   6.263   6.714   5.719  0.1404  0.0061  1.1584
13810TIP3   OH262920   4.116   0.237  14.319 -0.5727  0.2943 -0.2781
13810TIP3    H162921   4.076   0.244  14.405 -3.2325  0.1158 -1.4095
13810TIP3    H262922   4.150   0.148  14.316 -0.5760  0.2599  0.5422
13811TIP3   OH262923   1.468   2.653   0.211 -0.2264 -0.2887  0.4523
13811TIP3    H162924   1.471   2.741   0.174 -0.3780  0.3292  1.8404
13811TIP3    H262925   1.505   2.663   0.299 -0.1512 -1.6341  0.5949
13812TIP3   OH262926   2.235   2.299  10.804 -0.9525  0.3198  0.5093
13812TIP3    H162927   2.141   2.303  10.817 -0.9020 -0.4005  1.1316
13812TIP3    H262928   2.245   2.261  10.716 -1.2401  1.3041  0.0363
13813TIP3   OH262929   6.627   5.335   2.578  0.0915 -0.3898 -0.3325
13813TIP3    H162930   6.659   5.374   2.659 -0.4921 -1.2820  0.3643
13813TIP3    H262931   6.554   5.279   2.607 -1.0003  0.3094 -1.6458
13814TIP3   OH262932   6.334   3.156   4.571 -0.1796 -0.0851 -0.4756
13814TIP3    H162933   6.422   3.186   4.594 -0.0226 -0.6101 -0.3666
13814TIP3    H262934   6.288   3.234   4.540  0.1342  0.3071  0.0476
13815TIP3   OH262935   0.100   4.419   5.339 -0.4575  0.1161 -0.3819
13815TIP3    H162936   0.127   4.509   5.356  2.0938 -0.5397 -0.5662
13815TIP3    H262937   0.107   4.409   5.244  0.2206 -0.5398 -0.2702
13816TIP3   OH262938   4.024   3.591   1.657 -0.2981  0.1621  0.3385
13816TIP3    H162939   4.040   3.666   1.715 -2.2286  0.0450  1.0971
13816TIP3    H262940   3.997   3.629   1.574  0.8713  0.3174  0.0239
13817TIP3   OH262941   6.248   0.360   1.402  0.5221 -0.4437  0.0177
13817TIP3    H162942   6.250   0.455   1.414 -0.0702  0.0191 -2.8249
13817TIP3    H262943   6.208   0.347   1.316 -0.0718 -3.3305  0.6100
13818TIP3   OH262944   4.277   4.267  15.119  0.1453  0.2603  0.3552
13818TIP3    H162945   4.254   4.262  15.212  0.0553 -0.3719  0.3067
13818TIP3    H262946   4.373   4.259  15.119  0.3283  2.0549  0.5008
13819TIP3   OH262947   4.896   2.357  15.132 -0.4464 -0.1643 -0.6563
13819TIP3    H162948   4.918   2.288  15.195  1.0121 -0.2152 -1.1819
13819TIP3    H262949   4.816   2.396  15.166  0.4537  0.0356  1.4254
13820TIP3   OH262950   6.273   0.113   1.036  0.2811 -0.5190 -0.2050
13820TIP3    H162951   6.350   0.170   1.028  1.0152 -1.3955  0.4940
13820TIP3    H262952   6.225   0.148   1.111  0.3313 -0.3713 -0.2413
13821TIP3   OH262953   0.923   3.021   4.902  0.9474 -0.0547 -0.1091
13821TIP3    H162954   0.869   3.068   4.840  1.9348  0.0719 -0.9004
13821TIP3    H262955   0.901   3.058   4.987 -1.4712 -1.1958 -0.1416
13822TIP3   OH262956   2.064   1.568  16.335  0.2309  0.5911 -0.2647
13822TIP3    H162957   2.071   1.544  16.428 -1.2501 -0.4821 -0.3929
13822TIP3    H262958   2.096   1.658  16.331  1.7409  0.1659  1.0226
13823TIP3   OH262959   1.579   4.931  16.481  0.6486 -0.1751  0.0027
13823TIP3    H162960   1.653   4.992  16.478 -0.6608  1.5216  0.1355
13823TIP3    H262961   1.613   4.853  16.524  2.1248  0.9175  0.9025
13824TIP3   OH262962   5.042   4.408  16.462 -0.1729 -0.3206  0.1010
13824TIP3    H162963   5.059   4.325  16.506 -1.9235 -0.3810  0.7340
13824TIP3    H262964   5.095   4.472  16.510  0.4585 -0.9056  0.2054
13825TIP3   OH262965   4.635   3.687   5.539  0.7097  0.5075 -0.1739
13825TIP3    H162966   4.686   3.674   5.618  0.5819  0.9863 -0.0092
13825TIP3    H262967   4.698   3.719   5.474  1.0011 -0.7702 -0.5467
13826TIP3   OH262968   2.486   2.996   2.338 -0.2511  0.2169 -0.6875
13826TIP3    H162969   2.541   3.056   2.388  0.3685 -0.5830 -0.3770
13826TIP3    H262970   2.396   3.020   2.360  0.0038 -0.1537  0.8607
13827TIP3   OH262971   3.066   2.235  13.765 -0.0237  0.1934  0.1315
13827TIP3    H162972   3.142   2.289  13.743  0.4214 -0.8790 -1.1092
13827TIP3    H262973   3.045   2.259  13.856 -0.0475  2.6337 -0.4516
13828TIP3   OH262974   4.579   0.280  13.064  0.0681  0.3974  0.3844
13828TIP3    H162975   4.625   0.282  12.980 -3.4648 -0.7136 -1.8313
13828TIP3    H262976   4.587   0.189  13.093 -0.2447  0.3231  0.2475
13829TIP3   OH262977   3.985   3.917   1.324 -0.3286  0.0106 -0.0744
13829TIP3    H162978   4.061   3.863   1.347  0.0191  0.5669  0.1158
13829TIP3    H262979   3.912   3.876   1.369 -0.1129 -0.4309 -0.1146
13830TIP3   OH262980   4.603   0.468   5.745  0.3199 -0.0879  0.4599
13830TIP3    H162981   4.666   0.399   5.721 -0.4248 -1.0602  1.2097
13830TIP3    H262982   4.596   0.522   5.667 -1.5614 -2.7728 -1.3984
13831TIP3   OH262983   3.540   6.582   3.047  0.3173 -0.4921 -0.0763
13831TIP3    H162984   3.605   6.520   3.015  0.2887 -0.3193 -0.4629
13831TIP3    H262985   3.485   6.530   3.106 -0.4537 -1.1483 -1.3255
13832TIP3   OH262986   4.613   6.801  12.192  0.0688  0.3424  0.0181
13832TIP3    H162987   4.698   6.779  12.231 -0.9277  0.0326  2.1301
13832TIP3    H262988   4.552   6.799  12.265 -1.5656  1.8014 -1.2369
13833TIP3   OH262989   1.606   1.118  16.292  0.7803 -0.0304 -0.0816
13833TIP3    H162990   1.649   1.191  16.247  1.9178 -0.0514  0.9142
13833TIP3    H262991   1.559   1.072  16.223  1.3817  0.7080 -1.0171
13834TIP3   OH262992   0.061   2.782  13.759 -0.0011 -0.0468 -0.2552
13834TIP3    H162993   0.147   2.739  13.760  0.1060  0.1423 -1.0951
13834TIP3    H262994   0.005   2.722  13.710 -0.3126 -0.0798  0.1330
13835TIP3   OH262995   1.540   3.596   1.976 -0.1142 -0.0341  0.0687
13835TIP3    H162996   1.569   3.637   1.895 -0.2629 -1.0214 -0.4950
13835TIP3    H262997   1.582   3.648   2.045 -0.2066  0.9818 -0.6138
13836TIP3   OH262998   3.415   5.803  13.333  0.1823 -1.0612  0.9553
13836TIP3    H162999   3.508   5.824  13.324 -0.0044 -0.5933  0.0036
13836TIP3    H263000   3.377   5.826  13.248 -0.8696 -0.9032  1.4560
13837TIP3   OH263001   2.119   0.074   2.045 -0.2788  0.0977 -0.2880
13837TIP3    H163002   2.073   0.123   2.113 -3.2626 -1.2815 -1.1631
13837TIP3    H263003   2.149   0.141   1.984 -1.4163  1.0714  0.1723
13838TIP3   OH263004   1.898   0.710   3.366 -0.2133 -0.2354 -0.2330
13838TIP3    H163005   1.927   0.795   3.398 -1.1881 -0.5672  1.6911
13838TIP3    H263006   1.806   0.706   3.389 -0.2700 -1.6738 -0.6114
13839TIP3   OH263007   0.569   0.614  16.746  0.0521  0.2585  0.0235
13839TIP3    H163008   0.479   0.643  16.727 -0.5307 -1.9025 -0.8455
13839TIP3    H263009   0.585   0.644  16.835 -1.7009  0.3306  0.3557
13840TIP3   OH263010   3.998   5.062  11.516 -0.2533  0.3376  0.6304
13840TIP3    H163011   4.087   5.066  11.480 -0.6852 -0.5039 -0.5870
13840TIP3    H263012   4.010   5.046  11.610  0.9102  2.4780  0.9208
13841TIP3   OH263013   4.986   1.156  15.792 -0.1100 -0.5831  0.4701
13841TIP3    H163014   4.956   1.231  15.741  0.0038 -0.5500  0.4536
13841TIP3    H263015   4.922   1.087  15.774  0.3708 -0.8233 -0.3275
13842TIP3   OH263016   1.118   5.180   0.503  0.3971  0.5042 -0.6307
13842TIP3    H163017   1.053   5.111   0.516  1.2018 -0.3769 -1.1898
13842TIP3    H263018   1.073   5.246   0.450 -0.8106  1.0730  0.9970
13843TIP3   OH263019   6.074   1.646  13.134  0.5882  0.2208  0.1543
13843TIP3    H163020   6.134   1.683  13.198  2.8535  0.3412 -1.9033
13843TIP3    H263021   6.031   1.723  13.096  0.3471  0.2465  0.4707
13844TIP3   OH263022   4.673   6.372   1.290 -0.2944  0.1406  0.2603
13844TIP3    H163023   4.610   6.308   1.322  0.5019 -1.0721 -0.5149
13844TIP3    H263024   4.741   6.320   1.247  1.6913  1.3086  1.7858
13845TIP3   OH263025   2.037   4.208   4.213 -0.5828  0.2937 -0.1864
13845TIP3    H163026   1.970   4.276   4.209  0.1121  0.9718 -0.4407
13845TIP3    H263027   2.026   4.168   4.299 -0.6599  1.0773  0.1704
13846TIP3   OH263028   1.623   3.223  12.884 -0.0260  0.5937  0.0678
13846TIP3    H163029   1.667   3.291  12.935  1.7142 -0.2486 -0.2371
13846TIP3    H263030   1.531   3.248  12.885  0.2936  1.8545  1.6477
13847TIP3   OH263031   0.043   5.972  11.867  0.9783 -0.3407 -0.1716
13847TIP3    H163032   0.050   6.065  11.891  3.1568 -0.5271  0.1261
13847TIP3    H263033   0.133   5.945  11.851  0.3157 -2.2683 -0.8648
13848TIP3   OH263034   6.561   5.913  13.455 -0.0510  0.2904 -0.2962
13848TIP3    H163035   6.611   5.956  13.525  0.7073 -0.7042 -0.2057
13848TIP3    H263036   6.492   5.975  13.433 -1.8443 -0.2904  3.0036
13849TIP3   OH263037   3.609   5.260   6.106 -0.8800  0.2170  0.2835
13849TIP3    H163038   3.702   5.278   6.116 -1.1786  2.5709 -0.5691
13849TIP3    H263039   3.575   5.259   6.196 -0.1096 -0.2399  0.5750
13850TIP3   OH263040   2.973   2.446   5.596 -0.0047  0.3351 -0.3475
13850TIP3    H163041   2.944   2.501   5.523  0.2120  0.9235  0.0008
13850TIP3    H263042   3.004   2.365   5.555  2.0789  1.4507 -1.1172
13851TIP3   OH263043   0.069   3.543   2.305 -0.2921  0.4738 -0.1012
13851TIP3    H163044   0.020   3.490   2.367  1.6053 -0.7002  0.5017
13851TIP3    H263045   0.071   3.491   2.224  1.1517 -0.2368  0.3414
13852TIP3   OH263046   0.391   6.513  15.505  0.4924  0.3327  0.2891
13852TIP3    H163047   0.464   6.539  15.561  0.4297  2.3087 -0.4871
13852TIP3    H263048   0.315   6.558  15.542 -0.3640 -1.5715  0.9873
13853TIP3   OH263049   6.251   5.659  13.395  0.3695 -0.5200  0.2877
13853TIP3    H163050   6.322   5.667  13.459  0.0918  1.8917  0.3825
13853TIP3    H263051   6.290   5.612  13.322  1.4508 -1.0606  1.1813
13854TIP3   OH263052   6.606   2.224   2.306 -0.1112  0.1413 -0.2555
13854TIP3    H163053   6.527   2.273   2.327  0.8513  1.4499  0.4556
13854TIP3    H263054   6.629   2.252   2.217  0.0832  0.4909 -0.0951
13855TIP3   OH263055   1.182   1.409  17.157  0.0103  0.1511 -0.9070
13855TIP3    H163056   1.206   1.340  17.218 -0.3644 -0.0662 -1.0018
13855TIP3    H263057   1.107   1.373  17.109 -0.7134  0.9450 -0.3872
13856TIP3   OH263058   4.509   0.433  11.993 -0.4470 -0.0186  0.3548
13856TIP3    H163059   4.482   0.523  12.013  0.9147  0.5494 -0.2163
13856TIP3    H263060   4.603   0.432  12.008 -0.4035 -1.2877  0.1046
13857TIP3   OH263061   5.142   4.976  10.619  0.6318 -0.3029 -0.3302
13857TIP3    H163062   5.062   5.004  10.574  0.4548 -1.9118 -1.0826
13857TIP3    H263063   5.113   4.951  10.707  0.4899  0.1234 -0.2535
13858TIP3   OH263064   3.628   6.298   3.413 -0.1967  0.0893  0.0714
13858TIP3    H163065   3.596   6.344   3.490 -0.8204  2.0939 -1.2830
13858TIP3    H263066   3.584   6.342   3.340  3.2279  0.8504 -1.7170
13859TIP3   OH263067   4.566   0.536   5.464 -0.2846  0.3832  0.3487
13859TIP3    H163068   4.548   0.617   5.511  1.0036  1.3828 -0.7857
13859TIP3    H263069   4.641   0.557   5.408 -0.4185 -1.3642 -0.5627
13860TIP3   OH263070   6.097   4.947  12.279 -0.6005  0.3489  0.4241
13860TIP3    H163071   6.137   4.861  12.267  1.0711  1.2346 -0.8190
13860TIP3    H263072   6.040   4.957  12.203 -0.1472  0.6493  0.1153
13861TIP3   OH263073   3.595   2.300  15.039  1.0282  0.5056  0.1923
13861TIP3    H163074   3.690   2.299  15.054  0.8663  0.3937  1.3036
13861TIP3    H263075   3.565   2.216  15.073  0.3773  1.0609  1.0363
13862TIP3   OH263076   3.707   6.165  15.241  0.3805  0.2680 -0.1668
13862TIP3    H163077   3.738   6.218  15.167  1.0918 -0.9257 -0.7660
13862TIP3    H263078   3.662   6.227  15.298 -0.3310  1.2078 -1.6746
13863TIP3   OH263079   2.943   1.817   2.758  0.0257  0.1093  0.2472
13863TIP3    H163080   2.887   1.743   2.735 -1.1163  1.0765 -0.1506
13863TIP3    H263081   2.963   1.860   2.675  0.8673  0.1330  0.4496
13864TIP3   OH263082   3.612   5.553  14.331  0.0220 -0.1911 -0.3456
13864TIP3    H163083   3.589   5.538  14.423  0.3513 -1.4399 -0.4545
13864TIP3    H263084   3.533   5.593  14.293  0.4881  2.0291  0.8581
13865TIP3   OH263085   0.650   5.964  11.487  0.2499 -0.1862  0.2485
13865TIP3    H163086   0.693   5.949  11.403 -0.9489  0.5925 -0.5256
13865TIP3    H263087   0.702   5.913  11.550  1.6081 -0.1691 -0.8256
13866TIP3   OH263088   5.465   4.518  12.133 -0.1787 -0.0529 -0.1337
13866TIP3    H163089   5.392   4.479  12.086 -2.1518  0.9701  1.8697
13866TIP3    H263090   5.502   4.446  12.185 -0.6531 -0.2847 -0.1194
13867TIP3   OH263091   4.029   0.891  15.927  0.2374 -0.1429  0.4132
13867TIP3    H163092   3.992   0.895  16.016  0.1308  1.0970  0.3263
13867TIP3    H263093   3.976   0.825  15.882 -1.4698  1.1024  0.4998
13868TIP3   OH263094   2.667   1.403  16.271  0.3225 -0.2854 -0.6262
13868TIP3    H163095   2.578   1.402  16.306  1.2737 -0.6906  1.9611
13868TIP3    H263096   2.685   1.495  16.252  0.0155  0.0633  0.7149
13869TIP3   OH263097   0.621   3.966   3.317  0.1506 -0.0290  0.0313
13869TIP3    H163098   0.683   3.926   3.257 -1.1418 -1.4674 -0.4088
13869TIP3    H263099   0.630   3.916   3.398  0.0534  0.2204  0.1988
13870TIP3   OH263100   2.610   2.699   3.688 -0.0235  0.4287 -0.1046
13870TIP3    H163101   2.549   2.735   3.753 -0.1551 -1.7370  1.0497
13870TIP3    H263102   2.562   2.703   3.606 -0.6431  1.3043  0.2815
13871TIP3   OH263103   4.854   5.727  11.880 -0.5261  0.0526 -0.1208
13871TIP3    H163104   4.805   5.723  11.962 -0.2994 -0.7326 -0.0160
13871TIP3    H263105   4.879   5.819  11.871  0.1563  0.0045  1.0973
13872TIP3   OH263106   1.062   0.899   1.998  0.2579  0.2536 -0.2793
13872TIP3    H163107   1.036   0.944   1.918  0.3854  0.3479 -0.2687
13872TIP3    H263108   1.154   0.924   2.011  0.2109  0.3158 -0.0534
13873TIP3   OH263109   2.758   2.170  16.493  0.3090  0.2855 -0.5037
13873TIP3    H163110   2.832   2.141  16.547 -0.8649  0.0722  1.0675
13873TIP3    H263111   2.687   2.110  16.516 -0.6695  1.1557 -1.1692
13874TIP3   OH263112   1.161   1.933   3.480  0.1966  0.5760  0.3093
13874TIP3    H163113   1.152   1.860   3.542 -0.0471 -0.1860 -0.6126
13874TIP3    H263114   1.254   1.954   3.481  0.6713 -1.2178 -1.0417
13875TIP3   OH263115   0.747   6.744  12.414 -0.3521  0.2679 -0.2185
13875TIP3    H163116   0.830   6.773  12.377  0.0044 -1.6813 -1.0999
13875TIP3    H263117   0.772   6.694  12.492 -0.5898 -0.9216 -0.8726
13876TIP3   OH263118   1.706   4.192  17.222  0.6730  0.0238 -0.1100
13876TIP3    H163119   1.639   4.261  17.220  0.5176 -0.0749  0.9084
13876TIP3    H263120   1.788   4.239  17.205  0.4649  0.3050 -0.3586
13877TIP3   OH263121   0.056   4.089   5.411 -0.2218  0.1166  0.2831
13877TIP3    H163122   0.093   4.174   5.389 -1.6102  0.8651  0.6662
13877TIP3    H263123   0.077   4.033   5.336 -0.9773  1.3519 -0.9077
13878TIP3   OH263124   5.291   0.919   5.695 -0.4859  0.4091 -0.1599
13878TIP3    H163125   5.326   0.886   5.778 -0.3007 -0.1813 -0.4660
13878TIP3    H263126   5.218   0.974   5.720 -0.6574 -0.0530  0.3833
13879TIP3   OH263127   6.302   6.508  15.773  0.0571  0.6051 -0.5214
13879TIP3    H163128   6.221   6.533  15.818 -0.9756 -3.4294  0.2367
13879TIP3    H263129   6.366   6.496  15.843  0.7408  1.7594 -0.9286
13880TIP3   OH263130   6.720   4.127   2.442 -0.1769  0.0523  0.0944
13880TIP3    H163131   6.757   4.039   2.442  0.2553  0.2310 -0.3789
13880TIP3    H263132   6.765   4.172   2.370 -1.0780  0.3711 -0.2798
13881TIP3   OH263133   0.670   4.859  13.581  0.0514 -0.1577 -0.2108
13881TIP3    H163134   0.595   4.812  13.544  0.4843  1.2960 -3.2236
13881TIP3    H263135   0.746   4.819  13.539  0.5615  1.7831 -1.2199
13882TIP3   OH263136   0.524   1.175  16.435  0.5369 -0.0812  0.1729
13882TIP3    H163137   0.598   1.116  16.426  0.1049 -0.4919 -0.8569
13882TIP3    H263138   0.486   1.153  16.520  0.1323 -1.6004 -0.3717
13883TIP3   OH263139   0.079   4.097   6.713  1.0405  0.0663  0.1554
13883TIP3    H163140   0.140   4.091   6.786  1.2363 -0.9740 -0.0701
13883TIP3    H263141   0.011   4.032   6.733 -0.1902  1.4392  0.5615
13884TIP3   OH263142   5.754   0.930  13.790 -0.0873 -0.2486 -0.3912
13884TIP3    H163143   5.694   0.944  13.716 -1.3978 -1.2425  0.4292
13884TIP3    H263144   5.803   0.852  13.766  1.1716  0.7548 -1.2126
13885TIP3   OH263145   4.199   6.621   1.727  0.4175 -0.4035  0.1529
13885TIP3    H163146   4.194   6.700   1.782 -0.1035 -1.0828  1.1225
13885TIP3    H263147   4.116   6.619   1.680  0.9306  0.2679 -0.8234
13886TIP3   OH263148   5.124   4.770   3.527 -0.0363  0.0293 -0.3439
13886TIP3    H163149   5.185   4.725   3.468  1.0929  1.2078 -0.1164
13886TIP3    H263150   5.038   4.756   3.487  0.4537 -1.0398 -1.0761
13887TIP3   OH263151   4.807   6.296   1.883 -0.6198 -0.1406 -0.1216
13887TIP3    H163152   4.832   6.225   1.942 -0.1784  0.1442  0.0363
13887TIP3    H263153   4.855   6.279   1.802  1.0142  1.0383  0.5647
13888TIP3   OH263154   2.043   2.619  11.805  0.2480  0.0162  0.0526
13888TIP3    H163155   1.971   2.582  11.754 -0.0175  1.7402 -0.8835
13888TIP3    H263156   2.116   2.624  11.744  0.8879 -0.7670  0.7222
13889TIP3   OH263157   3.728   5.966  14.886  0.4422 -0.2073  0.5803
13889TIP3    H163158   3.725   5.874  14.859 -1.9038 -0.2807  0.8621
13889TIP3    H263159   3.652   5.976  14.943  0.4388  2.0019  0.2685
13890TIP3   OH263160   2.469   0.854  17.183  0.6225 -0.3359  0.4989
13890TIP3    H163161   2.427   0.776  17.148 -0.8878  0.7606 -0.2561
13890TIP3    H263162   2.552   0.859  17.136  0.0662 -0.6825 -0.5671
13891TIP3   OH263163   0.434   6.305  11.945 -0.0971 -0.5714  0.2754
13891TIP3    H163164   0.462   6.354  11.868 -1.9499 -0.9285 -0.6760
13891TIP3    H263165   0.505   6.317  12.008  0.2134  2.0707 -0.4577
13892TIP3   OH263166   3.381   1.827   6.544 -0.1498 -0.2911 -0.2457
13892TIP3    H163167   3.442   1.775   6.596 -0.8112  0.1704  1.0290
13892TIP3    H263168   3.416   1.822   6.455  1.8946  0.1499  0.4705
13893TIP3   OH263169   3.972   3.246   5.264  0.1729 -0.0695  0.1722
13893TIP3    H163170   4.064   3.261   5.242 -0.0984  0.1154 -0.9364
13893TIP3    H263171   3.924   3.297   5.198 -0.7191 -0.3470  0.5975
13894TIP3   OH263172   3.235   5.514   2.054 -0.3397  0.4471  0.2586
13894TIP3    H163173   3.276   5.577   1.995  1.9266 -1.0283  0.1076
13894TIP3    H263174   3.302   5.499   2.122 -0.9405 -1.5058  0.4728
13895TIP3   OH263175   3.294   0.687  13.255  0.2849 -0.2969 -0.6595
13895TIP3    H163176   3.254   0.773  13.267  0.9119 -0.1955  0.9254
13895TIP3    H263177   3.319   0.685  13.163  0.0723  1.1208 -0.7756
13896TIP3   OH263178   6.460   4.161   0.993  1.1526 -0.6566 -0.1524
13896TIP3    H163179   6.536   4.213   0.968  1.6161 -0.3751  1.7017
13896TIP3    H263180   6.395   4.226   1.020 -0.0319 -0.8549 -2.2831
13897TIP3   OH263181   3.642   4.043   4.161  0.0381 -0.1153  0.3499
13897TIP3    H163182   3.719   4.021   4.107 -0.0376 -0.5297  0.4089
13897TIP3    H263183   3.659   4.001   4.245  0.5651  1.2432  0.9578
13898TIP3   OH263184   0.400   2.850   0.686  0.2491  0.1941  0.1661
13898TIP3    H163185   0.480   2.805   0.660  0.1460  0.6337 -0.9769
13898TIP3    H263186   0.337   2.828   0.618 -0.8832 -0.8305  1.4779
13899TIP3   OH263187   0.110   5.134  13.675  0.2085 -0.1986 -0.5008
13899TIP3    H163188   0.049   5.072  13.715 -0.4483  1.0415  0.4594
13899TIP3    H263189   0.054   5.194  13.625  0.6878  0.5739 -0.1222
13900TIP3   OH263190   4.325   2.123  11.796 -0.0039 -0.0377  0.7406
13900TIP3    H163191   4.271   2.077  11.861 -1.6136 -3.7675 -2.8165
13900TIP3    H263192   4.401   2.065  11.784  1.3105  1.6270  0.6204
13901TIP3   OH263193   1.220   0.954   2.803  0.1700  0.2123 -0.0545
13901TIP3    H163194   1.134   0.989   2.779  0.0531 -0.0442 -0.0137
13901TIP3    H263195   1.212   0.860   2.788 -0.3371 -0.1620  2.2643
13902TIP3   OH263196   5.408   1.412  14.235  0.0062  0.0897 -0.1945
13902TIP3    H163197   5.391   1.325  14.197  1.4574 -1.2606  2.0494
13902TIP3    H263198   5.485   1.444  14.187 -1.5584  1.0207 -2.2543
13903TIP3   OH263199   0.074   3.251  12.133  0.5258 -0.3895 -0.0028
13903TIP3    H163200   0.135   3.193  12.087 -1.1710 -1.4393 -1.0310
13903TIP3    H263201   0.003   3.194  12.161 -1.0994  1.1254 -0.8209
13904TIP3   OH263202   5.198   4.405  13.905 -0.2616 -0.0957  0.1744
13904TIP3    H163203   5.227   4.314  13.903 -2.3594 -0.8125 -1.0374
13904TIP3    H263204   5.194   4.428  13.998 -0.2438 -1.4408  0.5252
13905TIP3   OH263205   1.556   1.892   1.775 -0.6359 -0.7291 -0.0261
13905TIP3    H163206   1.525   1.802   1.784 -2.7692 -0.0355  0.0863
13905TIP3    H263207   1.576   1.920   1.864 -2.6174 -0.2464  0.3016
13906TIP3   OH263208   0.760   3.694  13.999  0.2500 -0.3353  0.5669
13906TIP3    H163209   0.745   3.615  14.052  0.5215 -0.0912  1.0153
13906TIP3    H263210   0.855   3.708  14.005  0.3625 -0.5991 -0.4132
13907TIP3   OH263211   3.146   1.414  15.959  0.6110  0.3052  0.8564
13907TIP3    H163212   3.143   1.506  15.984  2.0243 -0.3014  3.6652
13907TIP3    H263213   3.082   1.406  15.889 -0.2376  3.2243  1.1741
13908TIP3   OH263214   2.802   0.171   0.718  0.3387 -0.3491 -0.3339
13908TIP3    H163215   2.785   0.161   0.624 -2.2904 -2.5902  0.2676
13908TIP3    H263216   2.718   0.197   0.755  1.6598  2.0350  1.3290
13909TIP3   OH263217   1.854   4.838  11.442 -0.0562  0.5809 -0.0909
13909TIP3    H163218   1.774   4.834  11.389 -0.5199  1.1515  0.5479
13909TIP3    H263219   1.826   4.877  11.525  0.8937  0.8368  0.1248
13910TIP3   OH263220   0.157   4.993  11.866 -0.3707 -0.3417 -0.0175
13910TIP3    H163221   0.151   5.076  11.912 -0.3928 -0.7080  0.6649
13910TIP3    H263222   0.128   5.012  11.777  3.2858  1.2456 -1.0604
13911TIP3   OH263223   6.366   2.819  15.879 -0.2549  0.0344  0.2168
13911TIP3    H163224   6.376   2.724  15.879  1.7248  0.1740 -1.1371
13911TIP3    H263225   6.386   2.847  15.968  0.8912 -0.6907  0.1930
13912TIP3   OH263226   4.559   4.283  13.343  0.1476 -0.1535  0.0799
13912TIP3    H163227   4.570   4.378  13.336 -0.7814 -0.0776 -0.5770
13912TIP3    H263228   4.617   4.247  13.275  1.1823 -0.1116  0.9287
13913TIP3   OH263229   4.909   3.639  14.487  0.1539  0.1691  0.5824
13913TIP3    H163230   4.886   3.730  14.468 -1.2497 -0.4027 -0.6473
13913TIP3    H263231   4.828   3.590  14.473  1.0936 -1.3956  0.3385
13914TIP3   OH263232   3.301   5.302  16.668 -0.2059 -0.3872  0.8715
13914TIP3    H163233   3.215   5.333  16.640 -0.3613 -0.8989  0.7797
13914TIP3    H263234   3.287   5.266  16.755 -0.2959 -1.4076  0.4440
13915TIP3   OH263235   2.784   1.945   3.296 -0.7248  0.0142  0.2757
13915TIP3    H163236   2.758   2.033   3.270 -0.7465 -0.3673 -1.0467
13915TIP3    H263237   2.725   1.923   3.369 -1.0473  0.8896  0.2865
13916TIP3   OH263238   0.528   0.698   4.004 -0.3292 -0.2055 -0.8422
13916TIP3    H163239   0.620   0.673   4.011 -0.3545  0.1006  1.0003
13916TIP3    H263240   0.481   0.627   4.048 -0.6794  1.1865  1.1596
13917TIP3   OH263241   4.651   4.906   4.526 -0.1339 -0.1624  0.3051
13917TIP3    H163242   4.573   4.853   4.512 -0.9492  0.8400  0.9346
13917TIP3    H263243   4.685   4.877   4.611 -1.4748  1.3159  1.4324
13918TIP3   OH263244   4.986   4.455  14.148 -0.3454 -0.5118  0.4770
13918TIP3    H163245   4.974   4.384  14.211  1.4188 -1.6738 -0.4239
13918TIP3    H263246   4.964   4.416  14.063 -2.3774  0.9392  0.2690
13919TIP3   OH263247   2.531   2.655   3.418  0.0232 -0.4128  0.2985
13919TIP3    H163248   2.446   2.621   3.387  0.0698 -1.2672  1.0532
13919TIP3    H263249   2.592   2.582   3.404  0.1003 -0.7567  2.1064
13920TIP3   OH263250   6.078   6.758  11.460 -0.0863  0.1872 -0.0200
13920TIP3    H163251   6.074   6.686  11.398  0.5946 -0.1723  0.3318
13920TIP3    H263252   5.987   6.784  11.473 -0.5593 -1.8428  1.2613
13921TIP3   OH263253   0.540   1.902   5.346 -0.3207  0.1475 -0.2974
13921TIP3    H163254   0.549   1.980   5.292 -0.1501 -0.3603 -1.0076
13921TIP3    H263255   0.591   1.922   5.425 -2.0508  1.6166  0.5099
13922TIP3   OH263256   1.938   4.162  13.116 -0.1384 -0.0080 -0.2140
13922TIP3    H163257   1.909   4.194  13.201 -1.1216  0.2077 -0.6184
13922TIP3    H263258   1.865   4.109  13.084  0.4981 -0.6530 -0.6234
13923TIP3   OH263259   1.236   3.918   2.503  0.6139 -0.5912 -0.1667
13923TIP3    H163260   1.320   3.940   2.462  0.9429 -0.3864  0.6108
13923TIP3    H263261   1.254   3.915   2.596 -0.2012 -0.7666 -0.0043
13924TIP3   OH263262   6.774   5.705   3.108  0.1736  0.4663  0.4341
13924TIP3    H163263   6.834   5.722   3.181  2.5559 -0.2490 -1.2508
13924TIP3    H263264   6.831   5.691   3.033 -2.1193 -0.8610 -1.1713
13925TIP3   OH263265   0.693   0.518  12.513 -0.3183  0.0826 -0.4783
13925TIP3    H163266   0.722   0.564  12.434 -0.7606 -0.2647 -0.8477
13925TIP3    H263267   0.718   0.427  12.499 -0.7029 -0.0429 -0.3683
13926TIP3   OH263268   2.189   5.864   0.478  0.1686  0.7537 -0.0852
13926TIP3    H163269   2.230   5.901   0.556  1.4337  0.7635 -0.7346
13926TIP3    H263270   2.141   5.938   0.439 -0.2279  0.8189  0.5114
13927TIP3   OH263271   0.096   2.122   5.639 -0.1585  0.3116  0.3651
13927TIP3    H163272   0.182   2.153   5.611  0.1415 -1.1580 -0.4246
13927TIP3    H263273   0.113   2.038   5.681 -1.3202 -0.6089 -0.9305
13928TIP3   OH263274   2.719   3.262   0.191  0.2490 -0.5665  0.1520
13928TIP3    H163275   2.632   3.253   0.152  0.1361 -0.6559  0.4215
13928TIP3    H263276   2.750   3.172   0.200  0.5000 -0.5212 -0.2308
13929TIP3   OH263277   3.802   5.639   0.838 -0.8152  0.5203  0.3951
13929TIP3    H163278   3.741   5.700   0.879 -0.5732  2.4604 -1.9237
13929TIP3    H263279   3.888   5.680   0.848 -0.4160 -0.2596  0.2371
13930TIP3   OH263280   2.795   1.929  15.136  0.3106 -0.2006 -0.3879
13930TIP3    H163281   2.846   1.867  15.083  1.1366  1.1607 -1.2534
13930TIP3    H263282   2.857   1.961  15.201 -0.3624 -0.9216  0.6373
13931TIP3   OH263283   4.856   6.099  15.981 -0.5183  0.1461  0.2283
13931TIP3    H163284   4.878   6.149  15.903 -0.5278 -0.7044 -0.3319
13931TIP3    H263285   4.806   6.160  16.036 -1.6657  0.3567 -1.0145
13932TIP3   OH263286   5.529   0.452   2.007  0.2353  0.0157  0.4735
13932TIP3    H163287   5.450   0.465   1.955 -0.5732  0.6859  1.7969
13932TIP3    H263288   5.501   0.468   2.097  2.2485  2.0666  0.8437
13933TIP3   OH263289   2.826   6.573  15.192 -0.3457  0.0145 -0.5991
13933TIP3    H163290   2.810   6.661  15.226  1.9177 -0.1964  1.2393
13933TIP3    H263291   2.739   6.534  15.186 -1.2636  1.7962  0.2063
13934TIP3   OH263292   3.330   6.111  14.303 -0.2394 -0.0425  0.4655
13934TIP3    H163293   3.320   6.193  14.256  1.0391 -0.6299 -0.9107
13934TIP3    H263294   3.291   6.045  14.247 -0.0154 -0.5597  0.9031
13935TIP3   OH263295   4.832   5.573   3.159 -0.3019 -0.0492  0.0265
13935TIP3    H163296   4.800   5.498   3.108 -0.2534  0.3422 -0.5880
13935TIP3    H263297   4.852   5.640   3.093 -0.3453  0.5034  0.5712
13936TIP3   OH263298   1.425   6.606   0.651  0.9138  0.0258  0.1810
13936TIP3    H163299   1.456   6.681   0.703  1.3982  0.3221 -0.5190
13936TIP3    H263300   1.330   6.605   0.665  0.4729  2.4525 -1.8960
13937TIP3   OH263301   2.846   1.177   0.033 -0.6826 -0.3895  0.1558
13937TIP3    H163302   2.843   1.261  -0.014  2.7515 -0.9840 -1.5238
13937TIP3    H263303   2.815   1.113  -0.031 -1.2208 -0.6410  0.6633
13938TIP3   OH263304   4.023   1.557  12.035  0.7414  0.0896  0.2714
13938TIP3    H163305   3.943   1.542  11.985  1.0905 -1.9009  0.2502
13938TIP3    H263306   4.091   1.566  11.969  0.7847  0.1830  0.3288
13939TIP3   OH263307   2.054   2.557   4.745  0.0281  0.9328 -0.3124
13939TIP3    H163308   2.029   2.488   4.684  0.6391  0.0271  0.4275
13939TIP3    H263309   1.978   2.616   4.747 -1.4435 -0.8574  0.6471
13940TIP3   OH263310   2.796   0.426   3.730  0.4340  0.0996 -0.7382
13940TIP3    H163311   2.890   0.409   3.724  0.5242  0.6320 -0.9154
13940TIP3    H263312   2.780   0.497   3.667 -0.4417 -1.3454 -2.2208
13941TIP3   OH263313   4.805   6.679   1.090  0.2857  0.8032 -0.2856
13941TIP3    H163314   4.803   6.739   1.165  1.7211  3.0792 -1.9206
13941TIP3    H263315   4.896   6.649   1.087 -0.1179 -0.4392 -0.2766
13942TIP3   OH263316   6.149   4.460  15.363  0.0532  0.3369 -0.8729
13942TIP3    H163317   6.062   4.498  15.353  0.2182  0.3293 -2.6467
13942TIP3    H263318   6.180   4.493  15.447 -1.1979  1.3049 -0.7639
13943TIP3   OH263319   0.091   2.064   2.823 -0.0522 -0.3711 -0.1136
13943TIP3    H163320   0.110   2.028   2.910  1.9775 -1.3672 -0.9086
13943TIP3    H263321   0.167   2.118   2.802 -0.7097  0.2099 -1.1231
13944TIP3   OH263322   0.693   1.438   0.444 -0.1089 -0.1195  0.4380
13944TIP3    H163323   0.671   1.480   0.528  2.5100  0.3165  0.9878
13944TIP3    H263324   0.741   1.359   0.469 -2.2551 -1.8695 -0.6561
13945TIP3   OH263325   4.195   1.806   5.296  0.4477 -0.5328 -0.1640
13945TIP3    H163326   4.180   1.720   5.335 -0.1900 -0.3650 -0.0389
13945TIP3    H263327   4.181   1.793   5.202  0.6070 -0.6193 -0.1770
13946TIP3   OH263328   5.726   1.977   3.301 -0.0188 -0.0153 -0.3869
13946TIP3    H163329   5.672   1.963   3.224  2.0359  0.5480 -2.0075
13946TIP3    H263330   5.692   2.058   3.340 -0.7519 -0.0322 -0.9741
13947TIP3   OH263331   4.857   3.744  13.866 -0.2657  0.1093 -0.2438
13947TIP3    H163332   4.837   3.685  13.794  0.6008 -0.4383 -0.0564
13947TIP3    H263333   4.804   3.712  13.939  0.8520 -1.0248  0.1137
13948TIP3   OH263334   1.198   6.410   3.886  0.3466 -0.1851  0.3760
13948TIP3    H163335   1.273   6.437   3.834  1.2575  0.9054  2.1606
13948TIP3    H263336   1.212   6.317   3.903  0.3713 -0.3925 -0.7400
13949TIP3   OH263337   4.948   6.770  13.849  0.7283  0.3024  0.3248
13949TIP3    H163338   5.028   6.792  13.896  0.6353  1.2336  0.0646
13949TIP3    H263339   4.907   6.701  13.901  0.0061  2.1342  2.3148
13950TIP3   OH263340   0.971   5.645   0.051  0.0094  0.1609  0.5706
13950TIP3    H163341   0.970   5.632   0.146  1.0294  0.8924  0.6989
13950TIP3    H263342   1.062   5.630   0.025  0.2075  2.0379  0.0334
13951TIP3   OH263343   4.966   0.868   3.147  0.3858  0.5003 -0.1547
13951TIP3    H163344   4.877   0.853   3.117 -0.1202  0.8526  1.1404
13951TIP3    H263345   4.962   0.949   3.198  1.0242 -0.5175  1.5905
13952TIP3   OH263346   1.082   5.505   6.541  0.0059  0.5157  0.5580
13952TIP3    H163347   1.043   5.420   6.562 -0.1694  1.0631  2.6804
13952TIP3    H263348   1.018   5.569   6.572  0.1830  1.4480 -0.9122
13953TIP3   OH263349   5.406   3.090   1.453  0.2180 -0.5567 -0.5629
13953TIP3    H163350   5.456   3.169   1.428 -1.1920  0.9019  0.9711
13953TIP3    H263351   5.462   3.017   1.426  0.5989  0.8781 -4.0962
13954TIP3   OH263352   6.802   0.809  11.516 -0.2634  0.5092 -0.7032
13954TIP3    H163353   6.714   0.841  11.495 -0.3996 -0.0864 -1.0778
13954TIP3    H263354   6.826   0.755  11.441 -1.0206 -2.1873  0.8341
13955TIP3   OH263355   0.419   6.533  13.706  0.2302 -0.4978 -0.5110
13955TIP3    H163356   0.397   6.471  13.775 -1.0706 -1.2944 -1.5965
13955TIP3    H263357   0.358   6.513  13.635 -0.5250  2.3002 -0.7770
13956TIP3   OH263358   0.309   0.202   4.093 -0.2173  0.0578 -0.0939
13956TIP3    H163359   0.276   0.208   4.183  2.1545 -1.1724  0.9398
13956TIP3    H263360   0.230   0.193   4.040 -1.6465 -0.4210  1.9702
13957TIP3   OH263361   5.280   1.268  12.829  0.0430 -0.5831  0.3227
13957TIP3    H163362   5.248   1.344  12.877 -1.8538 -1.1595  0.0606
13957TIP3    H263363   5.279   1.197  12.893  0.4132 -0.7164  0.1866
13958TIP3   OH263364   2.670   5.645  16.230 -0.4770 -0.3330 -0.1284
13958TIP3    H163365   2.743   5.635  16.169  0.0597  3.7237 -0.3772
13958TIP3    H263366   2.711   5.641  16.317 -0.5675 -1.5432 -0.1181
13959TIP3   OH263367   1.678   6.519   4.230 -0.2488  0.2590  0.4828
13959TIP3    H163368   1.733   6.566   4.167 -0.8022 -0.4710 -0.5797
13959TIP3    H263369   1.646   6.587   4.289 -1.1405  1.2830 -1.0853
13960TIP3   OH263370   6.661   5.273   0.723  0.0115  0.5322 -0.2094
13960TIP3    H163371   6.635   5.214   0.652  0.1170 -0.6529  0.7113
13960TIP3    H263372   6.584   5.327   0.739 -0.8984 -0.9128  0.4682
13961TIP3   OH263373   6.740   0.101  14.277 -0.2219  0.0870  0.0220
13961TIP3    H163374   6.822   0.076  14.234  0.3723  1.9802 -0.0163
13961TIP3    H263375   6.671   0.065  14.221  0.5578  0.8318 -1.4555
13962TIP3   OH263376   1.274   6.228  15.147  0.6090  0.3508  0.1850
13962TIP3    H163377   1.369   6.216  15.144  0.8669  2.1799 -0.4925
13962TIP3    H263378   1.262   6.323  15.145 -1.1954  0.2304  2.0133
13963TIP3   OH263379   3.118   5.847   1.618  0.0407 -0.1163  0.2488
13963TIP3    H163380   3.063   5.809   1.686 -0.5588 -0.1516 -0.2478
13963TIP3    H263381   3.149   5.930   1.655  0.8308 -0.7520  1.0863
13964TIP3   OH263382   0.971   3.834   3.710  0.2811 -0.2372 -0.4993
13964TIP3    H163383   1.011   3.898   3.651  1.1546  0.2577  0.5947
13964TIP3    H263384   0.907   3.789   3.656  2.1512 -0.9237 -2.2859
13965TIP3   OH263385   1.616   5.897   2.033 -0.3440 -0.1555 -0.1088
13965TIP3    H163386   1.551   5.910   1.963 -1.5307  0.9145  1.1442
13965TIP3    H263387   1.667   5.977   2.035  0.5459 -0.6921 -0.5711
13966TIP3   OH263388   4.834   4.128  15.591  0.5940  0.1144 -0.1752
13966TIP3    H163389   4.877   4.130  15.506  0.7700 -0.8539 -0.1272
13966TIP3    H263390   4.821   4.220  15.614  1.3450  0.3992 -0.8429
13967TIP3   OH263391   3.009   5.830   2.308  0.6058  0.2538 -0.2552
13967TIP3    H163392   3.047   5.855   2.225 -2.4573  0.0755 -1.8594
13967TIP3    H263393   2.923   5.872   2.310  0.5456  0.2690  2.8557
13968TIP3   OH263394   4.325   0.923  11.990  0.2476 -0.1446  0.0624
13968TIP3    H163395   4.410   0.946  12.027  0.1561 -2.7795  2.1450
13968TIP3    H263396   4.345   0.859  11.922 -0.0569 -0.7781  0.5648
13969TIP3   OH263397   4.013   3.125  12.668  0.3741  0.0393 -0.5472
13969TIP3    H163398   4.007   3.099  12.760 -0.7811  0.9537 -0.3354
13969TIP3    H263399   4.042   3.046  12.622  0.2235 -0.6448  0.5030
13970TIP3   OH263400   5.985   0.371   2.337  0.0360  0.2243  0.2578
13970TIP3    H163401   6.012   0.411   2.254 -1.8192 -0.5865 -0.7942
13970TIP3    H263402   5.947   0.443   2.387 -0.9446  0.3186 -0.5788
13971TIP3   OH263403   1.096   0.463   2.477 -0.5062 -0.4004  0.8031
13971TIP3    H163404   1.116   0.421   2.394  1.7655 -0.8606  1.5317
13971TIP3    H263405   1.021   0.414   2.511 -0.2320 -1.4620 -0.0648
13972TIP3   OH263406   5.692   5.450   4.800 -0.4369 -0.3184 -0.1820
13972TIP3    H163407   5.680   5.411   4.714 -0.0436  1.3709 -1.0511
13972TIP3    H263408   5.753   5.522   4.785  1.9974 -1.7215  2.0265
13973TIP3   OH263409   2.992   3.604   3.450 -0.2813  0.9152  0.3516
13973TIP3    H163410   2.900   3.577   3.446 -0.5840  1.6909  1.4284
13973TIP3    H263411   3.015   3.626   3.360 -1.3168  1.2122  0.1442
13974TIP3   OH263412   1.121   3.461  13.257  0.2775 -0.3042 -0.3129
13974TIP3    H163413   1.056   3.451  13.186 -2.1391  2.7802  1.1957
13974TIP3    H263414   1.097   3.394  13.321 -0.1167 -0.5243 -0.6836
13975TIP3   OH263415   3.961   5.851   1.012  0.1129 -0.0274  0.0715
13975TIP3    H163416   3.946   5.780   1.074 -0.6960 -0.2632 -0.3835
13975TIP3    H263417   3.892   5.915   1.031  0.5873  0.4554  0.2081
13976TIP3   OH263418   4.993   3.991   1.652 -0.4609  0.5818 -0.1447
13976TIP3    H163419   5.086   4.001   1.672 -1.0408  1.8441  2.3745
13976TIP3    H263420   4.958   4.080   1.655 -1.6780  0.1946 -1.6355
13977TIP3   OH263421   0.102   2.790  12.354  0.1444 -0.2680  0.0400
13977TIP3    H163422   0.162   2.767  12.425  0.0824  1.5437  0.7361
13977TIP3    H263423   0.140   2.751  12.276  1.1564 -0.8218  0.7908
13978TIP3   OH263424   1.100   6.773  12.654 -0.2148 -0.2174  0.2091
13978TIP3    H163425   1.123   6.687  12.689  0.5762 -0.4801 -0.8808
13978TIP3    H263426   1.025   6.801  12.706 -2.3576 -2.8343 -1.1948
13979TIP3   OH263427   2.827   1.407  11.665  0.2498 -0.6656  0.7876
13979TIP3    H163428   2.873   1.483  11.702 -0.1825 -0.5167  1.0195
13979TIP3    H263429   2.800   1.357  11.741 -0.7808 -0.2805  0.6863
13980TIP3   OH263430   4.690   2.258  14.884  0.4162  0.0325 -0.0950
13980TIP3    H163431   4.742   2.325  14.927  1.5853 -0.9384  0.0625
13980TIP3    H263432   4.599   2.285  14.898  0.8513  1.8961 -0.5755
13981TIP3   OH263433   2.570   2.401  13.944 -0.2618 -0.1453  0.2676
13981TIP3    H163434   2.515   2.468  13.904 -0.8732 -0.5659  0.3872
13981TIP3    H263435   2.522   2.375  14.023  0.2282 -0.3482  0.5045
13982TIP3   OH263436   3.128   0.889   4.085 -0.1465 -0.5176 -0.1687
13982TIP3    H163437   3.108   0.952   4.154  2.4097 -2.8052  2.9676
13982TIP3    H263438   3.198   0.930   4.035  0.4206 -0.1872  0.8508
13983TIP3   OH263439   5.031   2.492   1.101 -0.2263 -0.4904 -0.3466
13983TIP3    H163440   4.996   2.429   1.038  2.2456  0.1955 -2.6061
13983TIP3    H263441   5.030   2.576   1.055 -1.6997  0.8345  1.9133
13984TIP3   OH263442   6.592   6.199   1.257  0.4647  0.2177  0.0414
13984TIP3    H163443   6.654   6.259   1.298  1.2689  0.3501 -1.3116
13984TIP3    H263444   6.521   6.190   1.321  2.2123 -0.5445  1.9873
13985TIP3   OH263445   0.223   4.954  15.194  0.1415 -0.0477  0.6916
13985TIP3    H163446   0.287   5.005  15.244  0.6436  1.7292 -1.6091
13985TIP3    H263447   0.273   4.921  15.118 -1.0790 -0.7935  0.1803
13986TIP3   OH263448   3.233   2.211   5.179 -0.1360  0.0884 -0.0697
13986TIP3    H163449   3.142   2.209   5.149 -0.4304  0.3439  0.7846
13986TIP3    H263450   3.266   2.123   5.161 -0.8660 -0.3254  0.5527
13987TIP3   OH263451   4.641   3.316  12.733  0.4258  0.3929  0.2882
13987TIP3    H163452   4.606   3.301  12.645 -0.5202  0.9232  0.5582
13987TIP3    H263453   4.706   3.386  12.721  0.4470  0.3214 -0.0238
13988TIP3   OH263454   4.759   1.560  16.547  0.1623 -0.2612 -0.2398
13988TIP3    H163455   4.812   1.637  16.523  0.8549 -0.2651  1.1504
13988TIP3    H263456   4.819   1.505  16.598 -0.5265 -1.4103 -0.6307
13989TIP3   OH263457   4.385   6.260   1.736  0.0738 -0.4242  0.0624
13989TIP3    H163458   4.473   6.234   1.710  0.6958  0.7477  0.8734
13989TIP3    H263459   4.360   6.328   1.673 -0.5394 -1.2040 -0.5619
13990TIP3   OH263460   2.541   2.712  16.295 -0.4422 -0.5164  0.3359
13990TIP3    H163461   2.494   2.679  16.219 -0.9046 -1.3466  0.9625
13990TIP3    H263462   2.531   2.643  16.361  2.6059 -1.3134  0.1561
13991TIP3   OH263463   1.973   4.981  12.716  0.1823  0.3884 -0.6180
13991TIP3    H163464   1.879   4.983  12.736  0.3408  0.3536  0.1260
13991TIP3    H263465   1.991   4.889  12.694  0.0032  0.4352 -0.9732
13992TIP3   OH263466   6.801   0.746   4.056  0.2290  0.3247  0.2673
13992TIP3    H163467   6.878   0.706   4.097  1.7536  3.4765  0.7556
13992TIP3    H263468   6.752   0.784   4.130 -1.7260 -1.3737 -0.0681
13993TIP3   OH263469   3.637   0.822   4.127 -0.3936  0.5310 -0.6073
13993TIP3    H163470   3.684   0.775   4.058 -0.4860  0.8611 -0.8983
13993TIP3    H263471   3.651   0.769   4.206  0.4107  0.5860 -0.7012
13994TIP3   OH263472   1.996   1.445  16.841  0.7798 -0.3573 -0.2235
13994TIP3    H163473   2.062   1.387  16.879  2.3287  2.3917  1.6348
13994TIP3    H263474   2.016   1.447  16.747  0.8241 -2.5312 -0.2919
13995TIP3   OH263475   2.940   1.293   4.518  0.2746  1.0067  0.1010
13995TIP3    H163476   2.969   1.203   4.535 -0.2541  0.5058 -1.4739
13995TIP3    H263477   2.863   1.283   4.462 -0.7176  2.4172  1.1547
13996TIP3   OH263478   6.255   5.876  11.271  0.0419 -0.2965  0.3466
13996TIP3    H163479   6.320   5.830  11.216  0.7931 -0.1959  1.1393
13996TIP3    H263480   6.255   5.966  11.238  1.1980  0.0005  1.1254
13997TIP3   OH263481   4.552   6.069   1.957 -0.5341 -0.4465 -0.0750
13997TIP3    H163482   4.525   6.157   1.984  0.3812 -0.0405 -0.4298
13997TIP3    H263483   4.556   6.074   1.862  0.5699 -0.5428 -0.0476
13998TIP3   OH263484   4.445   5.984   5.806  0.0803 -0.2457 -0.4633
13998TIP3    H163485   4.484   5.998   5.892 -1.9650  0.1358  0.4567
13998TIP3    H263486   4.505   6.027   5.745  1.5579 -0.5231  0.7526
13999TIP3   OH263487   1.213   0.812  11.690  0.6899 -0.7829  0.0729
13999TIP3    H163488   1.246   0.833  11.603  0.0539 -0.1369 -0.0280
13999TIP3    H263489   1.121   0.791  11.676  0.3103  0.3624  0.7048
14000TIP3   OH263490   1.998   2.330  15.533 -0.2054  0.1178 -0.1974
14000TIP3    H163491   1.995   2.401  15.469  1.4231  0.3582 -0.0453
14000TIP3    H263492   2.061   2.268  15.497  0.4084  0.0478  0.9550
14001TIP3   OH263493   1.282   0.554  13.459 -0.0023 -0.0984 -0.0115
14001TIP3    H163494   1.195   0.566  13.420 -0.6847 -0.5385  1.3183
14001TIP3    H263495   1.288   0.460  13.474  0.5209 -0.0068  0.3470
14002TIP3   OH263496   6.483   4.141   5.438 -0.3073 -0.2889  0.4973
14002TIP3    H163497   6.393   4.142   5.469 -1.9928 -1.4517 -3.7289
14002TIP3    H263498   6.507   4.048   5.436  0.7552 -0.0414  0.8368
14003TIP3   OH263499   6.663   0.960  15.403  0.5732 -0.1054  0.0042
14003TIP3    H163500   6.756   0.960  15.428  0.9346  3.0716 -0.8631
14003TIP3    H263501   6.661   0.921  15.316  1.5399  1.8983 -0.9863
14004TIP3   OH263502   1.506   1.103   3.209  0.3169 -0.4783 -0.2420
14004TIP3    H163503   1.528   1.143   3.125  0.3964 -1.0560 -0.5014
14004TIP3    H263504   1.414   1.078   3.202  0.2063 -0.1494 -0.0010
14005TIP3   OH263505   3.879   2.130   5.864 -0.0286  0.2015  0.2962
14005TIP3    H163506   3.873   2.155   5.956  1.9120 -2.0261  1.1659
14005TIP3    H263507   3.827   2.050   5.857 -0.7782  0.7609 -0.7443
14006TIP3   OH263508   6.411   4.190  13.171 -0.3174 -0.0650 -0.5947
14006TIP3    H163509   6.382   4.221  13.256  0.1503  1.6540 -1.0139
14006TIP3    H263510   6.341   4.214  13.111  0.2432  0.6035 -1.0003
14007TIP3   OH263511   3.294   0.308   3.045  0.1949  0.4956 -0.1972
14007TIP3    H163512   3.223   0.255   3.008  1.1645 -0.8415 -0.2211
14007TIP3    H263513   3.285   0.394   3.003  0.2498 -0.4776 -2.3202
14008TIP3   OH263514   0.635   3.123  12.853  0.4860  0.1738  0.1167
14008TIP3    H163515   0.678   3.097  12.772  1.2678  2.0836 -0.1391
14008TIP3    H263516   0.590   3.205  12.832 -0.0251  0.2522  1.3909
14009TIP3   OH263517   4.082   2.902   2.719  0.3916  0.0153 -0.6898
14009TIP3    H163518   3.990   2.916   2.698  0.1843 -0.5418 -0.1847
14009TIP3    H263519   4.129   2.963   2.663 -0.2399 -0.2217 -1.4924
14010TIP3   OH263520   5.407   5.112   3.205 -0.3180 -0.5364  0.0890
14010TIP3    H163521   5.347   5.061   3.151  0.0123 -0.0757 -0.7449
14010TIP3    H263522   5.388   5.086   3.295 -0.8552 -1.3578 -0.2536
14011TIP3   OH263523   2.357   3.785   6.190  0.1611 -0.2674 -0.1450
14011TIP3    H163524   2.359   3.715   6.125 -0.8112 -1.4732  1.0665
14011TIP3    H263525   2.429   3.843   6.164  0.5290 -1.3085 -1.6098
14012TIP3   OH263526   2.136   0.718   1.672  1.0577  0.3956 -0.4349
14012TIP3    H163527   2.165   0.679   1.589 -2.1049 -0.5921 -1.2020
14012TIP3    H263528   2.050   0.755   1.652 -0.2123 -0.6226  2.6114
14013TIP3   OH263529   3.060   4.316  11.891 -0.0034 -0.0961 -0.0217
14013TIP3    H163530   3.062   4.236  11.838  1.1125 -0.3703  0.4056
14013TIP3    H263531   2.972   4.318  11.928 -0.2137 -0.8524 -0.4610
14014TIP3   OH263532   1.685   4.055   1.815 -1.0595 -0.0506  0.5963
14014TIP3    H163533   1.729   4.106   1.747 -2.1436 -0.4012 -0.3979
14014TIP3    H263534   1.757   4.012   1.863 -0.2172  1.1896  0.4898
14015TIP3   OH263535   6.430   1.793   3.553  0.2442 -0.5623  0.2612
14015TIP3    H163536   6.336   1.802   3.538  0.1471  0.3447  1.2949
14015TIP3    H263537   6.460   1.882   3.568  1.0339 -0.9763  1.2089
14016TIP3   OH263538   0.742   5.275   5.775  0.2975 -0.5796 -0.3369
14016TIP3    H163539   0.691   5.219   5.718  0.0710 -0.5848 -0.1321
14016TIP3    H263540   0.814   5.306   5.721 -0.6318  0.4740 -1.0234
14017TIP3   OH263541   1.195   5.139  11.275 -0.2791 -0.3203 -0.2240
14017TIP3    H163542   1.181   5.065  11.216 -1.0731  0.2184 -0.7208
14017TIP3    H263543   1.242   5.204  11.222  0.6980 -0.5806  0.3021
14018TIP3   OH263544   6.571   6.343  14.387  0.9127  0.1148 -0.3726
14018TIP3    H163545   6.566   6.410  14.319 -0.8918  1.5390  1.0812
14018TIP3    H263546   6.482   6.336  14.421  1.4797 -1.5660  0.9072
14019TIP3   OH263547   4.397   6.230  15.526  0.2801  0.1009  0.2308
14019TIP3    H163548   4.328   6.164  15.529  0.9854 -0.7391 -1.0486
14019TIP3    H263549   4.377   6.290  15.598 -1.0083 -0.8799  0.7132
14020TIP3   OH263550   6.505   2.275   4.146  0.6355  0.3938 -0.1003
14020TIP3    H163551   6.599   2.291   4.155  0.7059  1.2743 -1.9441
14020TIP3    H263552   6.465   2.325   4.217  1.4443  1.8612 -0.6300
14021TIP3   OH263553   5.815   3.077   5.084 -0.1851  0.1468  0.3493
14021TIP3    H163554   5.833   3.093   5.177 -0.5194 -0.3102  0.4965
14021TIP3    H263555   5.734   3.026   5.084 -1.4706  2.0857 -0.2866
14022TIP3   OH263556   4.904   5.016  13.831  0.7826  0.5016  0.3207
14022TIP3    H163557   4.947   4.931  13.841  2.3969  1.3423  0.8594
14022TIP3    H263558   4.975   5.080  13.837 -0.2147  1.8608 -1.2743
14023TIP3   OH263559   1.941   2.478  14.681 -0.1730 -0.4610  0.1808
14023TIP3    H163560   1.926   2.387  14.704 -1.1184 -0.5013 -0.5449
14023TIP3    H263561   1.854   2.514  14.666  0.2625  0.0963 -1.2473
14024TIP3   OH263562   2.063   2.916   5.772 -0.0139  0.2180 -0.1564
14024TIP3    H163563   2.041   2.826   5.794 -0.7001  0.5049  0.3636
14024TIP3    H263564   2.034   2.927   5.681 -1.1871  0.3052  0.2110
14025TIP3   OH263565   5.358   0.141  17.126 -0.8168  0.1209 -0.1421
14025TIP3    H163566   5.359   0.166  17.218  0.4074  2.6987 -0.7512
14025TIP3    H263567   5.286   0.192  17.088 -0.3087  0.3077 -0.8830
14026TIP3   OH263568   1.319   4.639   1.108 -0.1260  0.8180  0.1259
14026TIP3    H163569   1.382   4.703   1.140 -0.8510  0.9995  1.2317
14026TIP3    H263570   1.234   4.683   1.113 -0.5445  0.0350  0.1873
14027TIP3   OH263571   6.017   5.074  16.825  0.1355  0.6294 -0.0811
14027TIP3    H163572   6.016   5.019  16.747 -0.1568  1.5547 -0.7503
14027TIP3    H263573   5.971   5.154  16.799 -1.8673  0.1408  1.6508
14028TIP3   OH263574   1.358   1.677   4.173  0.7636 -0.6637  0.3161
14028TIP3    H163575   1.284   1.650   4.227  0.2501 -3.3108 -1.5097
14028TIP3    H263576   1.323   1.744   4.115  0.5825  0.1400  1.3298
14029TIP3   OH263577   4.333   6.572  12.453 -0.1169  0.1199  0.0596
14029TIP3    H163578   4.376   6.488  12.439 -1.0714 -0.1957 -1.1914
14029TIP3    H263579   4.252   6.567  12.401 -0.6726  1.4381  0.7353
14030TIP3   OH263580   4.634   5.611   4.562  0.6107  0.0090  0.5696
14030TIP3    H163581   4.720   5.582   4.530 -0.1427 -0.3482 -1.2841
14030TIP3    H263582   4.632   5.704   4.542  0.2910 -0.1379 -0.1355
14031TIP3   OH263583   3.283   4.946   5.707  0.3006 -0.2007 -0.7949
14031TIP3    H163584   3.232   4.899   5.641 -0.2677 -0.3703 -0.2394
14031TIP3    H263585   3.281   5.037   5.678  1.5177 -0.5077 -1.9539
14032TIP3   OH263586   1.108   0.900   6.694  0.6128 -0.2227 -0.3763
14032TIP3    H163587   1.149   0.984   6.678 -1.3586  0.8429 -0.1173
14032TIP3    H263588   1.022   0.921   6.729 -0.3620 -2.3204 -1.2995
14033TIP3   OH263589   4.088   1.188  11.076 -0.0134 -0.8269 -0.1827
14033TIP3    H163590   4.077   1.282  11.066 -3.1618 -1.1010 -0.3037
14033TIP3    H263591   4.023   1.162  11.140 -0.9127 -3.2065 -1.8874
14034TIP3   OH263592   0.182   0.956  15.511  0.8952 -0.1238 -0.1615
14034TIP3    H163593   0.157   1.026  15.572 -1.0772 -1.3008  0.4766
14034TIP3    H263594   0.203   0.881  15.568  0.3724 -0.8364 -0.8869
14035TIP3   OH263595   5.380   0.261   5.289 -0.1514 -0.0657  0.0211
14035TIP3    H163596   5.401   0.264   5.196 -1.5649 -0.7239 -0.3419
14035TIP3    H263597   5.295   0.305   5.296 -1.8482 -3.1290  0.4042
14036TIP3   OH263598   6.011   1.598   1.007  0.0657  0.6007 -0.8315
14036TIP3    H163599   6.008   1.524   0.947  0.3913 -0.0424 -0.0825
14036TIP3    H263600   6.033   1.673   0.952 -1.9482  0.4911 -1.8986
14037TIP3   OH263601   4.876   0.110  15.886 -0.1403 -0.1543  0.0695
14037TIP3    H163602   4.827   0.180  15.842  0.5013  0.8691  0.9365
14037TIP3    H263603   4.921   0.154  15.957 -2.3979 -1.9540  2.8339
14038TIP3   OH263604   6.256   0.704   0.140  0.6875  0.2419 -0.5076
14038TIP3    H163605   6.208   0.640   0.088  0.2627  0.8259 -0.8420
14038TIP3    H263606   6.348   0.677   0.133  0.3253 -1.8981  1.5155
14039TIP3   OH263607   6.643   3.356  11.187 -0.2074  0.1835 -0.2708
14039TIP3    H163608   6.610   3.446  11.181  1.6125  1.0754  1.7573
14039TIP3    H263609   6.717   3.362  11.248 -1.4279 -3.0877  1.7627
14040TIP3   OH263610   4.606   6.590  13.842  0.2458 -0.6497 -0.3449
14040TIP3    H163611   4.630   6.540  13.919  0.3342 -0.3136 -0.1533
14040TIP3    H263612   4.554   6.663  13.876  0.4369 -0.3991 -0.5836
14041TIP3   OH263613   4.345   2.165  13.205  0.3826 -0.3424  0.1136
14041TIP3    H163614   4.257   2.158  13.244 -0.6246 -0.5986 -2.0782
14041TIP3    H263615   4.403   2.124  13.270 -1.0481  0.0939  1.7500
14042TIP3   OH263616   4.739   0.422  11.519 -0.3374 -0.1571  0.6202
14042TIP3    H163617   4.696   0.450  11.438  0.7197  1.2765  0.5242
14042TIP3    H263618   4.667   0.406  11.580 -1.1041 -0.3552 -0.3098
14043TIP3   OH263619   1.993   0.941  14.958  0.1919 -0.1994 -0.2787
14043TIP3    H163620   1.901   0.968  14.960 -0.0676 -0.7391 -2.5278
14043TIP3    H263621   1.991   0.846  14.970  0.5314 -0.1354  0.3408
14044TIP3   OH263622   5.080   6.048  16.531 -0.7032  0.1131  0.6110
14044TIP3    H163623   5.072   5.953  16.538  1.0264 -0.5988 -3.7262
14044TIP3    H263624   5.143   6.071  16.600  2.2780 -2.7112 -0.8962
14045TIP3   OH263625   1.661   1.809  11.923  0.5169  0.1494 -0.1173
14045TIP3    H163626   1.672   1.828  12.017  1.1410  0.7160 -0.2933
14045TIP3    H263627   1.575   1.769  11.917  0.5154 -0.0026  0.7198
14046TIP3   OH263628   3.087   1.302   3.292 -0.3686 -0.6762  0.2775
14046TIP3    H163629   3.044   1.233   3.243 -1.9860  0.7571 -0.4400
14046TIP3    H263630   3.173   1.311   3.251 -0.6398 -1.3881 -0.4672
14047TIP3   OH263631   5.114   1.942   1.094 -0.3435  0.2149  0.4136
14047TIP3    H163632   5.165   1.867   1.126 -0.2041 -0.0430 -0.3824
14047TIP3    H263633   5.179   2.012   1.084 -0.2977  0.1462  0.2255
14048TIP3   OH263634   1.976   0.495  12.966  0.0979 -0.1190 -0.5784
14048TIP3    H163635   1.967   0.451  12.882 -1.7728 -0.2847 -0.3195
14048TIP3    H263636   2.051   0.452  13.008 -0.4043 -1.6375 -1.1975
14049TIP3   OH263637   0.824   1.871  13.539 -0.1385 -0.2494 -0.2514
14049TIP3    H163638   0.867   1.914  13.614 -0.0314 -0.4500 -0.1968
14049TIP3    H263639   0.886   1.803  13.512  0.0014  0.0804 -0.7775
14050TIP3   OH263640   0.045   1.754   3.980 -0.3153 -0.3631  0.2651
14050TIP3    H163641   0.025   1.665   4.009 -0.8844 -0.5262 -0.5936
14050TIP3    H263642  -0.039   1.789   3.951 -0.1813  0.6276  1.0142
14051TIP3   OH263643   2.879   3.275  16.047  0.0861  0.4981  0.1448
14051TIP3    H163644   2.809   3.254  16.109 -0.4688  0.3652 -0.5104
14051TIP3    H263645   2.909   3.362  16.072 -1.4413  1.2692 -0.5564
14052TIP3   OH263646   2.591   3.472  13.171  0.5131  0.3493  0.4202
14052TIP3    H163647   2.618   3.442  13.084  2.7063  0.7905  0.8840
14052TIP3    H263648   2.511   3.521  13.156  1.1533  0.9057 -1.4417
14053TIP3   OH263649   1.380   3.529   4.767  0.3833 -0.1837  0.1313
14053TIP3    H163650   1.290   3.558   4.754 -0.1147 -0.4477  2.5437
14053TIP3    H263651   1.429   3.609   4.786  0.0386 -0.3324  1.7304
14054TIP3   OH263652   2.923   5.360   6.415 -0.4461 -0.1234  0.4704
14054TIP3    H163653   2.850   5.421   6.419  0.5955  1.3561 -1.4685
14054TIP3    H263654   2.999   5.411   6.445  0.2753 -0.7751 -0.1922
14055TIP3   OH263655   3.808   6.010   6.198 -0.5802 -0.0924 -0.2268
14055TIP3    H163656   3.764   5.945   6.252 -0.1964  1.1250  1.6625
14055TIP3    H263657   3.818   6.086   6.256  2.7816  0.1543 -0.9327
14056TIP3   OH263658   0.914   3.148   4.580 -0.2387  0.1211 -0.6264
14056TIP3    H163659   0.996   3.190   4.553 -0.4861  1.3893  0.5032
14056TIP3    H263660   0.915   3.153   4.675 -2.0347  0.9740 -0.6138
14057TIP3   OH263661   2.868   5.406   1.928 -0.3258 -0.1170 -0.3391
14057TIP3    H163662   2.858   5.317   1.893  1.0404  0.1527 -1.5141
14057TIP3    H263663   2.829   5.462   1.861  0.0675  0.2534 -0.2585
14058TIP3   OH263664   6.052   4.790  14.019  0.0198 -0.2754  0.5374
14058TIP3    H163665   5.962   4.771  14.047 -0.8915  1.8400 -0.6865
14058TIP3    H263666   6.105   4.773  14.097 -1.6841  0.2264  1.8836
14059TIP3   OH263667   1.738   1.995  15.124  0.2050  0.4417  0.0805
14059TIP3    H163668   1.760   2.057  15.193  0.7613  1.6584 -1.1473
14059TIP3    H263669   1.714   2.049  15.049 -1.9718 -0.8407 -0.2389
14060TIP3   OH263670   5.860   6.238   0.144 -0.1227 -0.7581 -0.0615
14060TIP3    H163671   5.813   6.158   0.166 -0.2051 -0.7157 -0.0839
14060TIP3    H263672   5.816   6.307   0.194  0.8929 -0.9535  1.1696
14061TIP3   OH263673   2.566   3.011   1.293  0.0982  0.0727  0.4043
14061TIP3    H163674   2.508   3.087   1.287  1.5699  1.2195  0.3994
14061TIP3    H263675   2.598   3.011   1.383 -0.2061 -0.8021  0.5293
14062TIP3   OH263676   0.050   1.086  11.710  0.4293 -0.0068  0.7580
14062TIP3    H163677   0.060   1.000  11.669 -1.8367 -2.3471  4.5119
14062TIP3    H263678   0.122   1.092  11.772 -0.4655 -0.1411  1.8475
14063TIP3   OH263679   2.875   2.974  12.249 -0.3801 -0.1935  0.3368
14063TIP3    H163680   2.857   2.980  12.342  0.6768 -1.2019  0.6203
14063TIP3    H263681   2.931   2.898  12.239  0.7377  0.7390 -0.9370
14064TIP3   OH263682   1.687   6.012   2.956  0.0493 -0.4601  0.0962
14064TIP3    H163683   1.703   5.946   3.024 -0.8552 -1.5785 -0.7509
14064TIP3    H263684   1.606   6.056   2.983  0.2405 -0.2005  0.2584
14065TIP3   OH263685   6.038   0.140  13.326  0.5596 -0.2395  0.2068
14065TIP3    H163686   5.962   0.084  13.314 -0.3040  0.9048  0.1705
14065TIP3    H263687   6.085   0.135  13.243  0.0449 -0.2687 -0.0888
14066TIP3   OH263688   2.249   5.748   6.174  0.5274 -0.6281  0.0337
14066TIP3    H163689   2.210   5.670   6.136 -2.8127  2.2785 -3.2229
14066TIP3    H263690   2.175   5.800   6.205  1.9636  3.2174 -2.2057
14067TIP3   OH263691   0.152   4.236   0.576 -0.0526  0.1472  0.1549
14067TIP3    H163692   0.207   4.173   0.622  0.6475 -0.0074 -0.8506
14067TIP3    H263693   0.112   4.289   0.645  1.6242  0.4844  0.9190
14068TIP3   OH263694   2.938   5.564   2.652  0.2178 -0.2410  0.1218
14068TIP3    H163695   3.031   5.559   2.627  0.4403  0.3454  0.7994
14068TIP3    H263696   2.895   5.597   2.574  0.6853  0.1302  0.0114
14069TIP3   OH263697   5.483   4.005   3.644 -0.2510  0.2834  0.2216
14069TIP3    H163698   5.542   3.988   3.570 -1.8810  0.6169 -1.2205
14069TIP3    H263699   5.472   3.919   3.685  0.0281 -0.0806 -0.4361
14070TIP3   OH263700   3.068   4.722  14.329  0.0699 -0.2251 -0.0716
14070TIP3    H163701   3.061   4.627  14.316 -1.7835  0.1416 -2.7470
14070TIP3    H263702   3.020   4.739  14.410  0.5176 -1.5660  0.5062
14071TIP3   OH263703   6.107   1.156  14.846  0.2644 -0.3312 -0.3493
14071TIP3    H163704   6.100   1.060  14.850 -2.2073 -0.1948  3.2219
14071TIP3    H263705   6.039   1.181  14.783 -0.8032 -0.8995  0.5337
14072TIP3   OH263706   2.607   2.614  11.740 -0.3296  0.9388  0.3365
14072TIP3    H163707   2.688   2.601  11.690 -0.1956  0.9724  0.5438
14072TIP3    H263708   2.591   2.530  11.782  1.7930  1.9474  3.5549
14073TIP3   OH263709   0.424   0.158  13.101  0.1027  0.2257 -0.1680
14073TIP3    H163710   0.428   0.066  13.128  0.7641  0.4346  0.4894
14073TIP3    H263711   0.515   0.181  13.081 -0.2812  0.2778 -1.9733
14074TIP3   OH263712   1.450   2.503   4.976  0.7752  0.5870  0.2543
14074TIP3    H163713   1.405   2.578   5.016 -2.2381 -0.5105 -0.8330
14074TIP3    H263714   1.399   2.482   4.899  1.0035 -3.0960  0.9216
14075TIP3   OH263715   0.688   5.255   3.461 -0.2390 -0.2654 -0.5497
14075TIP3    H163716   0.729   5.309   3.394 -0.3144  2.2320  1.2747
14075TIP3    H263717   0.755   5.192   3.486  0.1453 -0.5326 -2.1651
14076TIP3   OH263718   0.330   4.965   4.556 -0.1071 -0.0973  0.0018
14076TIP3    H163719   0.335   5.041   4.498 -1.3136 -0.0565 -0.0658
14076TIP3    H263720   0.421   4.939   4.569  0.3251  1.3373 -0.0003
14077TIP3   OH263721   0.773   1.051   1.987 -0.0582  0.0878  0.0026
14077TIP3    H163722   0.705   1.008   2.039 -0.1720 -0.1559 -0.3455
14077TIP3    H263723   0.820   1.104   2.050 -0.3887  0.0330  0.3031
14078TIP3   OH263724   1.318   2.452   4.742  0.0380  0.2754 -0.0103
14078TIP3    H163725   1.257   2.386   4.775  1.9092 -1.1030  0.9401
14078TIP3    H263726   1.301   2.456   4.648 -1.0157 -0.5940  0.1183
14079TIP3   OH263727   2.023   6.645   1.077 -0.0555 -0.0877 -0.0385
14079TIP3    H163728   2.113   6.619   1.055  1.2680  1.7353  2.6939
14079TIP3    H263729   1.992   6.577   1.137  0.1025  0.1171  0.2746
14080TIP3   OH263730   0.374   2.412   5.728  0.2798 -0.4739  0.4729
14080TIP3    H163731   0.424   2.439   5.651 -0.9792  1.2678  0.2206
14080TIP3    H263732   0.424   2.444   5.803 -0.8780  2.1586  0.1968
14081TIP3   OH263733   2.871   5.540   1.567  0.8082  0.1784  0.1228
14081TIP3    H163734   2.895   5.583   1.485  2.5319 -0.0697  0.4704
14081TIP3    H263735   2.845   5.612   1.625  0.6146  0.4524 -0.2998
14082TIP3   OH263736   2.694   0.452   4.780 -0.0258  0.2950 -0.2723
14082TIP3    H163737   2.689   0.545   4.801 -0.1695  0.9085 -2.6779
14082TIP3    H263738   2.754   0.448   4.705 -0.3117 -1.5190 -0.4573
14083TIP3   OH263739   5.899   0.055  12.903 -0.3470 -0.1175  0.4128
14083TIP3    H163740   5.880   0.147  12.922  0.3078  0.0190  0.4394
14083TIP3    H263741   5.815   0.010  12.914 -0.7519  0.5333  0.0410
14084TIP3   OH263742   2.543   2.592  17.123 -0.4162 -0.1917  0.3943
14084TIP3    H163743   2.519   2.512  17.170  1.5214  0.4207  2.6387
14084TIP3    H263744   2.614   2.630  17.175 -0.6557  2.5458 -1.0652
14085TIP3   OH263745   2.220   5.715  14.140  0.0411 -0.4278 -0.3215
14085TIP3    H163746   2.254   5.701  14.052 -0.0921 -1.2563 -0.2522
14085TIP3    H263747   2.209   5.627  14.176  1.5846 -0.1083  1.0976
14086TIP3   OH263748   0.592   3.683  16.476 -0.1836  0.1798 -0.5212
14086TIP3    H163749   0.575   3.589  16.484  1.5621 -0.1890 -0.8933
14086TIP3    H263750   0.683   3.693  16.502 -0.6890  1.9675  0.7417
14087TIP3   OH263751   2.705   4.669  15.625 -0.0222 -0.8056 -0.3413
14087TIP3    H163752   2.762   4.704  15.556  0.0978 -0.0528  0.1300
14087TIP3    H263753   2.712   4.574  15.616  0.8276 -0.7221 -0.6854
14088TIP3   OH263754   3.100   4.958  15.440 -0.0568 -0.0235 -0.3961
14088TIP3    H163755   3.183   5.003  15.427  0.0264 -0.2270 -0.5498
14088TIP3    H263756   3.120   4.865  15.430 -0.1876 -0.1136  0.1471
14089TIP3   OH263757   1.435   5.993   4.645  0.8132 -0.4997 -0.2529
14089TIP3    H163758   1.382   6.004   4.566 -3.4981  0.7423  2.4724
14089TIP3    H263759   1.513   6.046   4.630 -0.5723  0.9267 -3.0747
14090TIP3   OH263760   3.110   2.723   2.103 -0.8027  0.2958 -0.2265
14090TIP3    H163761   3.050   2.692   2.035  0.1471 -0.3765 -0.7882
14090TIP3    H263762   3.100   2.659   2.174 -0.4609 -0.0489 -0.4856
14091TIP3   OH263763   6.773   5.200   0.438  0.3673 -0.0269 -0.7775
14091TIP3    H163764   6.773   5.171   0.529  0.6156 -1.0078 -1.0821
14091TIP3    H263765   6.860   5.239   0.425 -0.1867  1.4800 -0.1916
14092TIP3   OH263766   0.349   3.822  16.443  0.1319  0.2527 -0.1930
14092TIP3    H163767   0.438   3.788  16.442  0.6314  1.3425  1.8301
14092TIP3    H263768   0.293   3.745  16.431  1.2768 -1.0148  2.0317
14093TIP3   OH263769   2.886   5.581   3.759  1.0073  0.5940  0.1534
14093TIP3    H163770   2.904   5.522   3.833  0.7830 -0.7573 -0.8292
14093TIP3    H263771   2.970   5.590   3.715  1.0310  0.9829  0.2775
14094TIP3   OH263772   2.895   6.014  15.610  0.1051  0.5585 -0.0820
14094TIP3    H163773   2.969   5.955  15.594  0.7450  1.3472 -0.1371
14094TIP3    H263774   2.856   6.028  15.524  1.5151  2.1798 -0.5347
14095TIP3   OH263775   3.556   5.184   4.782 -0.4922  0.2765  0.9028
14095TIP3    H163776   3.505   5.199   4.702  0.2480 -0.8676  0.1981
14095TIP3    H263777   3.602   5.102   4.766 -1.9084 -1.0798  3.3117
14096TIP3   OH263778   4.961   0.017   2.345 -0.7192  0.7104  0.3527
14096TIP3    H163779   5.024  -0.013   2.411 -1.6138  1.2043  1.4442
14096TIP3    H263780   5.016   0.056   2.277  0.3112 -1.0085  0.1268
14097TIP3   OH263781   1.063   2.262   3.548  0.1592 -0.0246 -0.4229
14097TIP3    H163782   1.112   2.342   3.527  1.2437 -0.3746  0.6725
14097TIP3    H263783   0.971   2.285   3.531  0.6279  0.8105 -2.0436
14098TIP3   OH263784   2.059   1.814   4.816 -0.4976  0.1048 -0.6488
14098TIP3    H163785   1.975   1.858   4.826  0.3489  1.6796 -0.0297
14098TIP3    H263786   2.117   1.882   4.782  0.9159 -0.4460  0.5421
14099TIP3   OH263787   4.376   3.618   5.771  0.7744  0.8477  0.7799
14099TIP3    H163788   4.465   3.609   5.803  1.3993  2.3173 -0.4142
14099TIP3    H263789   4.342   3.528   5.768  3.0423 -0.0623 -0.9965
14100TIP3   OH263790   2.128   5.012  14.357  0.1380 -0.8998 -0.1213
14100TIP3    H163791   2.201   4.978  14.409  1.3130 -0.7515 -1.6037
14100TIP3    H263792   2.094   4.936  14.309  0.2690 -0.7093 -0.5253
14101TIP3   OH263793   4.052   5.196   4.403 -0.9952 -0.4123 -0.1922
14101TIP3    H163794   4.113   5.133   4.366 -1.0357  0.2589 -1.4362
14101TIP3    H263795   4.020   5.154   4.483  2.0644 -0.2591  1.2662
14102TIP3   OH263796   6.320   0.442   3.398 -0.5256 -0.1924 -0.3912
14102TIP3    H163797   6.228   0.434   3.424 -0.1644 -1.2653  0.6322
14102TIP3    H263798   6.328   0.390   3.319 -0.6889 -0.5299 -0.1860
14103TIP3   OH263799   1.246   3.094  16.256 -0.1990  0.0758  0.4851
14103TIP3    H163800   1.189   3.171  16.258  1.4102  1.3290  0.3708
14103TIP3    H263801   1.305   3.109  16.182  0.6827 -0.8656  0.9581
14104TIP3   OH263802   5.911   0.527  11.591  0.8717  0.0779 -0.4855
14104TIP3    H163803   5.968   0.491  11.658 -0.9521 -1.1174  0.5250
14104TIP3    H263804   5.970   0.558  11.523  2.7149 -0.4126  0.8184
14105TIP3   OH263805   3.059   0.466   3.608  0.7183 -0.2879  0.0217
14105TIP3    H163806   3.111   0.386   3.603  1.6736  0.1205  2.0809
14105TIP3    H263807   3.116   0.534   3.573  1.4736  0.0809  1.8446
14106TIP3   OH263808   2.103   1.080  15.216 -0.1515 -0.1390 -0.1591
14106TIP3    H163809   2.038   1.123  15.271 -1.2963 -2.0003  0.0340
14106TIP3    H263810   2.061   0.999  15.188  1.8040 -1.0236 -0.7207
14107TIP3   OH263811   6.118   3.402  13.203  0.4632 -0.6892  0.7938
14107TIP3    H163812   6.123   3.489  13.165  0.7154 -0.9872  0.1407
14107TIP3    H263813   6.024   3.385  13.210  0.4083 -0.7029  0.1221
14108TIP3   OH263814   1.194   6.800  12.192 -0.2759 -0.1056  0.2920
14108TIP3    H163815   1.142   6.727  12.158 -1.2953  0.0533  1.4427
14108TIP3    H263816   1.163   6.877  12.144  1.0685 -0.4443 -1.1995
14109TIP3   OH263817   4.287   5.921  10.559 -0.5190 -0.5558  0.4282
14109TIP3    H163818   4.226   5.992  10.577  0.9849  1.0688 -0.5895
14109TIP3    H263819   4.232   5.850  10.526 -2.1257 -0.1200  2.0065
14110TIP3   OH263820   2.687   1.461  12.666 -0.6760  0.7342 -1.0729
14110TIP3    H163821   2.639   1.506  12.596 -0.3764  1.1547 -1.0092
14110TIP3    H263822   2.778   1.490  12.655 -0.7694  1.4804  0.0211
14111TIP3   OH263823   1.363   2.912   5.592 -0.1188 -0.0228 -0.9246
14111TIP3    H163824   1.314   2.924   5.673  2.2186  0.6584  0.4952
14111TIP3    H263825   1.400   2.823   5.599  1.3081  0.5694 -0.4605
14112TIP3   OH263826   3.197   0.226  12.610  0.2850  0.1112 -0.2014
14112TIP3    H163827   3.171   0.136  12.587  0.0725  0.4839 -1.5215
14112TIP3    H263828   3.114   0.270  12.631  0.4852 -0.2476  1.4810
14113TIP3   OH263829   0.921   2.200   1.259 -0.3479  0.2637 -0.6326
14113TIP3    H163830   0.828   2.181   1.272  0.1616 -2.3828 -0.2189
14113TIP3    H263831   0.948   2.245   1.339 -1.1912  0.8022 -0.6393
14114TIP3   OH263832   1.459   4.302   4.685 -0.3643 -0.5163  0.1643
14114TIP3    H163833   1.422   4.371   4.741 -1.7864 -1.2318  0.1497
14114TIP3    H263834   1.523   4.258   4.741 -2.3244 -1.7416  1.6103
14115TIP3   OH263835   3.026   3.731   5.384  0.3123  0.1875  0.5412
14115TIP3    H163836   3.057   3.750   5.295 -0.0665  0.2931  0.4291
14115TIP3    H263837   3.050   3.639   5.398 -0.3692 -0.0808  0.0092
14116TIP3   OH263838   1.694   2.678  16.034 -0.3638 -0.2777 -0.0030
14116TIP3    H163839   1.722   2.586  16.038  1.6451  0.1360 -2.2829
14116TIP3    H263840   1.639   2.682  15.955  1.8357  0.8971 -1.6003
14117TIP3   OH263841   0.116   6.663   3.833 -0.1589 -0.4310 -0.2210
14117TIP3    H163842   0.162   6.605   3.893  0.5420  1.0275  0.7288
14117TIP3    H263843   0.102   6.611   3.754  0.4249 -1.8612  0.5889
14118TIP3   OH263844   5.195   1.971  14.268 -0.1950 -0.4732 -0.2655
14118TIP3    H163845   5.241   2.021  14.335 -0.3708 -0.7177  0.0419
14118TIP3    H263846   5.247   1.984  14.189  1.5709 -2.3541  0.4983
14119TIP3   OH263847   5.347   1.352   0.363  0.0957  0.4437 -0.1658
14119TIP3    H163848   5.256   1.372   0.340 -0.2429  1.7607  2.0732
14119TIP3    H263849   5.398   1.423   0.323 -0.0570  0.6434 -0.0053
14120TIP3   OH263850   5.643   4.239  15.238  0.1254 -0.3743 -0.1532
14120TIP3    H163851   5.656   4.289  15.157 -0.7669  0.6699  0.3224
14120TIP3    H263852   5.574   4.176  15.217  0.1751 -0.3742 -0.3178
14121TIP3   OH263853   6.413   5.056   3.694  0.4869 -0.1250 -0.0046
14121TIP3    H163854   6.497   5.022   3.662  1.5628  0.8565  1.5945
14121TIP3    H263855   6.386   4.994   3.762 -1.0158 -1.3764 -1.6483
14122TIP3   OH263856   6.497   2.921   4.034 -0.2435 -0.5986 -0.3350
14122TIP3    H163857   6.537   2.896   3.951  1.4584  0.0730  0.2542
14122TIP3    H263858   6.527   2.854   4.096 -0.7445 -0.5738 -0.0605
14123TIP3   OH263859   5.792   1.810   2.436  0.1230 -0.1182  0.6200
14123TIP3    H163860   5.789   1.902   2.412  0.4290 -0.9995 -3.5003
14123TIP3    H263861   5.701   1.780   2.425  0.3988 -0.6990 -0.1812
14124TIP3   OH263862   0.288   4.292   5.540 -0.2502 -0.7434 -0.1242
14124TIP3    H163863   0.342   4.359   5.584 -0.7317 -0.1012 -0.4871
14124TIP3    H263864   0.224   4.343   5.490  0.5530 -1.4363 -1.9417
14125TIP3   OH263865   1.794   1.283  15.542  0.1090 -1.2474 -0.6136
14125TIP3    H163866   1.755   1.348  15.600 -0.8723 -1.4646 -1.0212
14125TIP3    H263867   1.887   1.281  15.567 -0.0822 -0.5294  0.1747
14126TIP3   OH263868   1.648   2.309  14.473 -0.5756 -0.3120 -0.1378
14126TIP3    H163869   1.734   2.289  14.508 -0.2655 -0.1074 -0.7614
14126TIP3    H263870   1.663   2.326  14.380 -1.2608 -0.1027 -0.2197
14127TIP3   OH263871   1.545   4.048  14.707  0.1787 -0.3029 -0.2016
14127TIP3    H163872   1.502   4.038  14.793  0.4632 -0.4899 -0.0803
14127TIP3    H263873   1.473   4.047  14.644 -0.2314  1.6986  0.1566
14128TIP3   OH263874   4.677   0.767  14.170  0.6793 -0.1581  0.3088
14128TIP3    H163875   4.662   0.860  14.155  0.6197  0.0746  1.6504
14128TIP3    H263876   4.591   0.733  14.194  0.0369 -1.2200 -2.9987
14129TIP3   OH263877   2.090   0.059   0.937  0.2795 -0.3204 -0.3627
14129TIP3    H163878   2.054  -0.015   0.985  0.0562 -1.5720 -2.3373
14129TIP3    H263879   2.111   0.024   0.850 -0.2019  2.0132 -1.5163
14130TIP3   OH263880   5.085   3.239  12.018  0.2839 -0.4946  0.2806
14130TIP3    H163881   5.140   3.294  11.962  0.1099 -0.8021 -0.1852
14130TIP3    H263882   5.148   3.191  12.073  0.4786 -0.6976 -0.1158
14131TIP3   OH263883   4.344   1.347   3.727  0.4236 -0.1254 -0.2721
14131TIP3    H163884   4.353   1.414   3.795  0.8563  0.9945 -1.3946
14131TIP3    H263885   4.256   1.310   3.741 -0.0369  1.0530  0.0349
14132TIP3   OH263886   6.698   0.467  14.253 -0.3227  0.2599  0.3906
14132TIP3    H163887   6.717   0.493  14.343  1.3919  0.5331 -0.0150
14132TIP3    H263888   6.767   0.404  14.231 -0.7841  0.1088 -0.6869
14133TIP3   OH263889   4.824   4.803   4.713 -0.0907 -0.3433 -0.5673
14133TIP3    H163890   4.890   4.789   4.781 -0.9513 -0.2182  0.3233
14133TIP3    H263891   4.850   4.744   4.642  0.2559 -1.2604  0.2843
14134TIP3   OH263892   5.978   6.592   1.518  0.1827 -0.7320  0.7617
14134TIP3    H163893   5.901   6.648   1.526  2.6247  3.4501 -1.5940
14134TIP3    H263894   5.961   6.537   1.441 -0.3079  0.5000 -0.0352
14135TIP3   OH263895   5.543   5.655   6.674  0.5959 -0.0209 -0.0286
14135TIP3    H163896   5.538   5.563   6.702  1.1760  0.4802  1.8217
14135TIP3    H263897   5.452   5.685   6.676  0.2876 -0.7483 -1.4691
14136TIP3   OH263898   1.873   6.305  13.915 -0.0441 -0.0501  0.1642
14136TIP3    H163899   1.804   6.363  13.947  1.3634  0.3376  2.7162
14136TIP3    H263900   1.842   6.278  13.828 -1.8575  2.6254 -0.1457
14137TIP3   OH263901   1.556   3.747   4.869 -0.0424 -0.4243  0.3235
14137TIP3    H163902   1.603   3.757   4.952  0.7706 -0.0796 -0.1636
14137TIP3    H263903   1.544   3.836   4.838  0.6381 -0.5951 -0.4586
14138TIP3   OH263904   5.480   4.522   4.867 -0.0373 -0.0422 -0.1843
14138TIP3    H163905   5.512   4.540   4.778  0.0709  1.0618  0.0635
14138TIP3    H263906   5.407   4.462   4.854 -0.4501  0.6283 -1.0977
14139TIP3   OH263907   0.403   1.972  15.678 -0.4014 -0.2242 -0.2099
14139TIP3    H163908   0.489   2.013  15.682 -0.1963 -0.6005 -0.7147
14139TIP3    H263909   0.383   1.951  15.770 -0.6888  1.3288  0.1154
14140TIP3   OH263910   6.520   3.274  13.314  0.0123 -0.2116  0.0313
14140TIP3    H163911   6.495   3.205  13.375  0.5871 -0.5885 -0.1481
14140TIP3    H263912   6.537   3.228  13.232  0.3732  0.1444 -0.0952
14141TIP3   OH263913   1.313   1.418   0.959 -0.0806 -0.4806 -0.1426
14141TIP3    H163914   1.305   1.324   0.971  0.0963 -0.6147 -1.0434
14141TIP3    H263915   1.379   1.445   1.023 -0.1360 -0.9569  0.1198
14142TIP3   OH263916   6.243   2.762  14.754 -0.2153 -0.2687  0.1277
14142TIP3    H163917   6.223   2.781  14.846 -2.1260  0.8587 -0.4576
14142TIP3    H263918   6.218   2.842  14.708  1.1825 -0.6411 -1.3373
14143TIP3   OH263919   2.869   1.618   2.173  0.2389 -0.2039  0.0828
14143TIP3    H163920   2.843   1.543   2.227 -1.0054  0.0989 -0.0520
14143TIP3    H263921   2.847   1.695   2.226  2.9864  0.1058  0.8891
14144TIP3   OH263922   1.444   1.843  11.455 -0.1538 -0.4160 -0.3411
14144TIP3    H163923   1.427   1.755  11.421 -0.1933 -0.8419  0.7261
14144TIP3    H263924   1.462   1.896  11.378 -0.0763 -1.3752 -0.9982
14145TIP3   OH263925   2.717   1.426   4.907  0.3209  0.5655 -0.5760
14145TIP3    H163926   2.749   1.445   4.995  2.7232  0.3806 -1.3323
14145TIP3    H263927   2.782   1.367   4.870 -0.3202  1.0710 -2.6617
14146TIP3   OH263928   5.203   5.599   2.918 -0.4128  0.9007  0.5406
14146TIP3    H163929   5.213   5.504   2.919 -0.1043  0.9270  0.2096
14146TIP3    H263930   5.110   5.613   2.900 -0.2643  0.6605 -0.5014
14147TIP3   OH263931   5.763   4.034  14.820  0.4918 -0.5824  0.9829
14147TIP3    H163932   5.797   3.953  14.782  1.9914 -0.3462  1.7604
14147TIP3    H263933   5.725   4.008  14.904  2.7438 -0.2457  2.1631
14148TIP3   OH263934   5.552   4.243   2.953 -0.3738 -0.4392 -0.1442
14148TIP3    H163935   5.510   4.212   2.873 -1.7245  4.0878 -1.5189
14148TIP3    H263936   5.639   4.271   2.925 -1.7557  3.7183 -1.0126
14149TIP3   OH263937   2.606   4.199   6.060 -0.0174 -0.1095 -0.7476
14149TIP3    H163938   2.633   4.171   5.972  1.3253 -0.7676 -0.1553
14149TIP3    H263939   2.618   4.122   6.115 -0.3834  0.4226  0.1050
14150TIP3   OH263940   4.385   4.169   1.779 -0.0593  0.0050  0.3066
14150TIP3    H163941   4.379   4.154   1.685 -0.8871 -0.4855  0.4262
14150TIP3    H263942   4.465   4.123   1.806  0.3856  0.4645 -0.2088
14151TIP3   OH263943   4.159   1.024  10.454  0.3125  0.1613 -0.3716
14151TIP3    H163944   4.179   0.933  10.432 -0.8110 -0.7956  2.0799
14151TIP3    H263945   4.064   1.031  10.443 -0.4134 -0.4735  3.6249
14152TIP3   OH263946   2.960   5.496   5.320 -0.0084  0.2408 -0.1347
14152TIP3    H163947   3.054   5.509   5.327  0.0701  0.2529 -1.1135
14152TIP3    H263948   2.929   5.570   5.268  0.0298 -1.7251 -3.2252
14153TIP3   OH263949   2.849   2.254  13.416 -0.4735 -0.0110  0.0581
14153TIP3    H163950   2.796   2.176  13.398 -0.7577  0.2300 -0.1438
14153TIP3    H263951   2.825   2.280  13.504 -1.5438  0.7713 -0.4474
14154TIP3   OH263952   4.291   1.769   2.098  0.2817  0.8125 -0.5170
14154TIP3    H163953   4.222   1.716   2.137  1.3073 -0.6457 -0.6221
14154TIP3    H263954   4.249   1.814   2.025 -0.5990  0.1090 -0.4574
14155TIP3   OH263955   3.286   5.337  12.072 -0.0868  0.0146  0.0227
14155TIP3    H163956   3.239   5.370  11.995 -0.1442 -1.4457 -0.6102
14155TIP3    H263957   3.377   5.332  12.045 -0.2160 -1.2508 -0.2575
14156TIP3   OH263958   0.127   6.344   3.551 -0.1317 -0.3345  0.0622
14156TIP3    H163959   0.206   6.331   3.603 -1.1226 -1.0072  1.4872
14156TIP3    H263960   0.124   6.268   3.493  0.4617 -0.1066 -0.2691
14157TIP3   OH263961   0.730   0.218   1.747 -0.8062 -0.2423 -0.2470
14157TIP3    H163962   0.776   0.301   1.760 -0.0788 -0.6301 -0.3009
14157TIP3    H263963   0.774   0.157   1.805 -1.5298 -0.5279  0.0114
14158TIP3   OH263964   5.130   5.214  13.798  0.1321  0.1307  0.2207
14158TIP3    H163965   5.133   5.295  13.749  0.3777 -1.2379 -2.1561
14158TIP3    H263966   5.222   5.188  13.807 -0.0240 -0.8874 -0.8736
14159TIP3   OH263967   3.508   2.867  11.072  0.2473 -0.3911  0.0081
14159TIP3    H163968   3.551   2.810  11.009 -0.1142 -0.4452 -0.1896
14159TIP3    H263969   3.580   2.916  11.112  0.4064  0.3380 -1.1237
14160TIP3   OH263970   2.779   0.982  11.209  0.8079 -0.2304  0.4142
14160TIP3    H163971   2.753   0.940  11.291  2.0071 -0.1613  0.8530
14160TIP3    H263972   2.748   1.073  11.218 -1.9944 -0.9806 -0.6359
14161TIP3   OH263973   1.046   3.323  15.871  0.0199 -0.6733 -0.3378
14161TIP3    H163974   0.977   3.388  15.856  1.3269  0.4783 -1.7706
14161TIP3    H263975   1.007   3.240  15.845 -1.6476 -0.4968  1.3907
14162TIP3   OH263976   3.231   1.903   2.129  0.1337  0.1886 -0.3479
14162TIP3    H163977   3.274   1.938   2.051 -1.8865  0.5616 -1.3736
14162TIP3    H263978   3.201   1.816   2.103  0.1093  0.0040  0.2822
14163TIP3   OH263979   4.800   0.211   5.404 -0.3060 -0.7197  0.0106
14163TIP3    H163980   4.856   0.137   5.379  0.5504 -0.1346  0.1251
14163TIP3    H263981   4.857   0.288   5.393 -1.1942 -0.0769 -0.1546
14164TIP3   OH263982   0.050   2.607  13.000 -0.5703 -0.0964 -0.7728
14164TIP3    H163983   0.061   2.673  13.069 -1.9549 -0.5203 -0.1230
14164TIP3    H263984   0.125   2.549  13.011 -1.2416 -0.6876  1.0049
14165TIP3   OH263985   2.350   1.630  12.195 -0.0370 -0.1329  0.6418
14165TIP3    H163986   2.391   1.632  12.282 -0.8452 -0.6285  1.0474
14165TIP3    H263987   2.306   1.714  12.187  2.7011  1.3271 -0.6594
14166TIP3   OH263988   2.386   4.721  16.912  0.3433 -0.3566  0.0447
14166TIP3    H163989   2.428   4.781  16.973  0.6639 -1.4374  0.9349
14166TIP3    H263990   2.344   4.777  16.847  1.6809  0.7769  0.1246
14167TIP3   OH263991   2.218   1.386   0.790 -0.3770  1.0450 -0.0843
14167TIP3    H163992   2.174   1.357   0.870  0.4013 -0.8725 -0.2908
14167TIP3    H263993   2.309   1.360   0.802 -0.5604 -0.9299 -2.2688
14168TIP3   OH263994   4.206   4.623   2.509 -0.0837  0.5507 -0.3207
14168TIP3    H163995   4.154   4.668   2.575 -1.2827 -1.2945  0.0911
14168TIP3    H263996   4.230   4.540   2.550 -2.2050 -1.3851 -2.5848
14169TIP3   OH263997   4.491   1.493   0.468  0.0357  0.1099  0.2945
14169TIP3    H163998   4.423   1.490   0.535 -0.4254 -1.5500 -0.2086
14169TIP3    H263999   4.443   1.492   0.385  0.6385 -0.8876 -0.0654
14170TIP3   OH264000   2.143   4.179  12.302 -0.5239 -0.3451 -0.3035
14170TIP3    H164001   2.208   4.209  12.365 -0.6180 -1.8128  0.5434
14170TIP3    H264002   2.162   4.227  12.221  1.6768 -0.7985 -0.0998
14171TIP3   OH264003   5.745   4.544  11.593 -0.7030  0.3447  0.1829
14171TIP3    H164004   5.676   4.542  11.526 -0.3569 -1.5113 -0.1711
14171TIP3    H264005   5.821   4.580  11.548 -0.9253  0.6538  0.0484
14172TIP3   OH264006   6.617   2.173  14.772  0.3729  0.2043  0.6763
14172TIP3    H164007   6.529   2.187  14.808  0.3730 -0.1788  0.8385
14172TIP3    H264008   6.675   2.180  14.848  0.4304 -0.0448  0.6578
14173TIP3   OH264009   0.765   2.957  15.399 -0.2916  0.0845  0.2046
14173TIP3    H164010   0.691   2.916  15.445 -0.2706 -1.3500 -0.9833
14173TIP3    H264011   0.729   3.039  15.365 -0.4957  0.8629  2.1293
14174TIP3   OH264012   1.603   2.648   4.373  0.1843  0.4933 -0.1032
14174TIP3    H164013   1.637   2.627   4.460  0.4939 -0.7244 -0.5056
14174TIP3    H264014   1.509   2.663   4.387  0.4752  1.7321  0.6547
14175TIP3   OH264015   6.339   0.815   0.446 -0.3153  0.4418  0.2181
14175TIP3    H164016   6.312   0.835   0.535 -0.2578  1.5253 -0.0022
14175TIP3    H264017   6.258   0.788   0.402 -0.7687  2.0801  0.0042
14176TIP3   OH264018   2.047   2.382   1.036 -0.1315 -0.0894  0.1762
14176TIP3    H164019   2.047   2.290   1.063 -0.1451  0.0295  0.5805
14176TIP3    H264020   1.962   2.394   0.992  0.0471 -0.3776 -0.2614
14177TIP3   OH264021   1.589   0.047   2.628  0.5020 -0.2217  0.1801
14177TIP3    H164022   1.677   0.059   2.664 -0.2615 -0.6706  2.3987
14177TIP3    H264023   1.531   0.060   2.703 -1.2532 -1.0648 -0.9651
14178TIP3   OH264024   1.163   2.513   4.250  0.3137 -0.4001  0.3850
14178TIP3    H164025   1.182   2.427   4.288  1.2926  0.8803  3.0599
14178TIP3    H264026   1.231   2.570   4.285 -0.7466  1.6204 -0.7004
14179TIP3   OH264027   4.148   4.564  12.909 -0.6154 -0.1622 -0.7784
14179TIP3    H164028   4.112   4.480  12.940 -0.0875 -0.5185 -1.1094
14179TIP3    H264029   4.215   4.539  12.845 -0.0852  0.4983 -0.4966
14180TIP3   OH264030   0.458   1.111   6.035 -0.3133  0.0370 -0.1341
14180TIP3    H164031   0.540   1.104   6.084 -1.4361 -2.5567  1.5756
14180TIP3    H264032   0.391   1.124   6.102 -1.4271  1.1059 -1.4114
14181TIP3   OH264033   3.785   5.379  13.287 -0.7071 -0.3193  0.0503
14181TIP3    H164034   3.867   5.335  13.308 -0.0828  0.4975 -0.6475
14181TIP3    H264035   3.758   5.420  13.370  0.6215  1.0670 -0.1640
14182TIP3   OH264036   3.727   5.959   3.593  0.0913  0.0900 -0.3207
14182TIP3    H164037   3.680   6.035   3.628  1.2483  0.7328 -0.1009
14182TIP3    H264038   3.787   5.996   3.527  2.2218 -0.2987  1.2873
14183TIP3   OH264039   3.301   2.450  12.852  0.3403  0.0324  0.3002
14183TIP3    H164040   3.275   2.531  12.809  2.4994 -0.3281 -1.8768
14183TIP3    H264041   3.279   2.381  12.790 -2.0274 -1.2433  2.3569
14184TIP3   OH264042   5.931   2.321   2.685  0.7521 -0.0508  0.3172
14184TIP3    H164043   5.836   2.309   2.687  0.9103 -1.8328 -0.9959
14184TIP3    H264044   5.966   2.256   2.745  1.1727  0.4761  0.6606
14185TIP3   OH264045   0.264   3.937  14.171 -0.6461 -0.6038  0.0387
14185TIP3    H164046   0.276   3.915  14.079 -0.5346  1.1643 -0.4070
14185TIP3    H264047   0.204   3.870  14.205 -1.2540 -0.8643 -1.4945
14186TIP3   OH264048   3.527   2.285  11.605 -0.3943  0.0460 -0.5979
14186TIP3    H164049   3.444   2.290  11.652 -0.1190  1.3548 -0.2047
14186TIP3    H264050   3.566   2.203  11.635 -1.1394 -0.1356 -0.0933
14187TIP3   OH264051   4.368   0.474  17.032  0.1490  0.3700  0.1960
14187TIP3    H164052   4.390   0.524  16.954 -0.4905  1.1374  0.4929
14187TIP3    H264053   4.276   0.495  17.049 -0.2305 -1.1105  0.1895
14188TIP3   OH264054   0.186   2.065   0.347  0.1832  0.0167  0.4464
14188TIP3    H164055   0.124   1.992   0.355 -0.3939  0.2144 -1.7125
14188TIP3    H264056   0.263   2.035   0.395 -1.0908 -0.7496  2.1409
14189TIP3   OH264057   0.947   6.554  13.998  0.5111  0.0597  0.6561
14189TIP3    H164058   0.995   6.520  14.074  1.4638  1.2695  0.6343
14189TIP3    H264059   1.016   6.580  13.937 -0.1520  1.7703  0.5809
14190TIP3   OH264060   1.159   0.130   2.564  0.2423  0.6024 -0.4134
14190TIP3    H164061   1.069   0.161   2.554  0.5302  2.1148  1.1576
14190TIP3    H264062   1.160   0.045   2.520 -1.9861  0.4683 -0.3391
14191TIP3   OH264063   2.652   6.426   3.426  0.1959  0.6261 -0.1869
14191TIP3    H164064   2.700   6.348   3.455  0.5989  0.1741 -1.9391
14191TIP3    H264065   2.718   6.480   3.382 -0.3064  1.4417  0.0295
14192TIP3   OH264066   1.992   0.641   5.935 -0.4810 -0.3575  0.4703
14192TIP3    H164067   2.050   0.713   5.912  0.5707 -0.8426  1.4724
14192TIP3    H264068   1.911   0.683   5.964 -0.5356  0.3384 -0.6483
14193TIP3   OH264069   1.523   6.000   5.186 -0.3150  0.1055 -0.3364
14193TIP3    H164070   1.614   6.031   5.183 -0.0327 -0.7419 -0.8321
14193TIP3    H264071   1.509   5.959   5.100 -0.9804 -0.2754 -0.0487
14194TIP3   OH264072   2.929   2.003   5.642  0.2651 -0.1150 -0.4828
14194TIP3    H164073   2.886   2.036   5.564  0.8030  0.9347 -0.3520
14194TIP3    H264074   2.860   2.001   5.709 -0.2106 -1.0821 -0.9814
14195TIP3   OH264075   5.638   3.071  11.641  0.0190  0.4696  0.3136
14195TIP3    H164076   5.612   3.150  11.593 -0.9230 -0.6933 -1.1474
14195TIP3    H264077   5.721   3.046  11.603 -1.2587 -1.0974 -1.6177
14196TIP3   OH264078   1.211   4.362  11.826  0.0532 -0.2806 -0.3095
14196TIP3    H164079   1.161   4.315  11.892  0.0810  0.9204  0.6093
14196TIP3    H264080   1.205   4.308  11.747 -1.3343 -0.9557  0.2318
14197TIP3   OH264081   1.340   6.083  16.224 -0.3727  0.2199 -0.9677
14197TIP3    H164082   1.287   6.006  16.243 -0.0559 -0.0942 -1.3337
14197TIP3    H264083   1.287   6.135  16.163 -1.7457  1.6313  1.2816
14198TIP3   OH264084   2.181   2.042   6.234  0.6794 -0.1334  0.0199
14198TIP3    H164085   2.160   1.954   6.266 -0.2906  0.4117  0.9428
14198TIP3    H264086   2.203   2.092   6.313  0.4740  0.6479 -0.4061
14199TIP3   OH264087   1.526   3.002   1.137 -0.2590  0.3441 -0.0123
14199TIP3    H164088   1.479   3.072   1.091 -0.2816  0.3444  0.0115
14199TIP3    H264089   1.489   3.001   1.225 -0.4165  0.1473 -0.0811
14200TIP3   OH264090   5.173   4.691  11.580 -0.1540 -0.4421  0.4303
14200TIP3    H164091   5.231   4.657  11.648  2.4213  0.4574 -1.1641
14200TIP3    H264092   5.104   4.625  11.573  0.9638 -1.8858  2.0346
14201TIP3   OH264093   3.924   6.181  15.431  0.0161  0.0617 -0.2125
14201TIP3    H164094   3.839   6.178  15.387 -0.2816  0.5305  0.3187
14201TIP3    H264095   3.948   6.273  15.432  0.0557  0.0491  0.5274
14202TIP3   OH264096   4.703   2.080   1.650 -0.3369  0.6657  0.5904
14202TIP3    H164097   4.621   2.111   1.688 -0.4319 -0.5857  1.4714
14202TIP3    H264098   4.751   2.159   1.626 -0.4156  1.5126  3.0170
14203TIP3   OH264099   2.600   4.621   2.562  0.5003 -0.7329  0.2755
14203TIP3    H164100   2.540   4.574   2.504  0.7564 -0.1669 -0.4695
14203TIP3    H264101   2.575   4.593   2.650  0.5251 -2.1069 -0.1319
14204TIP3   OH264102   5.872   3.538  12.189  0.6915  0.1351 -0.2302
14204TIP3    H164103   5.856   3.612  12.248  1.3262 -0.3023  0.5152
14204TIP3    H264104   5.967   3.536  12.179  0.5612  0.7882 -2.0685
14205TIP3   OH264105   5.665   3.094   4.115 -0.5317  0.2476  0.1403
14205TIP3    H164106   5.606   3.021   4.094  0.1187  0.2400 -1.9228
14205TIP3    H264107   5.751   3.054   4.124 -0.4358  0.5660  0.6922
14206TIP3   OH264108   1.611   0.217  14.690 -0.2311  0.1594  0.0609
14206TIP3    H164109   1.594   0.249  14.778 -1.2136 -0.5913  0.1651
14206TIP3    H264110   1.578   0.127  14.691  0.2308 -0.0315 -0.9159
14207TIP3   OH264111   3.368   5.209  14.623 -0.4821  0.0500  0.4563
14207TIP3    H164112   3.382   5.118  14.648 -0.6904 -0.6219 -1.7409
14207TIP3    H264113   3.273   5.219  14.617 -0.4730  0.5090  0.9486
14208TIP3   OH264114   4.771   3.570  12.074 -0.6565  0.2649  0.3083
14208TIP3    H164115   4.786   3.485  12.117  0.0608 -0.5614 -1.4753
14208TIP3    H264116   4.700   3.610  12.125 -0.4808 -1.0506  1.6662
14209TIP3   OH264117   5.562   0.915  11.004 -0.1422 -0.3337  0.0580
14209TIP3    H164118   5.631   0.929  11.068 -0.2257  0.8156 -0.0783
14209TIP3    H264119   5.487   0.964  11.038 -0.1690  0.3435 -0.9405
14210TIP3   OH264120   4.021   2.825  16.926  0.3557  0.2294  0.4275
14210TIP3    H164121   4.001   2.825  17.020 -0.4224  1.8789  0.3133
14210TIP3    H264122   4.036   2.918  16.906  1.8868 -0.2572 -0.8172
14211TIP3   OH264123   5.320   2.227  13.243 -0.4042 -0.1445  0.2373
14211TIP3    H164124   5.308   2.143  13.287  1.6265 -0.7062 -0.1678
14211TIP3    H264125   5.359   2.284  13.310  0.1041 -0.1551 -0.0456
14212TIP3   OH264126   6.533   3.105  15.253 -0.1890  0.3069 -0.2754
14212TIP3    H164127   6.556   3.012  15.257 -0.2480  0.3028  0.0429
14212TIP3    H264128   6.438   3.106  15.243 -0.3613  0.3316  1.1467
14213TIP3   OH264129   2.313   3.651   0.800  0.0917 -0.1290 -0.0851
14213TIP3    H164130   2.327   3.661   0.706  1.2583  0.2765  0.1099
14213TIP3    H264131   2.343   3.562   0.819 -0.6506 -0.4060 -0.1712
14214TIP3   OH264132   0.185   5.482  14.149  0.7493  0.0375 -0.4584
14214TIP3    H164133   0.241   5.559  14.157  1.8608 -0.9637  4.4261
14214TIP3    H264134   0.097   5.515  14.164  1.0009  0.6093 -0.2070
14215TIP3   OH264135   5.800   4.518  13.781 -0.1839  0.3193  0.0714
14215TIP3    H164136   5.865   4.511  13.851 -0.6759  0.4255  0.5418
14215TIP3    H264137   5.792   4.612  13.763 -0.1514  0.3016 -0.0392
14216TIP3   OH264138   6.055   1.579  15.861  0.1841 -0.5539  0.0939
14216TIP3    H164139   6.140   1.622  15.850  0.1532 -0.6904 -0.7162
14216TIP3    H264140   6.065   1.527  15.941 -0.1897  1.9432  1.9108
14217TIP3   OH264141   4.328   2.676  11.368 -0.4297 -0.1052  0.2483
14217TIP3    H164142   4.307   2.586  11.342 -0.9993 -0.0350  0.4469
14217TIP3    H264143   4.396   2.667  11.434  0.1685 -0.3456 -0.3877
14218TIP3   OH264144   1.971   5.985   4.971  0.3269 -0.6886  0.2324
14218TIP3    H164145   2.025   5.908   4.986  1.8807 -0.1353 -2.0115
14218TIP3    H264146   1.895   5.953   4.922 -1.3089 -1.3885  2.9905
14219TIP3   OH264147   0.564   1.266  14.857 -0.0200  0.9702 -0.1305
14219TIP3    H164148   0.637   1.210  14.881 -1.5879 -0.8880  0.5462
14219TIP3    H264149   0.541   1.238  14.768  0.6308  2.1838 -0.7018
14220TIP3   OH264150   6.694   3.910  12.915 -0.0852 -0.0119 -0.0104
14220TIP3    H164151   6.685   4.002  12.891 -1.2062 -0.0608  0.1935
14220TIP3    H264152   6.634   3.898  12.988 -1.6052 -1.4000 -1.4128
14221TIP3   OH264153   2.591   0.427  12.263  0.2440  0.3521  0.1584
14221TIP3    H164154   2.540   0.366  12.210 -0.1363  0.4714  0.3847
14221TIP3    H264155   2.528   0.493  12.291  0.4776  0.3830  0.6197
14222TIP3   OH264156   5.134   4.728  15.096 -0.0771 -0.0492 -0.1584
14222TIP3    H164157   5.169   4.790  15.160 -0.6133  0.8321 -0.7040
14222TIP3    H264158   5.210   4.681  15.063  0.3068  0.1539  0.4340
14223TIP3   OH264159   5.832   0.009  14.546 -0.3030 -0.1264  1.2945
14223TIP3    H164160   5.884  -0.066  14.574 -0.0438  0.3617  2.1716
14223TIP3    H264161   5.743  -0.012  14.571 -0.4443 -0.6819  0.3808
14224TIP3   OH264162   2.684   4.864   3.832  0.6721  0.2831  0.0746
14224TIP3    H164163   2.685   4.768   3.821 -3.3997  0.1817 -1.1628
14224TIP3    H264164   2.687   4.877   3.927 -0.2109 -1.2041  0.3435
14225TIP3   OH264165   6.496   3.380  13.649  0.2130  0.2451  0.0732
14225TIP3    H164166   6.416   3.328  13.639  0.4627 -0.1111 -0.0917
14225TIP3    H264167   6.559   3.336  13.592  0.5924  0.3859  0.3890
14226TIP3   OH264168   1.606   4.654   3.886 -0.4370  0.3865 -0.4942
14226TIP3    H164169   1.569   4.640   3.799  0.4650 -0.6047 -0.7471
14226TIP3    H264170   1.651   4.738   3.880  0.7140 -0.2639 -1.4044
14227TIP3   OH264171   3.621   1.346   3.251  0.3681  0.0151 -0.1929
14227TIP3    H164172   3.556   1.361   3.182  0.4973 -1.3625 -0.6424
14227TIP3    H264173   3.676   1.275   3.218 -0.4426 -1.6887  1.8858
14228TIP3   OH264174   5.843   6.586   0.049  0.3674  0.3783  0.5343
14228TIP3    H164175   5.811   6.597   0.139 -1.1513  1.2650 -0.0867
14228TIP3    H264176   5.866   6.493   0.043  0.3597  0.2747  1.7808
14229TIP3   OH264177   6.381   2.103  15.962  0.2840  0.2122 -0.7511
14229TIP3    H164178   6.368   2.053  16.042 -0.9272 -0.8901 -1.5864
14229TIP3    H264179   6.298   2.095  15.915  0.9281  0.9089 -2.0729
14230TIP3   OH264180   3.037   2.940   3.311 -0.0393 -0.4014 -0.5535
14230TIP3    H164181   2.951   2.927   3.352  0.0767 -0.9092 -0.4658
14230TIP3    H264182   3.095   2.880   3.358  0.7044  1.0197  0.4281
14231TIP3   OH264183   5.949   4.935  15.127  0.1433 -0.0293 -0.0501
14231TIP3    H164184   5.991   5.020  15.113  1.5359 -0.6008  0.4155
14231TIP3    H264185   5.963   4.888  15.045 -0.1991  0.0263 -0.1384
14232TIP3   OH264186   2.593   5.148   0.338  0.4485 -0.5915 -0.1036
14232TIP3    H164187   2.524   5.125   0.399  0.0269  1.1134  0.0982
14232TIP3    H264188   2.668   5.096   0.366 -0.0406 -0.6234  1.2151
14233TIP3   OH264189   3.396   1.115  16.620  0.5428  0.0659  0.1976
14233TIP3    H164190   3.428   1.187  16.566  0.1859 -0.6223 -0.9509
14233TIP3    H264191   3.473   1.059  16.635  0.6046  0.1709  0.2751
14234TIP3   OH264192   5.373   4.586  15.434 -0.3312  0.1071  1.3173
14234TIP3    H164193   5.448   4.644  15.442 -0.3212  0.1679  0.7739
14234TIP3    H264194   5.409   4.499  15.450  0.0889  0.0004 -0.1027
14235TIP3   OH264195   3.790   6.021   2.297 -0.3287  0.4826  0.4510
14235TIP3    H164196   3.868   6.068   2.270  0.0474 -0.2369  0.2481
14235TIP3    H264197   3.813   5.985   2.383  0.3830 -1.5136 -0.5092
14236TIP3   OH264198   2.752   6.737  13.542  0.3891  0.4315 -0.4172
14236TIP3    H164199   2.694   6.761  13.471 -0.1821 -0.9766 -0.4469
14236TIP3    H264200   2.704   6.671  13.592  1.5510 -0.0214  0.1457
14237TIP3   OH264201   5.635   4.023   3.149  0.2344  0.1507  0.1629
14237TIP3    H164202   5.630   4.080   3.072  0.7104 -0.3535 -0.2459
14237TIP3    H264203   5.648   3.935   3.114  0.9372 -0.0236  0.8218
14238TIP3   OH264204   6.167   0.508   3.696  0.5825 -0.1886 -0.3561
14238TIP3    H164205   6.253   0.546   3.678 -0.0002  0.3554 -2.1637
14238TIP3    H264206   6.131   0.488   3.610 -1.7297  0.9906  0.2623
14239TIP3   OH264207   2.363   6.374   3.597  0.4594 -0.4483  0.0914
14239TIP3    H164208   2.318   6.395   3.679  1.9882 -3.7430  2.0003
14239TIP3    H264209   2.369   6.278   3.597 -0.3484 -0.7383 -4.4683
14240TIP3   OH264210   0.004   6.800   0.954  0.3843  0.2664  0.1174
14240TIP3    H164211  -0.032   6.849   0.880  0.3481 -0.2530 -0.2111
14240TIP3    H264212   0.097   6.794   0.936  0.5492  1.0819  0.6643
14241TIP3   OH264213   4.562   5.022  11.016 -0.4108 -0.0821 -1.3151
14241TIP3    H164214   4.532   5.024  10.925  0.2566  0.3239 -1.5303
14241TIP3    H264215   4.641   4.967  11.014 -0.8557 -0.7487 -0.8357
14242TIP3   OH264216   3.754   4.416   6.016 -0.3680 -0.0163  0.5137
14242TIP3    H164217   3.707   4.400   6.098 -0.3850 -0.3194  0.4461
14242TIP3    H264218   3.709   4.360   5.952 -0.0407 -0.1558  0.4055
14243TIP3   OH264219   2.938   0.824  12.039  1.1894 -0.2441 -0.6442
14243TIP3    H164220   2.955   0.893  12.103 -1.1199 -0.2615  0.0563
14243TIP3    H264221   2.900   0.869  11.964 -1.0624 -0.7516  0.1186
14244TIP3   OH264222   4.750   6.820   1.315  0.2547 -0.1726 -0.4426
14244TIP3    H164223   4.704   6.746   1.354 -0.7771  0.3341 -0.6656
14244TIP3    H264224   4.834   6.823   1.361 -0.5384 -0.1862  1.0711
14245TIP3   OH264225   6.301   1.774  14.429  0.0536  0.2758  0.1918
14245TIP3    H164226   6.272   1.685  14.450 -0.1835 -0.0479 -1.3597
14245TIP3    H264227   6.270   1.828  14.501 -0.3986 -0.8021  0.8199
14246TIP3   OH264228   0.149   5.476  16.635 -0.1484 -0.3391 -0.0234
14246TIP3    H164229   0.148   5.417  16.560 -1.2066  0.3747 -0.6002
14246TIP3    H264230   0.218   5.442  16.692  1.5739 -0.1726 -1.8849
14247TIP3   OH264231   6.111   1.098   5.237  0.0209 -0.2206  0.3050
14247TIP3    H164232   6.112   1.191   5.257  1.4715 -0.5025  1.7595
14247TIP3    H264233   6.054   1.059   5.303  1.4853 -0.6460  1.3695
14248TIP3   OH264234   2.571   0.667  11.055  0.1881  0.2600  0.1980
14248TIP3    H164235   2.591   0.593  11.113  0.4200  0.6877  0.6667
14248TIP3    H264236   2.476   0.662  11.041  0.2550 -0.3574 -0.0988
14249TIP3   OH264237   5.460   5.244   5.444  0.2319 -0.1804 -0.5478
14249TIP3    H164238   5.511   5.290   5.378  1.2179  1.0042  0.9851
14249TIP3    H264239   5.416   5.313   5.493 -0.0427 -0.9978  0.3824
14250TIP3   OH264240   4.458   0.680  14.009  0.1741 -0.3172 -0.4308
14250TIP3    H164241   4.549   0.706  13.994  0.3631 -0.9312 -0.3553
14250TIP3    H264242   4.435   0.628  13.932 -0.2455  0.1685 -0.6426
14251TIP3   OH264243   0.934   1.456  14.249 -0.3934 -0.1474 -0.0426
14251TIP3    H164244   0.885   1.518  14.194 -0.5836 -0.3470 -0.1025
14251TIP3    H264245   0.965   1.509  14.323  1.1340  0.4552 -1.0698
14252TIP3   OH264246   1.936   1.225  12.984  0.6032  0.2582 -0.0375
14252TIP3    H164247   1.916   1.144  13.031  0.2676  0.2929 -0.1150
14252TIP3    H264248   1.853   1.251  12.944  0.7268  0.5944 -0.0852
14253TIP3   OH264249   6.134   5.767  13.892 -0.1200 -0.2075 -0.8267
14253TIP3    H164250   6.166   5.825  13.824 -0.1937 -0.9869 -1.5430
14253TIP3    H264251   6.121   5.823  13.968  1.1188  0.4525 -1.0887
14254TIP3   OH264252   3.303   5.250  16.954 -0.1092  0.3181 -0.1106
14254TIP3    H164253   3.270   5.265  17.043  0.1431 -0.5543  0.1363
14254TIP3    H264254   3.369   5.319  16.942  0.7502 -0.3022  0.8551
14255TIP3   OH264255   2.522   5.152   5.075 -0.6392  0.7562 -0.4678
14255TIP3    H164256   2.456   5.095   5.115 -2.5695  2.9782 -0.2588
14255TIP3    H264257   2.528   5.226   5.134  0.0175  1.8779 -1.8832
14256TIP3   OH264258   4.519   5.832   0.236  0.0343  0.1825 -0.5419
14256TIP3    H164259   4.476   5.750   0.261  1.5227 -1.1396 -2.0795
14256TIP3    H264260   4.599   5.835   0.289 -0.3449  1.0419  0.0191
14257TIP3   OH264261   0.894   3.573   3.066 -0.4916  0.2219 -0.0391
14257TIP3    H164262   0.872   3.642   3.003  1.3497 -0.0952 -1.1093
14257TIP3    H264263   0.984   3.592   3.092 -0.8260 -0.3374  1.6369
14258TIP3   OH264264   5.044   2.841  15.329 -0.7847 -0.3450 -0.0465
14258TIP3    H164265   5.100   2.844  15.406 -0.6341 -0.2828 -0.1577
14258TIP3    H264266   4.997   2.758  15.336  2.6191 -2.7182 -2.2273
14259TIP3   OH264267   6.529   3.488  17.176  0.3718  0.4461 -0.4117
14259TIP3    H164268   6.442   3.528  17.178  0.0762 -0.1656 -0.7164
14259TIP3    H264269   6.554   3.492  17.084 -0.4471 -1.6943 -0.7854
14260TIP3   OH264270   2.418   0.165   2.791 -0.1978  0.0448  0.0288
14260TIP3    H164271   2.441   0.157   2.699  1.6839  1.8061  0.2588
14260TIP3    H264272   2.447   0.083   2.831 -0.9659 -0.6970 -0.9109
14261TIP3   OH264273   0.265   3.030  16.115 -0.1529 -0.0997  0.1855
14261TIP3    H164274   0.203   2.978  16.166 -1.9933 -0.6181 -2.3981
14261TIP3    H264275   0.210   3.083  16.056  1.7930  1.6835 -0.1702
14262TIP3   OH264276   2.818   6.793   6.360  0.0026 -0.1741 -0.4108
14262TIP3    H164277   2.785   6.867   6.411 -0.6684  0.8452 -2.2277
14262TIP3    H264278   2.882   6.831   6.301  0.8605 -1.3482 -0.2614
14263TIP3   OH264279   0.297   1.060   5.452  0.4038  0.1137 -0.5323
14263TIP3    H164280   0.247   1.062   5.370 -2.5074 -0.9827  1.0331
14263TIP3    H264281   0.243   1.006   5.511  2.4679  0.6465  2.0324
14264TIP3   OH264282   4.932   5.192  17.103  0.1370 -0.0741 -0.0645
14264TIP3    H164283   4.950   5.285  17.089 -0.5401  0.1060  0.1952
14264TIP3    H264284   5.006   5.146  17.063 -0.7038  0.4798 -2.3874
14265TIP3   OH264285   4.519   6.109   5.110 -0.4196  0.1553 -0.3632
14265TIP3    H164286   4.484   6.071   5.029 -0.2088  0.1023 -0.4297
14265TIP3    H264287   4.587   6.048   5.138 -0.9016 -0.1410  0.1806
14266TIP3   OH264288   0.886   4.626   1.982  0.6020  0.3609  0.1746
14266TIP3    H164289   0.923   4.680   1.912  0.8203  0.8807  0.6846
14266TIP3    H264290   0.793   4.620   1.960  0.3855  1.7445  0.6160
14267TIP3   OH264291   5.909   3.324   2.609  0.0807 -0.4462 -0.0361
14267TIP3    H164292   5.882   3.388   2.543  0.7459  0.8223  0.8852
14267TIP3    H264293   5.835   3.264   2.615 -1.2081  1.0924  0.1330
14268TIP3   OH264294   3.260   0.247   3.843 -0.2822  0.2408 -0.8739
14268TIP3    H164295   3.255   0.177   3.907  0.0256  0.8994 -0.1145
14268TIP3    H264296   3.347   0.285   3.856  1.0978 -1.5599 -3.7687
14269TIP3   OH264297   6.327   0.059  11.381  0.4690 -0.5324  0.4385
14269TIP3    H164298   6.360  -0.006  11.318 -0.2119 -0.9746  0.5265
14269TIP3    H264299   6.233   0.042  11.386  0.3930  0.0132  0.9919
14270TIP3   OH264300   4.545   5.796   3.559 -0.4884  0.0672  0.1464
14270TIP3    H164301   4.467   5.774   3.509 -1.4567  0.9717  1.2118
14270TIP3    H264302   4.597   5.850   3.499 -0.6373 -0.5718 -0.5811
14271TIP3   OH264303   6.148   0.241   0.247 -0.2320 -0.3076  0.3569
14271TIP3    H164304   6.091   0.315   0.227 -0.3959 -0.4686  0.2223
14271TIP3    H264305   6.184   0.261   0.333  0.5247  0.4206 -0.1170
14272TIP3   OH264306   4.739   4.512   2.222  0.3897 -0.6209 -0.0578
14272TIP3    H164307   4.760   4.594   2.176  1.6634  0.2514  1.9215
14272TIP3    H264308   4.785   4.444   2.173  1.2406  0.1983 -0.4357
14273TIP3   OH264309   0.713   6.105   2.326 -0.1293 -0.2167  0.1672
14273TIP3    H164310   0.692   6.012   2.315  1.8235 -0.7478  0.4706
14273TIP3    H264311   0.807   6.106   2.344 -0.0775  1.8485  0.0115
14274TIP3   OH264312   2.144   3.790  15.950  0.7327  0.5513  0.1993
14274TIP3    H164313   2.151   3.695  15.958 -2.3405  0.3248  1.2454
14274TIP3    H264314   2.212   3.813  15.887  1.0719 -2.4314 -0.6784
14275TIP3   OH264315   5.961   0.178  16.940 -0.4664 -0.2621 -0.8616
14275TIP3    H164316   5.870   0.207  16.929 -0.5064  0.0655  0.2378
14275TIP3    H264317   5.955   0.100  16.995 -0.0289  0.2583 -0.0553
14276TIP3   OH264318   2.816   1.557  15.529  0.0160  0.3899  0.6705
14276TIP3    H164319   2.763   1.636  15.543  0.7420  0.5912  2.6663
14276TIP3    H264320   2.753   1.491  15.501 -0.8066  1.3601  0.1622
14277TIP3   OH264321   4.071   4.082  13.506  0.0791  0.4672 -0.0824
14277TIP3    H164322   3.984   4.115  13.484 -0.5013 -2.1736 -2.3351
14277TIP3    H264323   4.058   4.030  13.586 -0.2908  0.5392 -0.0943
14278TIP3   OH264324   3.204   5.268   4.152  0.0853  0.1669  0.0884
14278TIP3    H164325   3.237   5.200   4.210  1.9761  0.4323 -0.6040
14278TIP3    H264326   3.260   5.263   4.074 -2.4373 -0.2583 -1.8221
14279TIP3   OH264327   3.723   5.141  12.425 -0.1719 -0.2480  0.0255
14279TIP3    H164328   3.660   5.097  12.369  1.3018 -0.6210 -1.4381
14279TIP3    H264329   3.698   5.117  12.514 -2.1400 -0.2472 -0.4900
14280TIP3   OH264330   2.000   0.252  10.553  0.5117 -0.5549  0.4743
14280TIP3    H164331   2.090   0.221  10.549  0.3783 -0.8128 -1.2514
14280TIP3    H264332   1.964   0.235  10.466 -1.2439 -0.5522  1.1463
14281TIP3   OH264333   4.454   1.101  10.312  0.3889 -0.5832  1.0418
14281TIP3    H164334   4.367   1.067  10.292  0.3940 -1.0556  1.7703
14281TIP3    H264335   4.447   1.195  10.300  0.8561 -0.8713 -2.9228
14282TIP3   OH264336   3.283   1.603  14.946  0.5232  0.7767  0.6474
14282TIP3    H164337   3.378   1.607  14.950  0.5529  1.1335 -0.2435
14282TIP3    H264338   3.260   1.519  14.986  1.1891  0.8234  1.1353
14283TIP3   OH264339   3.936   1.403   3.657  0.1991 -0.5387 -0.0787
14283TIP3    H164340   3.866   1.367   3.601 -0.7999  0.1697  0.6791
14283TIP3    H264341   3.956   1.487   3.618  0.7214 -0.7915 -0.3606
14284TIP3   OH264342   1.161   2.617   2.013  0.1233  0.5743  0.5154
14284TIP3    H164343   1.257   2.615   2.017  0.1070 -1.6765  1.2245
14284TIP3    H264344   1.133   2.592   2.100 -1.0400 -1.5502 -0.3903
14285TIP3   OH264345   3.309   5.531   4.029 -0.1335 -0.7843 -0.1703
14285TIP3    H164346   3.254   5.466   3.985 -0.4760 -0.6813  0.0949
14285TIP3    H264347   3.398   5.507   4.007 -0.2996 -0.6814 -0.9937
14286TIP3   OH264348   1.280   6.325   4.656  0.1486 -0.2483  0.0440
14286TIP3    H164349   1.191   6.350   4.629  0.5651  0.3311 -0.8256
14286TIP3    H264350   1.330   6.321   4.575  1.0445 -0.0765  0.5712
14287TIP3   OH264351   0.548   2.384  16.554 -0.2936  0.2864 -0.0961
14287TIP3    H164352   0.515   2.294  16.551 -2.8405  1.0813  1.1661
14287TIP3    H264353   0.626   2.379  16.609 -0.5965 -1.0887  0.2445
14288TIP3   OH264354   2.540   5.152   4.786  0.1029  0.6480 -0.4141
14288TIP3    H164355   2.529   5.184   4.876 -0.9086 -1.2988  0.1942
14288TIP3    H264356   2.568   5.061   4.796 -0.2118  0.3375 -2.0792
14289TIP3   OH264357   6.598   0.485   2.394  0.6262 -0.2068 -0.2914
14289TIP3    H164358   6.531   0.542   2.358  0.3868  1.2966  2.3089
14289TIP3    H264359   6.561   0.397   2.387 -1.1376  0.4802  0.0733
14290TIP3   OH264360   0.223   0.450   5.590 -0.1634 -0.5652 -0.9260
14290TIP3    H164361   0.163   0.376   5.581  1.4732 -2.1124  0.0408
14290TIP3    H264362   0.295   0.415   5.643  2.1159  0.8449 -2.9026
14291TIP3   OH264363   0.531   3.377   1.471  0.3714  0.1752  0.3818
14291TIP3    H164364   0.498   3.467   1.467  0.9569  0.3618 -0.6863
14291TIP3    H264365   0.625   3.385   1.452  0.1230 -0.8093 -1.4612
14292TIP3   OH264366   2.504   2.907  10.684  0.6900 -0.1454 -0.0944
14292TIP3    H164367   2.499   2.877  10.594 -0.9618 -2.9113  0.7994
14292TIP3    H264368   2.550   2.836  10.730 -1.5174 -0.4831  1.7840
14293TIP3   OH264369   3.337   1.860   4.501  0.0565 -0.0387 -0.5239
14293TIP3    H164370   3.311   1.871   4.409  0.7850  1.0385 -0.6217
14293TIP3    H264371   3.358   1.949   4.531  0.8633 -0.5061  0.3644
14294TIP3   OH264372   2.797   3.868   3.505  0.0953  0.1641  0.5185
14294TIP3    H164373   2.839   3.827   3.581 -0.4745  1.1986  1.4137
14294TIP3    H264374   2.753   3.796   3.460  0.4411 -0.4610  1.1645
14295TIP3   OH264375   2.154   1.530  15.881  0.6026 -0.0600 -0.1183
14295TIP3    H164376   2.225   1.539  15.945 -0.5353  0.4848  1.1438
14295TIP3    H264377   2.075   1.552  15.931 -0.7257 -2.7778 -0.8633
14296TIP3   OH264378   1.075   3.715   3.945  0.1811  0.3543  0.1846
14296TIP3    H164379   1.042   3.771   3.874  0.7400  1.8464  1.0544
14296TIP3    H264380   1.137   3.771   3.992 -0.4193 -0.4693  2.0494
14297TIP3   OH264381   2.946   6.186  13.595  0.4691 -0.8228  0.1301
14297TIP3    H164382   2.929   6.118  13.530  0.5602 -1.5442  0.8474
14297TIP3    H264383   3.037   6.212  13.579  0.1972 -0.3154 -0.6398
14298TIP3   OH264384   6.381   5.825  16.382  0.5522  0.3882 -0.2008
14298TIP3    H164385   6.306   5.766  16.374  1.2253 -0.4033 -0.9334
14298TIP3    H264386   6.368   5.889  16.312  0.4299  0.4012 -0.1661
14299TIP3   OH264387   5.711   5.102   3.383  0.0907 -0.7121 -0.2127
14299TIP3    H164388   5.670   5.061   3.460 -0.0270  1.7344  1.1571
14299TIP3    H264389   5.698   5.039   3.312 -1.8289 -2.1011  1.2536
14300TIP3   OH264390   3.021   2.717  10.969  0.3574 -0.0286  0.1450
14300TIP3    H164391   3.100   2.772  10.963 -0.2963  1.0750  1.1948
14300TIP3    H264392   2.948   2.778  10.957 -0.3635 -1.1962 -1.8402
14301TIP3   OH264393   4.064   3.708   4.098 -0.2827 -0.5420  0.0195
14301TIP3    H164394   4.006   3.642   4.059 -1.5580  1.5180 -1.8095
14301TIP3    H264395   4.146   3.699   4.050 -0.5523 -0.5922 -0.4339
14302TIP3   OH264396   2.325   5.876   3.197 -0.7784  0.6747  1.2788
14302TIP3    H164397   2.395   5.902   3.257  0.1952  1.6384 -0.2019
14302TIP3    H264398   2.334   5.936   3.122 -0.1853 -2.1906 -1.1174
14303TIP3   OH264399   3.051   0.054  11.878 -0.3193  0.3583 -0.7059
14303TIP3    H164400   2.988   0.122  11.853 -1.0362 -0.1697 -0.3541
14303TIP3    H264401   3.118   0.057  11.809 -1.1625  0.3555 -1.5320
14304TIP3   OH264402   2.414   3.687  13.097  0.5653  0.0955 -0.1116
14304TIP3    H164403   2.430   3.780  13.109 -0.4592  0.1741  0.6844
14304TIP3    H264404   2.320   3.676  13.109  0.7052 -1.0762  0.0575
14305TIP3   OH264405   6.073   4.053   3.457  0.2020  0.4051  0.5370
14305TIP3    H164406   6.095   4.146   3.451  0.1118  0.3320 -1.7832
14305TIP3    H264407   5.996   4.043   3.401  0.3242 -1.0994  0.6059
14306TIP3   OH264408   0.589   5.098  15.143  0.1961  0.1093  0.0888
14306TIP3    H164409   0.672   5.050  15.146  0.4573  0.5658  0.3502
14306TIP3    H264410   0.613   5.184  15.109 -0.4081 -0.2151 -1.2265
14307TIP3   OH264411   1.519   3.656   1.578  0.1797  0.3822 -0.2259
14307TIP3    H164412   1.608   3.624   1.566  0.2226 -0.0243  0.9918
14307TIP3    H264413   1.524   3.712   1.656 -0.4292  1.2040 -0.7621
14308TIP3   OH264414   0.529   2.416   0.786  0.0528 -0.1612 -0.0283
14308TIP3    H164415   0.605   2.439   0.839 -1.2935  1.5005  1.3357
14308TIP3    H264416   0.546   2.456   0.701  0.5939  0.4710  0.3628
14309TIP3   OH264417   0.397   6.637  15.095 -0.1295  0.1208 -0.6182
14309TIP3    H164418   0.365   6.675  15.013 -0.2986 -1.1151 -1.1438
14309TIP3    H264419   0.490   6.620  15.079 -0.1801 -0.1964 -0.5945
14310TIP3   OH264420   5.147   0.282  12.742  0.3493 -0.0016 -0.4283
14310TIP3    H164421   5.061   0.324  12.749  0.2713 -0.2478  0.2327
14310TIP3    H264422   5.138   0.219  12.671 -0.2926 -0.6488  0.2132
14311TIP3   OH264423   3.257   3.557   3.146  0.0112  0.0295  0.2478
14311TIP3    H164424   3.170   3.593   3.164  0.3247  0.9620 -0.0207
14311TIP3    H264425   3.275   3.499   3.220 -1.5690 -1.6021 -0.5533
14312TIP3   OH264426   0.434   1.143  15.366 -0.0545 -0.1782  0.2137
14312TIP3    H164427   0.495   1.080  15.405  0.1489  0.3462  0.7716
14312TIP3    H264428   0.484   1.183  15.294  0.0828 -0.1184  0.3406
14313TIP3   OH264429   5.841   0.564   3.210  0.0242  0.0784 -0.1187
14313TIP3    H164430   5.809   0.655   3.212  0.3824  0.2186  2.4715
14313TIP3    H264431   5.902   0.562   3.136  0.3692  2.1011  0.0474
14314TIP3   OH264432   1.217   0.508   0.006  0.5562 -0.4118  0.6942
14314TIP3    H164433   1.201   0.466   0.091  1.5702 -0.6975  0.7515
14314TIP3    H264434   1.226   0.435  -0.055  1.0915 -0.2403  0.5689
14315TIP3   OH264435   0.058   1.124   2.931  0.0751  0.5708  0.2905
14315TIP3    H164436  -0.016   1.184   2.923 -0.6898 -0.2510  0.9979
14315TIP3    H264437   0.024   1.039   2.904  1.0363  0.3579 -0.3211
14316TIP3   OH264438   1.424   1.321   4.171  0.4570 -0.1214  0.3393
14316TIP3    H164439   1.436   1.235   4.210 -2.6937 -0.2900  1.1231
14316TIP3    H264440   1.369   1.306   4.094  1.2244  1.0428 -0.4947
14317TIP3   OH264441   3.778   2.803  14.188 -0.3581 -0.1179 -0.0115
14317TIP3    H164442   3.731   2.771  14.265 -2.1473  2.4431  0.1014
14317TIP3    H264443   3.723   2.777  14.114 -0.3947  0.3080 -0.1348
14318TIP3   OH264444   6.671   6.156   4.705  0.3499 -0.5033 -0.0971
14318TIP3    H164445   6.690   6.247   4.682  1.6346 -1.1588 -1.7886
14318TIP3    H264446   6.631   6.119   4.626 -0.7254 -1.2756  0.7766
14319TIP3   OH264447   1.597   3.182   4.182  0.3150 -0.0655  0.9659
14319TIP3    H164448   1.667   3.185   4.117 -0.0848  0.4724  0.5505
14319TIP3    H264449   1.593   3.090   4.209  0.3800 -0.3269  0.1131
14320TIP3   OH264450   4.614   0.543   2.543 -0.1240  0.0404  0.2269
14320TIP3    H164451   4.561   0.565   2.466 -0.6939  0.4011  0.7172
14320TIP3    H264452   4.570   0.587   2.616  0.2642 -0.5102  0.8012
14321TIP3   OH264453   6.423   4.502  16.595  0.1437 -0.7220  0.2378
14321TIP3    H164454   6.361   4.429  16.597 -4.1102  2.5229  0.4136
14321TIP3    H264455   6.382   4.567  16.537  3.6346  1.6105  0.0866
14322TIP3   OH264456   6.276   1.649  12.415  0.2698 -0.5487 -0.1732
14322TIP3    H164457   6.241   1.614  12.334 -1.1673  2.6687 -1.1044
14322TIP3    H264458   6.370   1.658  12.399 -0.2128  1.7538 -2.3230
14323TIP3   OH264459   6.206   2.781   1.471  0.3715 -0.1629 -0.4510
14323TIP3    H164460   6.237   2.861   1.513 -4.0987  1.1516  0.8188
14323TIP3    H264461   6.254   2.711   1.515  0.9283  1.5647  1.8958
14324TIP3   OH264462   4.675   2.506   3.895  0.1673  0.6841  0.4119
14324TIP3    H164463   4.735   2.496   3.821  2.5369  2.8930  1.8724
14324TIP3    H264464   4.590   2.480   3.861  0.9094  2.6412 -3.4662
14325TIP3   OH264465   5.694   5.529   0.973 -0.8236 -0.0618 -0.2742
14325TIP3    H164466   5.604   5.559   0.986 -0.2384  2.0096 -0.5431
14325TIP3    H264467   5.708   5.534   0.878 -0.4574 -0.4858 -0.2476
14326TIP3   OH264468   6.116   2.376   3.218 -1.2463  0.0239 -0.8559
14326TIP3    H164469   6.188   2.322   3.183 -0.0787  2.4043 -2.4159
14326TIP3    H264470   6.141   2.393   3.309 -0.6167 -0.4318 -0.9358
14327TIP3   OH264471   2.023   1.572   2.289 -0.1880 -0.3205 -0.0675
14327TIP3    H164472   2.007   1.621   2.370 -2.3886  0.7038 -1.0096
14327TIP3    H264473   2.063   1.490   2.317 -0.6893  0.1011  2.0290
14328TIP3   OH264474   0.317   3.091  11.505 -0.4448  0.4791 -0.3105
14328TIP3    H164475   0.353   3.067  11.419  2.1836  0.0883  0.8323
14328TIP3    H264476   0.361   3.173  11.528  2.0322 -1.4345  2.3777
14329TIP3   OH264477   5.274   2.745   3.196  0.3636  0.4331 -0.1339
14329TIP3    H164478   5.202   2.802   3.225  0.7605  0.9887 -0.2313
14329TIP3    H264479   5.353   2.795   3.216  0.7345 -0.2716  0.1795
14330TIP3   OH264480   1.756   0.518  14.063 -0.1283  0.3567 -0.1723
14330TIP3    H164481   1.837   0.556  14.097  0.5898 -2.6863  1.9701
14330TIP3    H264482   1.686   0.570  14.103  0.7871  1.0229  0.6037
14331TIP3   OH264483   6.108   3.382   5.165  0.0811  0.5208  0.0125
14331TIP3    H164484   6.066   3.304   5.129 -0.7228  0.5305  0.8975
14331TIP3    H264485   6.182   3.348   5.216 -1.2509  0.1710  1.7963
14332TIP3   OH264486   3.646   3.478   0.814  0.4735 -0.1379 -1.1203
14332TIP3    H164487   3.634   3.412   0.883  4.1493 -0.0253 -0.1986
14332TIP3    H264488   3.705   3.436   0.751  1.3287  1.5694 -1.5072
14333TIP3   OH264489   2.034   5.542   2.583 -0.1938  0.1978 -0.3464
14333TIP3    H164490   2.095   5.571   2.515  1.1031  0.7731  1.0252
14333TIP3    H264491   2.062   5.452   2.603 -1.3905 -0.4595 -1.4256
14334TIP3   OH264492   5.462   0.762  15.028  0.1088 -0.5719 -0.8230
14334TIP3    H164493   5.368   0.769  15.014 -0.3557  0.5719  2.0168
14334TIP3    H264494   5.495   0.850  15.013  0.2521 -0.3573  0.5439
14335TIP3   OH264495   1.141   2.402  11.514 -0.9235 -0.6809 -0.3706
14335TIP3    H164496   1.217   2.345  11.524 -0.0325  0.5046 -0.1772
14335TIP3    H264497   1.169   2.486  11.550 -2.3173 -0.2097 -0.3310
14336TIP3   OH264498   4.257   2.982   1.336 -0.2206  0.1014  0.5343
14336TIP3    H164499   4.203   2.958   1.260  2.1405  0.1655 -1.2740
14336TIP3    H264500   4.301   3.062   1.309  3.3506 -1.7184  0.4730
14337TIP3   OH264501   0.736   5.529  11.457  0.6495 -0.0293  0.4714
14337TIP3    H164502   0.740   5.576  11.374  3.6803  1.0833  1.0990
14337TIP3    H264503   0.644   5.507  11.469 -0.2661  2.1021 -1.8906
14338TIP3   OH264504   6.081   2.755   2.858 -0.2759  0.1555  0.1250
14338TIP3    H164505   6.017   2.693   2.895 -1.1797  0.6692 -0.5371
14338TIP3    H264506   6.042   2.782   2.775  1.1362 -0.0369 -0.6347
14339TIP3   OH264507   4.774   5.482  13.192  0.7430  0.0453 -1.0879
14339TIP3    H164508   4.750   5.516  13.106 -0.1555 -0.2140 -0.9455
14339TIP3    H264509   4.845   5.539  13.221  0.3526  0.7793 -1.5540
14340TIP3   OH264510   3.387   6.551   0.563 -0.6284  0.0808  0.4330
14340TIP3    H164511   3.393   6.462   0.527  1.2224  0.7144 -1.0152
14340TIP3    H264512   3.300   6.582   0.537  0.8195  0.8126 -4.6089
14341TIP3   OH264513   5.981   3.161  14.242 -0.2217  0.1960  0.1419
14341TIP3    H164514   5.935   3.098  14.299  1.8778 -1.4345  0.1452
14341TIP3    H264515   6.074   3.150  14.264  0.4872  0.9525 -2.2233
14342TIP3   OH264516   1.153   0.440  11.428  0.4418  0.0471 -0.1611
14342TIP3    H164517   1.221   0.481  11.481  0.4674 -1.3310  0.9025
14342TIP3    H264518   1.091   0.511  11.411  0.9267  0.7486  0.8825
14343TIP3   OH264519   0.941   6.121   0.490 -0.4973 -0.1275  0.0345
14343TIP3    H164520   0.872   6.064   0.455 -1.0542  0.9169 -0.6179
14343TIP3    H264521   0.894   6.192   0.534  0.1616  0.3298  0.0191
14344TIP3   OH264522   4.580   4.320  15.697  0.1694  0.4666  0.1981
14344TIP3    H164523   4.486   4.313  15.682 -0.0696  0.4471  1.5939
14344TIP3    H264524   4.618   4.320  15.609 -1.1341  0.6007 -0.3927
14345TIP3   OH264525   5.392   0.427  15.092 -0.4838  0.2242  0.5333
14345TIP3    H164526   5.381   0.439  14.997 -0.5276 -0.2171  0.4812
14345TIP3    H264527   5.319   0.370  15.117 -0.1283 -0.1392  0.7349
14346TIP3   OH264528   6.554   4.269   3.252  0.2695 -0.0226 -0.8583
14346TIP3    H164529   6.494   4.195   3.265 -0.1138  0.4121 -0.1216
14346TIP3    H264530   6.589   4.256   3.164  0.3176 -1.1672 -0.6871
14347TIP3   OH264531   2.704   6.054  11.618 -0.1604 -0.1251  1.0117
14347TIP3    H164532   2.649   6.125  11.652  1.1811  0.6530  1.6105
14347TIP3    H264533   2.654   5.975  11.637 -1.8669  0.6458 -0.0213
14348TIP3   OH264534   2.305   5.929  12.284  0.0419 -0.2606 -0.0169
14348TIP3    H164535   2.339   6.005  12.237  0.1334 -0.1041  0.2977
14348TIP3    H264536   2.375   5.907  12.346  1.1904 -2.2108 -1.8473
14349TIP3   OH264537   1.954   4.790   5.090 -0.2841  0.0108  0.6424
14349TIP3    H164538   2.015   4.726   5.055 -0.4558 -0.1978  0.7216
14349TIP3    H264539   1.872   4.742   5.102 -0.4285  0.2543  0.6597
14350TIP3   OH264540   3.563   3.084   5.653  0.0271 -0.4153 -0.3512
14350TIP3    H164541   3.652   3.073   5.620  0.1836 -0.2862  0.0346
14350TIP3    H264542   3.537   3.171   5.625  0.3123 -0.1434  0.2259
14351TIP3   OH264543   0.285   4.479  11.845  0.2684 -0.0502  0.0492
14351TIP3    H164544   0.212   4.483  11.906  1.1403 -0.6188  1.1612
14351TIP3    H264545   0.271   4.397  11.797 -2.2960  1.9360 -3.0576
14352TIP3   OH264546   3.242   5.586   1.070 -0.2137  0.4816 -0.0097
14352TIP3    H164547   3.243   5.612   1.162  0.5762  1.1801 -0.2134
14352TIP3    H264548   3.214   5.664   1.023 -1.9594 -0.2448 -0.2751
14353TIP3   OH264549   2.076   0.756  14.625  0.3682 -0.2159  0.5258
14353TIP3    H164550   2.050   0.725  14.539  0.9035 -0.4068  0.4325
14353TIP3    H264551   2.156   0.708  14.646 -0.0999 -0.6388  1.4079
14354TIP3   OH264552   6.108   3.715   1.336  0.1090  0.1608  0.2016
14354TIP3    H164553   6.195   3.676   1.341 -0.2596 -0.7972 -0.4986
14354TIP3    H264554   6.084   3.730   1.428  1.3985  1.3963  0.3726
14355TIP3   OH264555   0.168   0.567  15.994  0.4429 -0.1377  0.2739
14355TIP3    H164556   0.083   0.585  16.034 -0.5157  0.6806 -1.9860
14355TIP3    H264557   0.217   0.519  16.062 -3.2401 -4.4052  0.3929
14356TIP3   OH264558   4.770   2.221  14.362 -0.1758 -0.0285  0.0245
14356TIP3    H164559   4.774   2.271  14.444 -2.2581  0.0383  0.1492
14356TIP3    H264560   4.825   2.270  14.301  0.4467  0.5881  1.0408
14357TIP3   OH264561   0.945   1.604  10.639  0.2105 -0.2854 -0.3144
14357TIP3    H164562   1.020   1.546  10.626  0.9214  0.5800 -0.2176
14357TIP3    H264563   0.956   1.639  10.727 -1.5004 -1.7797  0.5394
14358TIP3   OH264564   1.035   5.996  11.714  0.0748  0.7243  0.0509
14358TIP3    H164565   1.073   6.025  11.797  0.1034 -0.4237  0.4594
14358TIP3    H264566   0.978   6.068  11.687  0.8133  1.5184  0.5713
14359TIP3   OH264567   2.881   4.830  11.727  0.6987 -0.0705  0.3508
14359TIP3    H164568   2.932   4.799  11.802  1.6854 -0.0358 -0.2942
14359TIP3    H264569   2.829   4.903  11.763  1.4654  0.2166  0.9095
14360TIP3   OH264570   1.409   5.798   2.322 -0.4445  0.5378  0.1215
14360TIP3    H164571   1.419   5.785   2.227 -0.4076 -0.1682  0.2177
14360TIP3    H264572   1.338   5.862   2.330  1.3468  2.7475 -0.4602
14361TIP3   OH264573   3.107   1.254   5.996 -0.7467 -0.1990  1.0009
14361TIP3    H164574   3.132   1.346   5.997  0.2473 -0.3838 -1.4259
14361TIP3    H264575   3.103   1.230   6.089 -1.6270  2.3933  1.7134
14362TIP3   OH264576   2.398   6.295  13.042  0.4601 -1.2077  0.4401
14362TIP3    H164577   2.424   6.342  13.120  0.8001 -1.6870  0.6219
14362TIP3    H264578   2.330   6.234  13.071 -1.3220  0.4198 -0.1334
14363TIP3   OH264579   2.509   4.099  16.715  0.4113 -0.8039 -0.0137
14363TIP3    H164580   2.512   4.180  16.664  1.9634 -0.6827  0.2378
14363TIP3    H264581   2.503   4.030  16.649 -0.0122 -0.5438 -0.2584
14364TIP3   OH264582   3.073   6.724   3.184  0.4266  0.3414 -0.4125
14364TIP3    H164583   3.038   6.659   3.124 -2.1536  0.7918  0.4835
14364TIP3    H264584   3.063   6.807   3.137 -0.4006  0.5487  0.1133
14365TIP3   OH264585   0.931   1.668  15.467 -0.1941 -0.2831 -0.5864
14365TIP3    H164586   1.010   1.620  15.492 -0.2387 -0.0921 -0.0539
14365TIP3    H264587   0.859   1.611  15.496 -0.2693  0.8517  1.6854
14366TIP3   OH264588   2.893   1.209   2.524 -0.6429  0.3945 -0.8689
14366TIP3    H164589   2.881   1.294   2.566 -0.0456  1.0454 -1.9673
14366TIP3    H264590   2.982   1.212   2.489 -1.0953 -0.1261 -2.1280
14367TIP3   OH264591   3.491   5.244   5.058  0.3059  0.3131 -0.1465
14367TIP3    H164592   3.581   5.222   5.082  0.6660  1.1439 -0.6912
14367TIP3    H264593   3.481   5.209   4.970  0.2886  0.7091 -0.3057
14368TIP3   OH264594   0.301   2.536   4.459 -0.0856 -0.3939  0.3596
14368TIP3    H164595   0.259   2.618   4.435 -0.2515 -0.0052  1.8291
14368TIP3    H264596   0.247   2.501   4.530  0.9312 -0.8900  0.9280
14369TIP3   OH264597   3.463   2.111  12.948 -0.1820 -0.4482 -0.8477
14369TIP3    H164598   3.410   2.032  12.956 -1.3464  0.3178 -0.7401
14369TIP3    H264599   3.399   2.182  12.943  0.7670  0.3422 -2.8031
14370TIP3   OH264600   0.216   4.708  16.906  0.2580 -0.6928 -0.5806
14370TIP3    H164601   0.220   4.688  16.812 -1.6163  2.9933 -1.5972
14370TIP3    H264602   0.139   4.661  16.937 -1.5833  1.2722 -1.9278
14371TIP3   OH264603   3.466   5.328   1.730 -0.3526  0.1629  0.0597
14371TIP3    H164604   3.547   5.360   1.770  0.4886 -1.3019 -0.4002
14371TIP3    H264605   3.409   5.404   1.726  1.0210  1.2351  0.3543
14372TIP3   OH264606   3.311   4.891  11.692  0.4150  0.4277 -0.4409
14372TIP3    H164607   3.248   4.829  11.657  0.1690  0.3910  0.0499
14372TIP3    H264608   3.395   4.845  11.689  0.1809 -0.0594  0.2206
14373TIP3   OH264609   4.222   0.166   1.364 -0.0970  0.0683  0.2269
14373TIP3    H164610   4.225   0.258   1.339  2.4191  0.0254  0.1571
14373TIP3    H264611   4.206   0.119   1.282 -2.0503  0.4245  0.3589
14374TIP3   OH264612   1.344   3.540  14.119  0.2230 -0.1638  0.5325
14374TIP3    H164613   1.317   3.603  14.051 -0.1224 -0.0058  0.8138
14374TIP3    H264614   1.299   3.569  14.198  3.7403  2.1568  1.9339
14375TIP3   OH264615   5.849   4.528   3.894  1.0164  0.0036 -0.2562
14375TIP3    H164616   5.879   4.440   3.873 -0.5791 -0.4165 -0.9343
14375TIP3    H264617   5.756   4.518   3.913  1.2764  1.2135  1.9464
14376TIP3   OH264618   5.690   2.101   4.299  0.2980  0.1168  0.7180
14376TIP3    H164619   5.607   2.143   4.325  0.2150  1.7913 -1.9142
14376TIP3    H264620   5.754   2.133   4.363 -0.9467 -0.9562  2.6057
14377TIP3   OH264621   1.919   2.235  12.582  0.8412  0.4274 -0.0260
14377TIP3    H164622   1.868   2.169  12.536 -0.5456  1.8007 -0.5639
14377TIP3    H264623   1.941   2.195  12.666 -0.3186 -0.5666 -0.1721
14378TIP3   OH264624   4.424   3.754  15.896  0.2400 -0.1917 -0.1744
14378TIP3    H164625   4.430   3.770  15.802 -0.9117 -0.0371 -0.2286
14378TIP3    H264626   4.453   3.836  15.937  0.0618 -0.0161 -0.4020
14379TIP3   OH264627   2.550   2.103   2.120  0.2790 -0.3798 -0.7637
14379TIP3    H164628   2.456   2.081   2.124  0.6341 -1.8093  1.2812
14379TIP3    H264629   2.554   2.195   2.146 -0.4755 -0.6863  0.5413
14380TIP3   OH264630   3.416   3.837  15.876 -0.8884  0.1175 -0.2881
14380TIP3    H164631   3.393   3.758  15.925  0.1767  0.2086  0.4159
14380TIP3    H264632   3.363   3.906  15.916 -0.6842  0.0292  0.1428
14381TIP3   OH264633   4.248   5.112  12.704  0.3175 -0.2872 -0.3556
14381TIP3    H164634   4.234   5.155  12.788  2.1535  0.8427 -0.5603
14381TIP3    H264635   4.165   5.069  12.685 -1.5311  2.7462  0.1191
14382TIP3   OH264636   1.477   0.936  15.833 -0.3316 -0.0642  0.1991
14382TIP3    H164637   1.462   0.985  15.914 -0.2813 -0.5991  0.5392
14382TIP3    H264638   1.562   0.894  15.846  0.4552  1.1460 -0.7959
14383TIP3   OH264639   0.767   0.465  15.639 -0.3277 -0.1184 -0.4217
14383TIP3    H164640   0.809   0.417  15.567  0.3944 -0.3177  0.1209
14383TIP3    H264641   0.836   0.523  15.673  0.0309 -1.5781  1.5045
14384TIP3   OH264642   0.934   0.352   5.579 -0.0498  0.1509  0.4544
14384TIP3    H164643   0.960   0.338   5.488  0.0939  0.9407  0.3611
14384TIP3    H264644   0.839   0.358   5.577 -0.0216  0.6540  0.2686
14385TIP3   OH264645   2.156   2.351  16.202 -0.1976  0.0818  0.2283
14385TIP3    H164646   2.126   2.426  16.254 -0.9728  0.8067 -1.1731
14385TIP3    H264647   2.232   2.384  16.155  0.9421 -0.7904  1.4092
14386TIP3   OH264648   4.008   4.626   2.977  0.0496  1.0484 -0.0102
14386TIP3    H164649   3.922   4.584   2.988  1.1248 -1.5501 -0.6190
14386TIP3    H264650   4.028   4.662   3.063  0.2400 -2.3469  1.5400
14387TIP3   OH264651   4.262   0.445  15.053  0.2369 -0.8489 -0.3364
14387TIP3    H164652   4.283   0.538  15.043 -0.5540 -0.3889  1.8141
14387TIP3    H264653   4.192   0.429  14.989 -0.3826  0.3199  0.0217
14388TIP3   OH264654   5.661   6.557  16.886  0.0212  0.2856  0.1011
14388TIP3    H164655   5.745   6.536  16.846 -0.0970  2.1658 -1.3197
14388TIP3    H264656   5.659   6.506  16.967  1.9507 -0.7855 -0.4593
14389TIP3   OH264657   0.783   3.526   5.697 -0.2285  0.3215 -0.0089
14389TIP3    H164658   0.808   3.581   5.772 -0.1193  0.1160  0.1085
14389TIP3    H264659   0.725   3.460   5.735 -1.0214  0.8393 -0.2965
14390TIP3   OH264660   5.993   0.725  12.299 -0.1047 -0.5492 -0.1863
14390TIP3    H164661   5.994   0.630  12.286  3.0371 -1.0875  2.6319
14390TIP3    H264662   5.953   0.737  12.385  1.2753  0.4385  0.3559
14391TIP3   OH264663   0.810   1.697  12.475 -0.1512 -0.4616 -0.1254
14391TIP3    H164664   0.880   1.631  12.470  0.2904  0.0264 -0.4975
14391TIP3    H264665   0.729   1.647  12.467  0.1903 -0.9113 -0.8489
14392TIP3   OH264666   0.785   4.479   5.671 -0.2072 -0.2379  0.0086
14392TIP3    H164667   0.842   4.527   5.732  0.2338  0.6691 -1.0718
14392TIP3    H264668   0.842   4.457   5.597 -1.2553  0.8823 -1.2002
14393TIP3   OH264669   0.453   2.761  16.930  0.1579 -0.1261  0.0456
14393TIP3    H164670   0.521   2.759  16.863 -0.3624 -1.5403 -0.4977
14393TIP3    H264671   0.376   2.797  16.886  0.0112 -0.3989  0.0737
14394TIP3   OH264672   3.842   1.571   5.287 -0.3803 -0.1404 -0.3815
14394TIP3    H164673   3.769   1.626   5.261 -1.9068 -2.2784 -0.8575
14394TIP3    H264674   3.858   1.594   5.379 -1.3693  0.6636 -0.3976
14395TIP3   OH264675   1.378   6.695  11.848  0.1378  0.7080 -0.6384
14395TIP3    H164676   1.360   6.608  11.884  0.7727  1.0570  0.5988
14395TIP3    H264677   1.316   6.705  11.776 -3.3536  1.1054  2.1126
14396TIP3   OH264678   0.023   3.810  14.318 -0.4871  0.3040  0.3186
14396TIP3    H164679   0.004   3.745  14.386  0.6600 -0.3858  0.0168
14396TIP3    H264680   0.029   3.893  14.365  0.0581 -0.1295  1.0389
14397TIP3   OH264681   3.878   3.607   0.952  0.0157  0.3020 -0.2471
14397TIP3    H164682   3.814   3.538   0.936  0.3372  0.0481 -0.4629
14397TIP3    H264683   3.937   3.603   0.877  0.1060  0.7348 -0.2005
14398TIP3   OH264684   0.928   4.769  14.320  0.2007 -0.1462  0.4255
14398TIP3    H164685   0.943   4.834  14.251 -0.3035 -0.6865 -0.2017
14398TIP3    H264686   0.838   4.786  14.349  0.7105  0.6740  1.6019
14399TIP3   OH264687   2.509   3.223   0.581  0.6009 -0.0746  0.1399
14399TIP3    H164688   2.478   3.198   0.494 -1.5683  0.7535  0.6150
14399TIP3    H264689   2.516   3.141   0.629 -1.2601 -0.3037  0.0877
14400TIP3   OH264690   1.503   5.417   5.109  0.3591  0.2400  0.7080
14400TIP3    H164691   1.431   5.461   5.063  2.0246  2.9305  0.4542
14400TIP3    H264692   1.463   5.380   5.188 -1.3655  1.2805  0.3685
14401TIP3   OH264693   5.069   1.609  16.786  0.1985  1.0091 -0.0179
14401TIP3    H164694   5.129   1.534  16.794  0.3054  1.0177 -0.7355
14401TIP3    H264695   5.032   1.602  16.699 -0.6844  1.1435  0.3357
14402TIP3   OH264696   5.837   1.858   1.292 -0.3139 -0.0562 -0.0909
14402TIP3    H164697   5.780   1.926   1.327 -0.3869 -0.8503  1.3860
14402TIP3    H264698   5.899   1.905   1.236 -0.6460  1.1668  0.5382
14403TIP3   OH264699   3.036   6.081   0.206 -0.4680  0.6647  0.3573
14403TIP3    H164700   3.015   5.992   0.177  0.5213  0.8756 -1.1397
14403TIP3    H264701   3.131   6.085   0.202 -0.5461  2.2563 -1.1737
14404TIP3   OH264702   1.135   1.648   1.420 -0.0101 -0.2712  0.5481
14404TIP3    H164703   1.059   1.602   1.456  0.9398 -1.1101  1.5989
14404TIP3    H264704   1.129   1.635   1.326 -0.5652 -1.3092  0.7098
14405TIP3   OH264705   6.232   3.975  16.038  0.4061  0.6719 -0.2962
14405TIP3    H164706   6.159   3.985  15.976 -0.1677  1.2494  0.4467
14405TIP3    H264707   6.251   4.064  16.067  0.6545  0.4110  0.3682
14406TIP3   OH264708   1.747   1.728  13.886  0.5294 -0.3049  0.3553
14406TIP3    H164709   1.753   1.713  13.792  0.8916 -0.4054  0.3939
14406TIP3    H264710   1.837   1.724  13.917  0.4343 -0.0389  0.6718
14407TIP3   OH264711   2.390   1.523   4.935  0.1453 -0.2230 -0.2923
14407TIP3    H164712   2.357   1.532   4.846  0.8494  0.9252 -0.4646
14407TIP3    H264713   2.423   1.610   4.957 -0.1457 -0.4490  1.1482
14408TIP3   OH264714   4.854   2.088  12.921 -0.4048 -0.2778  0.4837
14408TIP3    H164715   4.773   2.100  12.970 -0.0155  0.4435  0.9707
14408TIP3    H264716   4.923   2.098  12.987  0.1325  0.8494 -0.2260
14409TIP3   OH264717   4.621   3.954  14.159  0.1938  0.1190 -0.6413
14409TIP3    H164718   4.578   3.951  14.245  2.1913  0.2313  0.4224
14409TIP3    H264719   4.712   3.929  14.177  0.9539  1.3066 -2.5338
14410TIP3   OH264720   6.351   5.108  14.695 -0.5120  0.3324  0.0399
14410TIP3    H164721   6.429   5.085  14.644 -1.0695 -3.2205  0.4869
14410TIP3    H264722   6.372   5.192  14.735  2.4401  0.2709 -1.1301
14411TIP3   OH264723   1.242   4.615   2.510  0.0650 -0.3389  0.4859
14411TIP3    H164724   1.258   4.534   2.559 -0.5768 -1.8070 -1.5475
14411TIP3    H264725   1.232   4.585   2.419 -1.3706  1.9002 -0.1648
14412TIP3   OH264726   6.150   2.461  14.779 -0.5754  0.2217  0.1203
14412TIP3    H164727   6.171   2.552  14.756 -0.5969 -0.2123 -1.8064
14412TIP3    H264728   6.217   2.436  14.843 -0.3122  1.4474  0.3471
14413TIP3   OH264729   1.709   1.903  12.913 -0.6559 -0.1595  0.2414
14413TIP3    H164730   1.734   1.818  12.950  1.4247  0.2681 -0.0699
14413TIP3    H264731   1.668   1.950  12.985  1.0724 -0.2665  1.3559
14414TIP3   OH264732   6.489   3.654   1.139 -0.2060  0.1339  0.1020
14414TIP3    H164733   6.563   3.680   1.085  0.9539 -0.2898  1.4374
14414TIP3    H264734   6.467   3.732   1.189  0.5851 -0.2415  1.0727
14415TIP3   OH264735   3.525   2.122  11.387 -0.2820  0.0756  0.0177
14415TIP3    H164736   3.441   2.166  11.374 -0.0778  0.4203 -0.1593
14415TIP3    H264737   3.580   2.188  11.427  0.3811  0.3707 -1.3121
14416TIP3   OH264738   5.858   0.475  12.511  0.0018 -0.2912  0.3208
14416TIP3    H164739   5.849   0.384  12.540 -1.5652  0.0035  0.8433
14416TIP3    H264740   5.900   0.468  12.425 -0.4639 -1.5452  0.1639
14417TIP3   OH264741   3.001   1.044   4.625 -0.1268  0.4231 -0.0969
14417TIP3    H164742   3.093   1.017   4.619  0.1593  1.3688 -0.0732
14417TIP3    H264743   2.952   0.967   4.597  0.6133 -0.5084  1.0671
14418TIP3   OH264744   2.722   0.461   1.108  0.1485 -0.2370  0.0965
14418TIP3    H164745   2.668   0.540   1.110 -0.3141 -0.5273 -0.6165
14418TIP3    H264746   2.676   0.400   1.167  0.3611 -0.0635  0.4403
14419TIP3   OH264747   1.725   3.423  13.035 -0.2128  0.6010  0.3203
14419TIP3    H164748   1.665   3.404  13.107  1.5490  1.3622  2.1031
14419TIP3    H264749   1.781   3.493  13.069  1.6601 -0.0404 -1.2455
14420TIP3   OH264750   0.725   2.510  16.030  0.1611 -0.1195 -0.8787
14420TIP3    H164751   0.718   2.579  16.095 -0.1203 -0.5012 -0.4946
14420TIP3    H264752   0.714   2.429  16.080 -1.0273 -0.3839 -1.5194
14421TIP3   OH264753   2.187   3.967  14.828  0.2664  0.0768  0.1574
14421TIP3    H164754   2.204   3.993  14.738 -0.0676 -0.4160 -0.0522
14421TIP3    H264755   2.110   3.911  14.823  0.5400 -0.3649  0.6818
14422TIP3   OH264756   3.850   4.738  12.053 -0.0476  0.4491  0.3877
14422TIP3    H164757   3.895   4.655  12.071 -0.2252  0.7349  2.2543
14422TIP3    H264758   3.783   4.715  11.988  1.0816 -0.4770 -0.5008
14423TIP3   OH264759   6.584   0.380   4.345  0.8142  0.9425 -0.7523
14423TIP3    H164760   6.528   0.378   4.267  0.5505  0.4004 -0.5596
14423TIP3    H264761   6.592   0.472   4.366  0.0738  1.0362 -0.8546
14424TIP3   OH264762   4.318   5.688   3.461  0.2627  0.6930  0.2294
14424TIP3    H164763   4.249   5.709   3.524  0.6984  0.3089  0.8533
14424TIP3    H264764   4.292   5.604   3.425  0.1189  0.8151  0.0460
14425TIP3   OH264765   0.186   1.932   4.117 -0.3076  0.5581 -0.2815
14425TIP3    H164766   0.125   1.872   4.074 -1.1877  0.8313  0.5575
14425TIP3    H264767   0.266   1.881   4.129 -0.8219 -0.2282 -0.1864
14426TIP3   OH264768   4.360   6.042   3.107  0.0595 -0.0225  0.1905
14426TIP3    H164769   4.388   6.001   3.025 -0.0037  1.3415 -0.5346
14426TIP3    H264770   4.401   6.128   3.107  0.5468 -0.2132  1.8959
14427TIP3   OH264771   3.537   6.588   3.827  0.2117  0.4619 -0.2773
14427TIP3    H164772   3.571   6.527   3.893 -0.0786  0.8287  0.2226
14427TIP3    H264773   3.442   6.586   3.839  0.0621 -0.2880 -1.4301
14428TIP3   OH264774   5.965   2.481  11.485  0.4108 -0.1874  0.0844
14428TIP3    H164775   5.926   2.488  11.397 -0.1755 -0.3554  0.3249
14428TIP3    H264776   6.053   2.446  11.469  0.7261  0.8547 -0.5284
14429TIP3   OH264777   2.711   4.957   5.815  0.2526  0.0663  0.1151
14429TIP3    H164778   2.670   4.926   5.896  0.4741 -1.3422 -0.2766
14429TIP3    H264779   2.706   4.882   5.756  0.3653  0.9723 -1.0854
14430TIP3   OH264780   2.426   0.914   2.474 -0.2722  1.0708 -0.0988
14430TIP3    H164781   2.517   0.942   2.479 -0.2417  0.8961  0.3789
14430TIP3    H264782   2.381   0.988   2.433  0.0596  1.2137 -0.2106
14431TIP3   OH264783   6.022   1.742   4.755 -0.1108  0.1327 -0.0699
14431TIP3    H164784   5.994   1.721   4.666 -0.0083  0.9179 -0.2924
14431TIP3    H264785   6.015   1.659   4.802  0.2580 -0.3911 -0.9119
14432TIP3   OH264786   2.509   3.394  14.116  0.0110  0.0853  0.1173
14432TIP3    H164787   2.560   3.460  14.069 -1.1962 -0.1097 -1.5632
14432TIP3    H264788   2.550   3.388  14.202  1.0165  1.9807 -0.1881
14433TIP3   OH264789   0.748   0.862   5.302 -0.4884  0.1307  0.2129
14433TIP3    H164790   0.823   0.920   5.318 -1.2505  0.4344  3.3372
14433TIP3    H264791   0.674   0.905   5.344 -1.2637 -2.6316  1.9411
14434TIP3   OH264792   3.489   1.175  11.686 -0.1461  0.1050  0.1292
14434TIP3    H164793   3.570   1.160  11.638 -0.1128  1.0750 -0.1385
14434TIP3    H264794   3.517   1.211  11.770 -0.3101  1.4334 -0.3513
14435TIP3   OH264795   4.263   5.818  14.002  0.2750  0.4781  0.0954
14435TIP3    H164796   4.337   5.864  13.961  0.8819  0.2933  0.9504
14435TIP3    H264797   4.261   5.852  14.092 -2.0232  2.0596 -0.4743
14436TIP3   OH264798   6.763   3.170  16.363 -0.2619  0.0349 -0.2238
14436TIP3    H164799   6.856   3.192  16.356 -0.4082  0.5354 -0.7392
14436TIP3    H264800   6.742   3.132  16.277 -0.1698 -1.5729  0.4302
14437TIP3   OH264801   1.401   1.682   3.434  0.5484 -0.2592 -0.5029
14437TIP3    H164802   1.403   1.599   3.386  1.6580  0.0719 -1.0493
14437TIP3    H264803   1.479   1.681   3.488  1.4911  1.1208 -1.7475
14438TIP3   OH264804   3.295   6.325  15.087  0.5442  0.4192  0.4207
14438TIP3    H164805   3.334   6.249  15.044  3.1517  0.8645  1.7964
14438TIP3    H264806   3.246   6.289  15.160  0.8087 -0.0297  0.3849
14439TIP3   OH264807   1.868   1.049  11.758 -0.0160  0.3663 -0.9047
14439TIP3    H164808   1.905   1.081  11.675 -1.6780  1.9635 -1.0781
14439TIP3    H264809   1.849   1.128  11.808 -0.1408 -0.5402  0.5294
14440TIP3   OH264810   4.032   4.521  13.598  0.0131 -0.1733  0.2002
14440TIP3    H164811   3.999   4.593  13.653  0.4440 -0.9966  1.5797
14440TIP3    H264812   4.001   4.442  13.642  3.3380 -1.0136  1.3307
14441TIP3   OH264813   2.986   5.198  14.106  0.0232  0.2512 -0.3477
14441TIP3    H164814   3.025   5.154  14.182 -1.0087  1.6375  1.0376
14441TIP3    H264815   3.031   5.159  14.030 -1.1123 -3.5118  0.6905
14442TIP3   OH264816   4.997   4.131  11.290 -0.1701  0.9571  0.2269
14442TIP3    H164817   5.013   4.170  11.376  0.1545  2.3673 -0.4391
14442TIP3    H264818   5.080   4.143  11.243  0.6611 -2.3625  0.5984
14443TIP3   OH264819   5.771   0.552  16.696 -0.2901 -0.4559  0.2293
14443TIP3    H164820   5.775   0.555  16.600  0.8916  1.4921  0.2666
14443TIP3    H264821   5.860   0.575  16.724 -0.7820 -0.3350  1.7874
14444TIP3   OH264822   0.630   6.096   5.441  0.1483 -0.2163 -0.0005
14444TIP3    H164823   0.667   6.044   5.512 -0.1605 -0.0434  0.2912
14444TIP3    H264824   0.548   6.131   5.477  0.2678  0.3288 -0.2482
14445TIP3   OH264825   0.324   4.053  16.981  0.4534 -0.6551 -0.0933
14445TIP3    H164826   0.244   4.050  16.929 -1.6392  0.8188  2.7973
14445TIP3    H264827   0.318   3.977  17.039  0.8427 -0.1856  0.5731
14446TIP3   OH264828   3.790   6.375   5.200  0.4374  0.3886 -0.1701
14446TIP3    H164829   3.739   6.418   5.268  0.9773 -0.3913  0.7659
14446TIP3    H264830   3.749   6.288   5.191  0.1571  0.6117 -1.0945
14447TIP3   OH264831   1.057   4.618  13.477  0.5895  0.3068  0.6031
14447TIP3    H164832   1.146   4.604  13.442  0.6278  0.2822  0.7101
14447TIP3    H264833   1.013   4.534  13.463 -0.5255  1.3173 -2.6532
14448TIP3   OH264834   0.572   2.391   3.160  0.5179 -0.9028  0.2475
14448TIP3    H164835   0.556   2.403   3.254 -2.3819 -2.1175  0.0010
14448TIP3    H264836   0.513   2.453   3.117 -0.6944 -2.6620 -0.7619
14449TIP3   OH264837   6.714   3.458  13.431  0.0538 -0.1204 -0.1287
14449TIP3    H164838   6.743   3.513  13.358 -0.9912  2.1043  1.0393
14449TIP3    H264839   6.623   3.435  13.409 -0.4101  0.9123  0.6001
14450TIP3   OH264840   4.443   3.723  15.220 -0.0807 -0.6337  0.7433
14450TIP3    H164841   4.465   3.630  15.226 -0.3986 -0.8620 -0.9692
14450TIP3    H264842   4.514   3.767  15.267  0.2491 -1.7146  1.3083
14451TIP3   OH264843   2.312   5.520   0.962  0.1466 -0.0725  0.1409
14451TIP3    H164844   2.235   5.472   0.931 -0.4324  0.3084  0.9491
14451TIP3    H264845   2.323   5.591   0.899 -1.3668  1.0393  1.0524
14452TIP3   OH264846   6.087   1.968   1.841 -0.3367 -0.2960  0.2031
14452TIP3    H164847   6.131   2.048   1.872 -0.5270 -0.2383  0.3239
14452TIP3    H264848   6.001   1.998   1.813 -0.5544 -0.5272  0.6262
14453TIP3   OH264849   2.053   5.673  11.995 -0.3513 -0.4382  0.4250
14453TIP3    H164850   2.097   5.757  12.006 -1.4400  0.2670 -0.3724
14453TIP3    H264851   2.103   5.628  11.927 -0.7324  0.2868 -0.3599
14454TIP3   OH264852   3.508   0.680   2.149 -0.0370  0.1387 -0.4537
14454TIP3    H164853   3.564   0.757   2.139  0.2873 -0.0015  0.2357
14454TIP3    H264854   3.442   0.707   2.213  0.9976 -0.6431  0.9950
14455TIP3   OH264855   0.556   2.281  14.712 -0.0813 -0.3363  0.0392
14455TIP3    H164856   0.521   2.311  14.795  0.3015  2.0376 -0.5751
14455TIP3    H264857   0.643   2.321  14.706 -0.1730 -0.2847 -1.5653
14456TIP3   OH264858   5.542   0.018  12.641  0.3057  0.2314  0.5322
14456TIP3    H164859   5.629  -0.004  12.675  0.9119  3.3308  1.2789
14456TIP3    H264860   5.482  -0.033  12.695  1.5671 -0.4537  1.3476
14457TIP3   OH264861   1.427   0.034   6.437  0.1153 -0.3125 -0.0939
14457TIP3    H164862   1.405   0.127   6.440  1.5669  0.0781 -0.5949
14457TIP3    H264863   1.497   0.028   6.372  0.3243 -1.7019  0.2252
14458TIP3   OH264864   0.103   4.277   4.286 -0.1384  0.0509 -0.3774
14458TIP3    H164865   0.175   4.227   4.249 -0.5640 -0.7421 -0.1504
14458TIP3    H264866   0.121   4.280   4.380  0.0672  0.6306 -0.4294
14459TIP3   OH264867   4.073   1.584  12.412  0.1484  0.3715 -0.0973
14459TIP3    H164868   4.155   1.562  12.368 -0.1979 -0.8166 -0.1773
14459TIP3    H264869   4.085   1.554  12.502 -0.0010  0.6787  0.0265
14460TIP3   OH264870   3.852   0.551   0.774  0.6798  0.1894  0.3257
14460TIP3    H164871   3.775   0.597   0.741 -0.7503 -2.1026  0.2863
14460TIP3    H264872   3.868   0.590   0.860 -1.9216 -0.7263  1.3144
14461TIP3   OH264873   1.945   4.244   5.974 -0.1864 -0.6931  0.5293
14461TIP3    H164874   2.029   4.273   6.011  1.1170 -1.8197 -1.3546
14461TIP3    H264875   1.891   4.324   5.972  1.1196  0.2418  1.0238
14462TIP3   OH264876   6.281   0.585  12.087  0.3954 -0.1825 -0.5038
14462TIP3    H164877   6.257   0.556  12.175 -0.2190  0.8685 -0.3006
14462TIP3    H264878   6.198   0.588  12.039  0.4928  0.7408 -0.6443
14463TIP3   OH264879   3.771   5.288  12.189 -0.3641  0.2892 -0.0411
14463TIP3    H164880   3.778   5.279  12.284  1.4044  0.1144 -0.1541
14463TIP3    H264881   3.800   5.203  12.155  2.2176  1.3863 -0.7761
14464TIP3   OH264882   2.145   1.600   1.852 -0.6027 -0.3218 -0.1370
14464TIP3    H164883   2.084   1.643   1.913  0.3048 -0.6128  1.0170
14464TIP3    H264884   2.232   1.618   1.889 -0.1676 -4.6277  1.5122
14465TIP3   OH264885   1.898   5.217  13.655 -0.1309 -0.3634  0.4087
14465TIP3    H164886   1.948   5.283  13.607  1.2379 -1.7062 -0.0963
14465TIP3    H264887   1.962   5.178  13.716 -1.3235 -0.1053  1.8938
14466TIP3   OH264888   0.656   1.392  16.294  0.0739 -0.0853  0.3475
14466TIP3    H164889   0.694   1.368  16.210  1.3800  0.3008  0.7902
14466TIP3    H264890   0.589   1.326  16.311 -0.3991 -0.0018 -1.1122
14467TIP3   OH264891   5.975   2.961  10.689 -0.0305 -0.0996  0.2416
14467TIP3    H164892   5.912   2.907  10.737  0.5426  0.4517  1.6789
14467TIP3    H264893   5.977   3.044  10.737 -0.6860  1.1477 -1.7556
14468TIP3   OH264894   3.117   4.110   5.495  0.0983 -0.6328 -0.4629
14468TIP3    H164895   3.165   4.174   5.442 -0.4045  1.1833  1.1566
14468TIP3    H264896   3.184   4.046   5.521  1.1287  0.4535 -0.3214
14469TIP3   OH264897   0.718   6.422   6.191 -0.2018  0.3068  0.5895
14469TIP3    H164898   0.707   6.462   6.105  1.5321  0.3904  0.3724
14469TIP3    H264899   0.782   6.478   6.235  0.9403 -1.2233  0.9372
14470TIP3   OH264900   5.567   0.584  12.400 -0.8261  0.1847 -0.1408
14470TIP3    H164901   5.615   0.583  12.317 -1.8705  0.0463 -0.7609
14470TIP3    H264902   5.635   0.598  12.467 -0.0790  1.2950 -1.0848
14471TIP3   OH264903   2.038   4.227  16.049 -0.4691  0.7504  0.4092
14471TIP3    H164904   2.019   4.301  15.991  1.5516  0.5768 -0.5670
14471TIP3    H264905   2.026   4.150  15.994 -1.2135  0.4231  1.0256
14472TIP3   OH264906   1.405   3.741  12.893  0.2826  0.0244 -0.0153
14472TIP3    H164907   1.348   3.725  12.968 -2.0635  2.1818 -1.1876
14472TIP3    H264908   1.472   3.673  12.899 -0.7715 -0.9061  3.0436
14473TIP3   OH264909   0.982   4.209  11.931 -0.3106  0.2524 -0.0012
14473TIP3    H164910   0.942   4.126  11.905  0.5488 -0.6921  1.5653
14473TIP3    H264911   0.908   4.266  11.950 -0.9173 -0.5100 -0.0206
14474TIP3   OH264912   1.872   1.776  12.620  0.6256 -1.0792 -0.1432
14474TIP3    H164913   1.931   1.785  12.695  0.5248 -0.7425 -0.1053
14474TIP3    H264914   1.796   1.729  12.655 -1.4327  2.7619  1.1116
14475TIP3   OH264915   0.441   0.104  14.470 -0.1860 -0.6827  0.2614
14475TIP3    H164916   0.445   0.193  14.435 -2.5978  0.4211  2.4054
14475TIP3    H264917   0.384   0.056  14.409  1.3003 -0.8693 -1.0219
14476TIP3   OH264918   3.913   1.935   0.521 -0.1728  0.0644 -0.0322
14476TIP3    H164919   3.874   1.962   0.604  0.5031  0.8177  0.0583
14476TIP3    H264920   3.987   1.995   0.509  0.9752 -1.3112 -0.1737
14477TIP3   OH264921   5.405   3.300  16.126  0.1449  0.5437 -0.1151
14477TIP3    H164922   5.358   3.355  16.189 -0.1787  0.9759 -0.7270
14477TIP3    H264923   5.491   3.286  16.166 -0.4105 -0.0687  0.9129
14478TIP3   OH264924   1.234   1.324  14.628  0.6888 -0.4548 -0.2465
14478TIP3    H164925   1.165   1.373  14.672  0.8486 -1.3653  1.0882
14478TIP3    H264926   1.303   1.389  14.612  0.0703  0.1757 -0.3573
14479TIP3   OH264927   4.418   2.963  13.820 -0.2427 -0.5369 -0.5301
14479TIP3    H164928   4.327   2.990  13.810 -0.0874  0.1784 -0.0981
14479TIP3    H264929   4.414   2.882  13.872 -0.5524  0.4678  1.0909
14480TIP3   OH264930   4.310   1.901   3.048  0.6238 -0.2441 -0.8372
14480TIP3    H164931   4.316   1.817   3.003  0.8844 -0.0874 -1.0940
14480TIP3    H264932   4.243   1.950   3.001 -1.4764 -1.2853  0.8993
14481TIP3   OH264933   2.856   0.834  14.256  0.3748 -0.2365  0.0490
14481TIP3    H164934   2.920   0.775  14.216  1.8389 -0.1029  2.0247
14481TIP3    H264935   2.784   0.836  14.194  1.1717 -2.4469 -1.0829
14482TIP3   OH264936   0.700   5.025   1.379  0.0825  0.2207  0.3438
14482TIP3    H164937   0.715   4.955   1.443  1.6072  0.6425  0.4937
14482TIP3    H264938   0.675   4.979   1.299  1.5608 -0.5742  0.2889
14483TIP3   OH264939   0.253   3.375  11.861  0.3005  0.6782  0.6667
14483TIP3    H164940   0.208   3.457  11.842  0.6650  0.9116  0.8170
14483TIP3    H264941   0.186   3.308  11.848  0.2067  0.9286 -0.2275
14484TIP3   OH264942   0.693   0.004   5.355 -0.2974  0.1011 -0.8498
14484TIP3    H164943   0.611  -0.023   5.314 -1.4089 -2.1698  2.4544
14484TIP3    H264944   0.733  -0.077   5.385  1.4202  1.4208  0.6501
14485TIP3   OH264945   0.444   2.156  15.124  0.0565 -0.1280  0.2115
14485TIP3    H164946   0.396   2.108  15.192  0.0907  0.2398  0.5035
14485TIP3    H264947   0.385   2.156  15.049 -0.9507  1.3532  0.9450
14486TIP3   OH264948   6.294   3.130   5.203 -0.0506  0.3576 -0.2245
14486TIP3    H164949   6.304   3.138   5.108 -0.7738 -0.4513 -0.3839
14486TIP3    H264950   6.328   3.212   5.238  0.9782  0.3393 -1.1232
14487TIP3   OH264951   5.883   0.741   2.947  0.1558  0.2864 -0.0054
14487TIP3    H164952   5.863   0.828   2.912  0.9954  0.3800 -0.2936
14487TIP3    H264953   5.809   0.686   2.919  0.1957  0.6447 -0.8592
14488TIP3   OH264954   5.525   3.099  10.785  0.3101  0.4018 -0.0054
14488TIP3    H164955   5.559   3.121  10.872  0.6228 -0.0693 -0.0048
14488TIP3    H264956   5.589   3.038  10.749 -0.3173 -0.1716 -0.1743
14489TIP3   OH264957   1.770   6.433   3.601 -0.3031  0.5915  0.5428
14489TIP3    H164958   1.802   6.523   3.601  0.3267  0.3764  0.2865
14489TIP3    H264959   1.740   6.419   3.511  1.0453  0.0671  0.1414
14490TIP3   OH264960   4.753   5.375   4.515 -0.2253  0.4795  0.0537
14490TIP3    H164961   4.696   5.361   4.590 -1.1254 -1.6426 -0.9206
14490TIP3    H264962   4.774   5.286   4.485  1.7036  1.2535 -1.0169
14491TIP3   OH264963   2.589   1.217  12.435  0.4989  0.0818 -0.9644
14491TIP3    H164964   2.665   1.269  12.461  0.4274 -0.5036  0.5382
14491TIP3    H264965   2.541   1.202  12.517 -0.1473 -1.2671 -1.5604
14492TIP3   OH264966   6.325   1.485  10.736  0.1370  0.1266 -0.2419
14492TIP3    H164967   6.382   1.413  10.710  0.9332  1.0182 -1.0551
14492TIP3    H264968   6.355   1.560  10.685 -0.4589  1.1290  0.8045
14493TIP3   OH264969   6.594   5.091  12.400  0.1684  0.4944  0.9260
14493TIP3    H164970   6.648   5.170  12.397 -0.4754  0.9382  0.9107
14493TIP3    H264971   6.567   5.083  12.492  0.6335  0.0155  1.0254
14494TIP3   OH264972   4.184   4.756  15.547  0.0433  0.4447  0.1993
14494TIP3    H164973   4.157   4.717  15.630  0.8939 -0.4578  0.0651
14494TIP3    H264974   4.239   4.690  15.506 -0.4442  0.8474 -1.1399
14495TIP3   OH264975   5.296   0.575  14.843  0.0744  0.0280  0.2918
14495TIP3    H164976   5.308   0.649  14.904  1.9836  0.4089 -0.4801
14495TIP3    H264977   5.202   0.555  14.849 -0.0747  1.0113  2.2343
14496TIP3   OH264978   6.602   1.809   3.889  0.0701 -0.2475 -0.0281
14496TIP3    H164979   6.604   1.735   3.829 -0.0562 -0.6516  0.4544
14496TIP3    H264980   6.509   1.826   3.904  0.1014 -0.7215  0.7371
14497TIP3   OH264981   1.358   1.145   0.995 -0.7937 -0.1861  0.6930
14497TIP3    H164982   1.433   1.134   1.054 -0.1345 -0.0405 -0.0907
14497TIP3    H264983   1.282   1.148   1.053 -0.1622  0.0055  1.5383
14498TIP3   OH264984   2.231   5.506  15.629 -0.5247 -0.1959 -0.1316
14498TIP3    H164985   2.323   5.497  15.652 -0.8419 -0.0957  1.3061
14498TIP3    H264986   2.210   5.597  15.650 -1.2344 -0.5399  0.7160
14499TIP3   OH264987   2.984   0.016   0.868 -0.1170  0.7651 -0.1418
14499TIP3    H164988   3.065   0.038   0.822  0.1637 -1.4215 -0.7964
14499TIP3    H264989   2.915   0.047   0.809  0.1828  2.3433  0.2684
14500TIP3   OH264990   6.293   0.091   4.504 -0.2719  0.2996  0.1834
14500TIP3    H164991   6.333   0.014   4.464 -0.5479 -0.4818  1.3417
14500TIP3    H264992   6.289   0.069   4.598  0.1016  1.9311  0.6054
14501TIP3   OH264993   5.724   1.190   1.522 -0.2303 -0.0299  0.1350
14501TIP3    H164994   5.681   1.141   1.452  0.5483 -1.5472  0.6754
14501TIP3    H264995   5.789   1.129   1.558 -0.6988  0.6615  2.2795
14502TIP3   OH264996   5.710   2.135   1.209  0.7961 -0.2965  0.5778
14502TIP3    H164997   5.712   2.105   1.118  1.6348  1.4708 -0.0255
14502TIP3    H264998   5.801   2.158   1.228  0.4798  0.1333  1.6060
14503TIP3   OH264999   2.853   6.391  15.428  0.4157 -0.3098 -0.0906
14503TIP3    H165000   2.798   6.313  15.429  0.2224 -0.1774 -0.3638
14503TIP3    H265001   2.855   6.418  15.336 -0.3631  0.6023  0.1522
14504TIP3   OH265002   5.766   5.177  12.420  0.2494 -0.1958 -0.0126
14504TIP3    H165003   5.859   5.158  12.431  0.5491  1.2939  0.2991
14504TIP3    H265004   5.761   5.273  12.424 -1.4075 -0.2770  0.8996
14505TIP3   OH265005   0.725   4.667  12.845 -0.4469  0.4513  0.6106
14505TIP3    H165006   0.751   4.577  12.823  0.6324  0.9480 -0.2751
14505TIP3    H265007   0.765   4.683  12.930 -1.6808 -0.3043  1.3597
14506TIP3   OH265008   4.703   0.473   1.047 -0.4910  0.2588 -0.1657
14506TIP3    H165009   4.721   0.385   1.079 -0.8592  1.0057  2.3094
14506TIP3    H265010   4.776   0.492   0.989  0.1993 -1.2484  0.1504
14507TIP3   OH265011   5.427   2.550  12.542  0.0350 -0.5549 -0.5863
14507TIP3    H165012   5.374   2.626  12.520  1.6124  0.5522 -0.6987
14507TIP3    H265013   5.419   2.540  12.636 -1.5517 -1.3438 -0.7692
14508TIP3   OH265014   6.077   5.305  14.231  0.4637  0.1044 -0.0124
14508TIP3    H165015   6.126   5.386  14.219  0.6846  0.0078  0.2179
14508TIP3    H265016   6.071   5.294  14.326 -1.6484  1.0965  0.0192
14509TIP3   OH265017   3.669   5.410  15.087  0.3663 -0.1785  0.0187
14509TIP3    H165018   3.652   5.332  15.140 -1.9822 -1.3919 -2.2557
14509TIP3    H265019   3.731   5.380  15.020 -1.6345 -0.6787 -1.7470
14510TIP3   OH265020   0.353   2.032  16.667  0.3844 -0.4130 -0.2130
14510TIP3    H165021   0.441   2.069  16.674 -0.0940  0.8444 -0.6027
14510TIP3    H265022   0.364   1.956  16.609  1.4175 -1.0309  0.7594
14511TIP3   OH265023   3.439   3.152  16.220  0.0496  0.2276 -0.1676
14511TIP3    H165024   3.370   3.096  16.182  0.6047 -0.2176 -0.5503
14511TIP3    H265025   3.396   3.235  16.236 -0.5414  0.0106 -0.5651
14512TIP3   OH265026   3.963   0.212  11.889 -0.7528 -0.5711 -0.4804
14512TIP3    H165027   3.963   0.167  11.804 -0.6142 -0.1681 -0.6949
14512TIP3    H265028   3.963   0.305  11.867  1.2973 -0.4285 -0.0681
14513TIP3   OH265029   5.114   3.570   1.927  0.5544 -0.3089 -0.1303
14513TIP3    H165030   5.042   3.525   1.971 -0.6090  0.3229 -1.3299
14513TIP3    H265031   5.150   3.506   1.866  1.8432 -1.0203  1.2988
14514TIP3   OH265032   1.117   4.481  13.162 -0.0036 -0.7101  0.5057
14514TIP3    H165033   1.062   4.433  13.223 -2.3429  0.0556 -0.8925
14514TIP3    H265034   1.098   4.573  13.179  2.0433 -0.3175  1.0009
14515TIP3   OH265035   4.240   2.521  16.358  0.3530  0.6007 -0.2019
14515TIP3    H165036   4.197   2.600  16.390 -0.2681  0.4849 -0.7281
14515TIP3    H265037   4.332   2.546  16.350  0.1510  1.3153 -0.4636
14516TIP3   OH265038   1.485   2.598   6.107  0.5829 -0.1883  0.8103
14516TIP3    H165039   1.565   2.585   6.056  0.6897  0.5448  0.7816
14516TIP3    H265040   1.513   2.650   6.182 -0.3503  2.7366 -0.7083
14517TIP3   OH265041   4.692   1.070   1.746  0.6300  0.0554 -0.1553
14517TIP3    H165042   4.704   1.160   1.775  0.2437 -0.1027  0.4925
14517TIP3    H265043   4.624   1.075   1.679  0.0878  0.1407  0.4067
14518TIP3   OH265044   0.823   1.412  15.430 -0.7065 -0.0996 -0.3273
14518TIP3    H165045   0.871   1.337  15.394 -0.3044 -0.3340  0.6840
14518TIP3    H265046   0.752   1.427  15.366 -0.6365 -1.1694 -0.6812
14519TIP3   OH265047   3.913   1.963   1.701  0.4752  0.3418  0.4122
14519TIP3    H165048   3.894   1.875   1.671  0.6455  0.4428  0.0048
14519TIP3    H265049   3.925   1.954   1.796  0.1788 -0.0148  0.4197
14520TIP3   OH265050   0.479   0.314  14.303 -0.5048  0.0915  0.1243
14520TIP3    H165051   0.418   0.386  14.285  1.3263  1.3394 -1.5158
14520TIP3    H265052   0.477   0.261  14.223  0.1852 -0.1343  0.2548
14521TIP3   OH265053   4.900   2.571  14.423 -0.1037  0.5255 -0.0172
14521TIP3    H165054   4.969   2.635  14.409  1.2718 -1.0044 -0.6103
14521TIP3    H265055   4.897   2.558  14.518  1.4778 -0.4280 -0.0613
14522TIP3   OH265056   3.895   2.072   5.047 -0.1860 -0.0762 -0.2713
14522TIP3    H165057   3.851   2.063   5.132 -1.1369 -0.5789 -0.8021
14522TIP3    H265058   3.973   2.124   5.066  0.1114 -0.9629  1.0844
14523TIP3   OH265059   0.853   6.310  12.440 -0.6039  0.1347  0.0208
14523TIP3    H165060   0.941   6.273  12.445 -1.3263 -1.6593 -0.0454
14523TIP3    H265061   0.862   6.385  12.381  1.3832  1.6211  2.0183
14524TIP3   OH265062   3.089   5.416  16.110  0.0529  0.2535 -0.2291
14524TIP3    H165063   3.100   5.367  16.191  0.6714  0.1060 -0.3968
14524TIP3    H265064   3.064   5.350  16.045  0.4885  0.2154 -0.3639
14525TIP3   OH265065   5.843   1.448   3.172  0.3873 -0.0832  0.2594
14525TIP3    H165066   5.803   1.506   3.238 -0.4157 -0.9218  0.5354
14525TIP3    H265067   5.809   1.361   3.193  1.3482 -0.6174 -0.3243
14526TIP3   OH265068   2.506   1.459  12.041  0.0983  0.1638 -0.1851
14526TIP3    H165069   2.499   1.509  11.960  1.3722  1.1149  0.2596
14526TIP3    H265070   2.449   1.505  12.103 -0.6228 -0.3777 -0.4218
14527TIP3   OH265071   0.468   0.662  14.995  0.1546  0.7272 -0.1215
14527TIP3    H165072   0.434   0.738  14.947  0.3557  0.5335 -0.5724
14527TIP3    H265073   0.485   0.696  15.083 -0.1043  1.1141 -0.2153
14528TIP3   OH265074   5.215   2.096  12.209 -0.3780  0.0659  0.2533
14528TIP3    H165075   5.280   2.045  12.258  0.9628  2.6215  1.3486
14528TIP3    H265076   5.252   2.101  12.121  0.1473  0.1992  0.4720
14529TIP3   OH265077   6.669   0.782  11.876 -0.2357 -0.5764 -0.7724
14529TIP3    H165078   6.718   0.836  11.938 -0.2147 -0.1538 -1.1543
14529TIP3    H265079   6.647   0.841  11.804 -1.6811 -0.6199 -0.4156
14530TIP3   OH265080   2.168   0.099   6.300  0.4439  0.1857 -0.5310
14530TIP3    H165081   2.158   0.151   6.220  0.2329  1.8542  0.5334
14530TIP3    H265082   2.082   0.102   6.341  0.8899  0.4726  0.4077
14531TIP3   OH265083   2.653   2.327   3.468  0.6448  0.0386 -0.1976
14531TIP3    H165084   2.723   2.389   3.490 -0.3427  0.7482  1.0785
14531TIP3    H265085   2.686   2.280   3.391  1.7580  1.6132 -0.7402
14532TIP3   OH265086   3.471   1.928  14.498 -0.3358  0.1462  0.1309
14532TIP3    H165087   3.421   2.010  14.502 -0.0944  0.2450  1.6200
14532TIP3    H265088   3.511   1.929  14.411  0.4706  2.1263  0.4676
14533TIP3   OH265089   3.703   5.263   1.268 -0.3039 -0.5806  0.4761
14533TIP3    H165090   3.707   5.233   1.177  0.3069  0.9563 -0.0364
14533TIP3    H265091   3.788   5.237   1.305  1.1529  2.2395 -0.5926
14534TIP3   OH265092   4.482   4.537   3.084  0.1519 -0.1894 -1.0143
14534TIP3    H165093   4.411   4.535   3.020 -1.1502  0.2491  0.3800
14534TIP3    H265094   4.531   4.617   3.064 -0.3742  0.0551 -1.3225
14535TIP3   OH265095   3.759   0.162   3.674 -0.5557  0.2386  0.6584
14535TIP3    H165096   3.741   0.156   3.768 -1.9771 -0.6137  0.3578
14535TIP3    H265097   3.760   0.071   3.644 -0.6046  0.5228 -0.2350
14536TIP3   OH265098   6.497   3.933  13.171 -0.7321 -0.0939  0.1457
14536TIP3    H165099   6.456   4.019  13.165 -1.3770 -0.3421  0.7905
14536TIP3    H265100   6.447   3.887  13.239 -0.5334 -1.0465 -0.3279
14537TIP3   OH265101   0.048   6.029   2.498  0.3304 -0.4192  0.0825
14537TIP3    H165102   0.014   5.959   2.553 -0.0762 -1.0534 -0.9417
14537TIP3    H265103   0.119   5.989   2.449  1.2797  0.3772  0.7796
14538TIP3   OH265104   5.124   5.511  16.320  0.0554  0.4548  0.0507
14538TIP3    H165105   5.115   5.419  16.343 -0.7374  0.5251  0.0795
14538TIP3    H265106   5.040   5.550  16.345 -0.3790  0.7843 -1.7639
14539TIP3   OH265107   4.773   6.002  11.672 -0.0478 -0.6937  0.6809
14539TIP3    H165108   4.700   5.955  11.712  0.5186 -0.9198  1.4642
14539TIP3    H265109   4.837   6.012  11.742  0.6041 -0.3337  0.0521
14540TIP3   OH265110   6.537   1.671  12.379 -0.4622  0.5533 -0.2214
14540TIP3    H165111   6.564   1.763  12.385  2.7303 -0.0013 -2.9453
14540TIP3    H265112   6.600   1.624  12.434 -0.9957 -0.1420 -0.1973
14541TIP3   OH265113   1.670   3.264   0.524  0.2669  0.2106  0.0626
14541TIP3    H165114   1.680   3.226   0.437 -0.1528  0.0945  0.0624
14541TIP3    H265115   1.757   3.297   0.546  1.1547 -2.2999  0.7762
14542TIP3   OH265116   6.187   2.393  13.809  0.1253  0.0431  0.3918
14542TIP3    H165117   6.114   2.364  13.864 -0.0223 -3.2702 -1.2991
14542TIP3    H265118   6.147   2.408  13.723  1.3146 -1.7462 -0.5408
14543TIP3   OH265119   0.197   0.891   3.910  0.4738 -0.0230  0.3409
14543TIP3    H165120   0.184   0.968   3.964  3.0634 -0.8691  2.4053
14543TIP3    H265121   0.125   0.832   3.934 -1.4254  1.5635 -1.1380
14544TIP3   OH265122   1.418   3.542  14.904 -0.1106  0.3068  0.0768
14544TIP3    H165123   1.330   3.515  14.879 -0.4680  1.3966  0.1062
14544TIP3    H265124   1.456   3.579  14.825 -0.0175  0.6687  0.2843
14545TIP3   OH265125   5.720   5.499  11.925 -0.1998 -0.5151 -0.2041
14545TIP3    H165126   5.671   5.531  11.848  0.2812 -0.8544 -0.6565
14545TIP3    H265127   5.700   5.406  11.928  0.5990 -0.7078 -0.5369
14546TIP3   OH265128   3.679   1.140  12.763  0.0157  0.0270 -0.3797
14546TIP3    H165129   3.662   1.152  12.856  0.4463 -0.0437 -0.2901
14546TIP3    H265130   3.705   1.048  12.755 -0.9182 -0.2261 -0.7106
14547TIP3   OH265131   5.591   2.422  10.267 -0.4771 -0.8066  0.5688
14547TIP3    H165132   5.658   2.470  10.315 -1.0844  0.0941  0.5364
14547TIP3    H265133   5.509   2.465  10.290 -0.8114 -0.4709 -1.1163
14548TIP3   OH265134   4.008   4.913   2.418  0.5405  0.6407 -0.7832
14548TIP3    H165135   4.026   4.867   2.499 -1.2878  1.2123  0.0179
14548TIP3    H265136   4.086   4.966   2.402  1.0775  0.2390  0.4017
14549TIP3   OH265137   0.005   0.785  17.164 -0.8150  0.0095 -0.3006
14549TIP3    H165138  -0.072   0.729  17.152 -0.6082 -0.3154 -0.0969
14549TIP3    H265139  -0.012   0.860  17.107 -0.7055 -0.6563 -1.2431
14550TIP3   OH265140   6.504   5.690  11.689  0.2409  0.0340  0.0815
14550TIP3    H165141   6.524   5.649  11.773  0.2752 -0.5913 -0.2280
14550TIP3    H265142   6.587   5.688  11.641 -0.1613 -1.1284 -0.5989
14551TIP3   OH265143   1.398   5.847   1.042 -0.3523  0.6867  0.2086
14551TIP3    H165144   1.350   5.764   1.043 -0.5616  0.8017 -0.1338
14551TIP3    H265145   1.336   5.911   1.077 -0.4719  0.8426 -0.2708
14552TIP3   OH265146   2.773   4.346  13.643  0.5635 -0.3376  0.1936
14552TIP3    H165147   2.773   4.385  13.731 -0.0046  1.9409 -0.7354
14552TIP3    H265148   2.848   4.286  13.642  0.0819 -1.0619  2.4680
14553TIP3   OH265149   3.106   4.878  15.703 -0.2057  0.3889  0.5037
14553TIP3    H165150   3.125   4.908  15.614  0.6522 -1.3970  0.0326
14553TIP3    H265151   3.160   4.932  15.760  1.1938 -0.1128 -0.2981
14554TIP3   OH265152   1.092   1.146  14.876 -0.8422  0.1498  0.0330
14554TIP3    H165153   1.156   1.134  14.806 -1.1920 -3.7206  0.1974
14554TIP3    H265154   1.132   1.105  14.952 -0.6402  3.9384  2.2221
14555TIP3   OH265155   1.612   4.754  12.191 -0.1850 -0.1220  0.1638
14555TIP3    H165156   1.554   4.677  12.197  1.6609 -1.5055  1.5273
14555TIP3    H265157   1.650   4.761  12.279  1.1686  1.1749 -0.4975
14556TIP3   OH265158   4.500   5.106  13.454 -0.4795 -0.5390  0.4194
14556TIP3    H165159   4.512   5.108  13.359 -1.9763  0.4350  0.2155
14556TIP3    H265160   4.539   5.023  13.481  2.6205  0.4425 -0.5988
14557TIP3   OH265161   2.872   2.169  14.551  0.3991 -0.4092  0.7269
14557TIP3    H165162   2.867   2.111  14.627  1.2972 -1.5391 -0.0552
14557TIP3    H265163   2.882   2.111  14.476 -1.9050  0.5925 -0.4712
14558TIP3   OH265164   6.159   0.376  12.853  0.0057 -0.4799 -0.0597
14558TIP3    H165165   6.183   0.335  12.937 -1.3579  1.6177  1.4693
14558TIP3    H265166   6.065   0.393  12.862 -0.4010 -1.1583 -2.5032
14559TIP3   OH265167   3.464   6.200  15.507  0.4653  0.1474  0.5173
14559TIP3    H165168   3.507   6.271  15.459  2.1738 -2.0479 -1.4486
14559TIP3    H265169   3.441   6.136  15.440 -4.3290  0.2375  1.7187
14560TIP3   OH265170   1.028   5.301   0.938  0.3167 -0.1434 -0.4080
14560TIP3    H165171   0.960   5.264   0.881 -2.2148  0.1855  2.1791
14560TIP3    H265172   1.081   5.356   0.880 -0.6161 -1.6443 -2.8406
14561TIP3   OH265173   3.297   1.009  11.754  0.3075  0.4757  0.1399
14561TIP3    H165174   3.238   1.066  11.803 -0.7660 -0.8563  0.4527
14561TIP3    H265175   3.369   1.066  11.728  0.3253  1.5085  2.2438
14562TIP3   OH265176   3.421   5.997  10.711  0.3697 -0.3347 -0.6151
14562TIP3    H165177   3.357   6.053  10.754  0.1331 -1.9246  1.2539
14562TIP3    H265178   3.369   5.929  10.669  0.7173  0.0017 -1.6129
14563TIP3   OH265179   2.985   2.524   1.118  0.3648  0.3153  0.1106
14563TIP3    H165180   3.036   2.587   1.168 -1.7129  1.3740  0.9856
14563TIP3    H265181   2.935   2.577   1.056  0.5078 -0.7198 -0.9385
14564TIP3   OH265182   6.654   1.362  13.962  0.3959 -0.2607 -0.5202
14564TIP3    H165183   6.707   1.441  13.962 -0.6464  0.4566  0.0301
14564TIP3    H265184   6.646   1.338  14.054  1.3845 -1.4973 -0.7282
14565TIP3   OH265185   4.236   6.385  13.151  0.3948  0.2406 -0.5740
14565TIP3    H165186   4.236   6.292  13.172 -0.2511  0.4043  0.1670
14565TIP3    H265187   4.297   6.392  13.077 -0.1266 -0.8743 -1.1360
14566TIP3   OH265188   5.098   3.134  16.645  0.0054 -0.2210  0.0220
14566TIP3    H165189   5.109   3.220  16.686 -1.9120 -0.4782  1.1853
14566TIP3    H265190   5.005   3.114  16.654  0.1056 -1.7337 -1.6612
14567TIP3   OH265191   3.911   2.152  13.129  0.2997  0.0947  0.6099
14567TIP3    H165192   3.965   2.115  13.060  0.9253 -1.0466  1.6653
14567TIP3    H265193   3.823   2.157  13.091 -0.5023 -5.0294  1.1084
14568TIP3   OH265194   6.738   5.196   0.980 -0.2812 -0.2817  0.2168
14568TIP3    H165195   6.750   5.278   1.028 -1.0450 -0.5467  0.8890
14568TIP3    H265196   6.739   5.221   0.888  1.1257  0.2538  0.3515
14569TIP3   OH265197   3.758   2.530  16.562 -0.1843  0.5122 -0.1093
14569TIP3    H165198   3.796   2.446  16.590 -0.7595  0.8183  1.7171
14569TIP3    H265199   3.809   2.596  16.608 -1.1743  1.0361  0.2780
14570TIP3   OH265200   1.416   3.806  15.202 -0.2700  0.2047 -0.0760
14570TIP3    H165201   1.456   3.719  15.206  0.0378  0.3084 -0.7693
14570TIP3    H265202   1.409   3.833  15.293 -0.7455 -0.7144  0.1709
14571TIP3   OH265203   5.730   1.929   0.687  0.2561  0.2730  0.9014
14571TIP3    H165204   5.639   1.907   0.666  0.1568  0.4076  1.1987
14571TIP3    H265205   5.762   1.972   0.608  0.2539 -0.3456  0.5517
14572TIP3   OH265206   4.941   1.776   6.179 -0.0106 -0.6327 -0.5064
14572TIP3    H165207   5.015   1.797   6.122  0.6330 -0.3552  0.4096
14572TIP3    H265208   4.932   1.853   6.236 -0.4372 -1.0312 -0.0254
14573TIP3   OH265209   2.846   1.681   0.346 -0.3117 -0.4329 -0.8609
14573TIP3    H165210   2.849   1.595   0.386  1.0475 -0.4746 -0.9922
14573TIP3    H265211   2.753   1.698   0.331 -0.9371 -0.2927  2.4807
14574TIP3   OH265212   6.308   2.325   2.808  0.1518  0.4219 -0.0890
14574TIP3    H165213   6.351   2.343   2.725  0.1643 -1.6172 -0.5813
14574TIP3    H265214   6.260   2.243   2.793 -4.0507  2.4972  0.3439
14575TIP3   OH265215   2.023   4.117  12.608 -0.2573  0.0288  0.4368
14575TIP3    H165216   2.060   4.146  12.524 -0.1053  0.1385  0.5398
14575TIP3    H265217   2.018   4.197  12.660  0.6408 -0.2096  0.9009
14576TIP3   OH265218   6.431   1.523   0.895 -0.1039 -0.0110  0.0834
14576TIP3    H165219   6.482   1.443   0.907  0.0002  0.0071 -0.2215
14576TIP3    H265220   6.400   1.546   0.982 -1.3375 -1.1755 -0.0133
14577TIP3   OH265221   1.240   5.216  13.746 -0.0740  0.8620 -0.3615
14577TIP3    H165222   1.307   5.169  13.796  0.5908  1.7018 -0.4541
14577TIP3    H265223   1.160   5.165  13.760  0.0571  1.1158  1.6495
14578TIP3   OH265224   5.172   5.554  13.061 -0.4602  0.1178  0.4426
14578TIP3    H165225   5.251   5.516  13.022  0.1485  1.5209  0.2497
14578TIP3    H265226   5.203   5.635  13.101 -2.1255  1.6052 -1.1666
14579TIP3   OH265227   4.115   1.782  13.579 -0.8388  0.2221 -0.0954
14579TIP3    H165228   4.071   1.866  13.588  0.4362  0.8468  0.5771
14579TIP3    H265229   4.193   1.801  13.528  0.6840 -0.0369  1.9911
14580TIP3   OH265230   5.652   2.935  10.604 -0.7676 -0.6382 -0.0994
14580TIP3    H165231   5.565   2.950  10.567 -0.5838 -0.2051 -0.3584
14580TIP3    H265232   5.703   2.900  10.531 -0.9613 -1.7503  0.2798
14581TIP3   OH265233   5.579   3.248  14.427 -0.0884 -0.2933 -0.2279
14581TIP3    H165234   5.627   3.290  14.355 -1.2102  0.3642 -0.6157
14581TIP3    H265235   5.559   3.160  14.394  1.4033 -0.8256  0.1998
14582TIP3   OH265236   0.810   2.243  14.039 -0.5776 -0.2453 -0.0707
14582TIP3    H165237   0.893   2.200  14.019  0.1753  0.7217  0.8431
14582TIP3    H265238   0.807   2.317  13.978  1.5590  2.5057  2.7764
14583TIP3   OH265239   3.532   3.840   0.119 -0.3334  0.5232 -0.1410
14583TIP3    H165240   3.529   3.935   0.109 -1.2166  0.4681 -0.4072
14583TIP3    H265241   3.608   3.814   0.066  0.3300  1.1401  0.4835
14584TIP3   OH265242   0.563   4.260  17.185  0.1835 -0.6634  0.0237
14584TIP3    H165243   0.469   4.276  17.178  0.3492  0.0619 -0.5495
14584TIP3    H265244   0.587   4.216  17.104  0.5786  0.3693 -0.4400
14585TIP3   OH265245   1.900   4.558  11.403 -0.4569 -0.2031  0.7579
14585TIP3    H165246   1.891   4.653  11.393  3.9646  0.3842  0.0996
14585TIP3    H265247   1.863   4.522  11.323 -1.9858  0.9560  0.9096
14586TIP3   OH265248   1.022   1.882  16.424  0.1672  0.4460  0.5793
14586TIP3    H165249   0.949   1.923  16.377  0.6572  1.5612  0.7660
14586TIP3    H265250   1.093   1.877  16.361 -0.4012 -1.7664  0.0252
14587TIP3   OH265251   1.363   5.126  14.822  0.3036  1.0109 -0.6524
14587TIP3    H165252   1.295   5.192  14.809  1.2189  2.1522  0.1798
14587TIP3    H265253   1.394   5.140  14.911 -0.6504 -1.6889  0.2138
14588TIP3   OH265254   0.656   0.664  14.779 -0.4162  0.2624 -0.3489
14588TIP3    H165255   0.729   0.602  14.784 -0.7658 -0.1260  0.0914
14588TIP3    H265256   0.596   0.636  14.849 -1.2977  0.1668 -1.1296
14589TIP3   OH265257   3.766   0.968   2.712 -0.0635  0.2511  0.7408
14589TIP3    H165258   3.710   0.952   2.636  1.2996 -0.5195 -0.1623
14589TIP3    H265259   3.814   1.048   2.689  0.8154 -0.3341  0.4681
14590TIP3   OH265260   5.213   2.313  13.543 -0.6287 -0.1495  0.2216
14590TIP3    H165261   5.175   2.248  13.603 -0.2282 -0.5331  0.0703
14590TIP3    H265262   5.153   2.387  13.547 -0.7450 -0.2713  0.8997
14591TIP3   OH265263   1.361   4.463  14.479  0.0812 -0.1769 -0.5246
14591TIP3    H165264   1.296   4.446  14.547 -0.7139  0.6191 -1.0648
14591TIP3    H265265   1.442   4.483  14.526 -0.0350 -1.2248  0.1552
14592TIP3   OH265266   4.794   0.482   4.920 -0.4825 -0.2836  0.2679
14592TIP3    H165267   4.794   0.540   4.844  2.4231  0.1249  0.4707
14592TIP3    H265268   4.732   0.413   4.898 -1.0136  0.7479 -1.7059
14593TIP3   OH265269   3.896   2.327   1.530 -0.3921  0.1346  0.1931
14593TIP3    H165270   3.989   2.350   1.524 -0.4974  0.2890 -1.1795
14593TIP3    H265271   3.896   2.231   1.533 -0.2009  0.1107 -0.3834
14594TIP3   OH265272   5.650   3.542   1.004  0.5657 -0.0514 -0.1550
14594TIP3    H165273   5.618   3.592   1.079  0.5923 -2.7812  1.8306
14594TIP3    H265274   5.572   3.523   0.953  0.0387 -0.7680  0.8859
14595TIP3   OH265275   0.770   1.972   0.689  0.0361  0.4439 -0.1779
14595TIP3    H165276   0.792   2.036   0.756  0.0400 -0.1690  0.4132
14595TIP3    H265277   0.853   1.950   0.647  0.1497  0.2337  0.1558
14596TIP3   OH265278   6.659   5.920   4.027  0.1703  0.1033  0.0692
14596TIP3    H165279   6.742   5.964   4.007 -0.5997  1.6174  0.0928
14596TIP3    H265280   6.612   5.980   4.084 -0.2147 -1.5391  1.5713
14597TIP3   OH265281   2.695   2.248   4.684  0.0203  0.0867 -0.1010
14597TIP3    H165282   2.663   2.324   4.636  0.2297  1.1655  1.3855
14597TIP3    H265283   2.787   2.241   4.658  0.3698  1.2031  0.7716
14598TIP3   OH265284   6.644   5.254  14.490  0.3496 -0.0301 -0.2655
14598TIP3    H165285   6.552   5.231  14.502  0.1974  0.1014 -1.0790
14598TIP3    H265286   6.664   5.228  14.400  0.6389  1.4333 -0.6595
14599TIP3   OH265287   0.281   3.103   1.886 -0.2357  0.2222  0.5684
14599TIP3    H165288   0.362   3.125   1.931 -0.9633  1.2111  1.4236
14599TIP3    H265289   0.215   3.161   1.924 -0.9880  0.7450 -1.3900
14600TIP3   OH265290   1.432   5.728  12.523  0.4245  0.2118  0.2818
14600TIP3    H165291   1.486   5.667  12.574 -0.4771 -0.6510  0.2503
14600TIP3    H265292   1.443   5.698  12.432 -0.1917 -0.0521  0.2893
14601TIP3   OH265293   1.132   3.963  16.621  0.1401  0.0880  0.0863
14601TIP3    H165294   1.221   3.993  16.637  0.4759 -0.7883 -0.0825
14601TIP3    H265295   1.117   3.897  16.689 -0.4947  0.4437  0.3025
14602TIP3   OH265296   2.545   6.494   3.986  0.1209  0.2873 -0.5064
14602TIP3    H165297   2.581   6.413   3.950 -1.7923 -1.5994  1.5415
14602TIP3    H265298   2.566   6.491   4.079 -1.1348  1.4760 -0.1543
14603TIP3   OH265299   1.435   5.258  11.606 -0.3665 -0.6300  0.1519
14603TIP3    H165300   1.461   5.173  11.570  0.6631 -0.4752  0.5008
14603TIP3    H265301   1.417   5.312  11.530  0.6706 -0.6515 -0.1249
14604TIP3   OH265302   0.019   4.422   0.368  0.0022  0.0276 -0.2055
14604TIP3    H165303  -0.024   4.374   0.438 -2.1279  2.6299  0.4858
14604TIP3    H265304   0.003   4.514   0.389 -1.6417  1.0091 -4.4793
14605TIP3   OH265305   3.863   0.862   0.509 -0.5855  0.3200  0.7113
14605TIP3    H165306   3.844   0.773   0.538  0.3672 -0.5054 -1.0534
14605TIP3    H265307   3.823   0.869   0.422  1.7052  0.6094 -0.4066
14606TIP3   OH265308   2.354   3.134  10.858 -0.0210  0.3291 -0.4749
14606TIP3    H165309   2.362   3.131  10.954 -0.8944 -0.4124 -0.4081
14606TIP3    H265310   2.379   3.046  10.829 -0.1662  0.4205 -0.8862
14607TIP3   OH265311   3.294   3.259   1.030  0.1162  0.3816  0.9659
14607TIP3    H165312   3.340   3.204   0.966 -1.6829  0.1731 -0.2154
14607TIP3    H265313   3.327   3.229   1.115 -0.9172 -2.7720  0.3962
14608TIP3   OH265314   4.156   3.833   4.952  0.3056 -0.0641 -0.7484
14608TIP3    H165315   4.109   3.917   4.952  0.6496  0.1980  1.6132
14608TIP3    H265316   4.242   3.854   4.988 -0.1885 -1.6616  1.5620
14609TIP3   OH265317   5.671   2.400   4.612  0.1527 -0.1923 -0.3895
14609TIP3    H165318   5.692   2.312   4.643  1.4143 -0.0669 -0.8525
14609TIP3    H265319   5.602   2.386   4.547 -0.0896 -0.7713 -0.0196
14610TIP3   OH265320   4.231   2.959   0.075  0.2659  0.3852 -0.3842
14610TIP3    H165321   4.261   2.875   0.042 -2.4060 -0.8335  0.0821
14610TIP3    H265322   4.174   2.993   0.006  0.6113  1.4322 -0.1793
14611TIP3   OH265323   5.120   3.920  16.334 -0.2729 -0.0463 -0.5361
14611TIP3    H165324   5.025   3.918  16.349 -0.7647 -0.9438 -3.1580
14611TIP3    H265325   5.133   3.861  16.260  2.0246  1.8254 -1.7654
14612TIP3   OH265326   2.678   1.862  11.883 -0.2273  0.2365  0.1054
14612TIP3    H165327   2.692   1.955  11.900 -1.1164  0.0973  1.8486
14612TIP3    H265328   2.655   1.825  11.969 -2.7462 -1.0302 -0.9990
14613TIP3   OH265329   4.192   3.643   4.720 -0.1066  0.5273 -0.7670
14613TIP3    H165330   4.278   3.621   4.756 -1.6842 -2.4157  1.6658
14613TIP3    H265331   4.156   3.706   4.782 -0.0012  1.1659 -1.3535
14614TIP3   OH265332   0.257   4.599   2.125 -0.2933 -0.8730 -0.0590
14614TIP3    H165333   0.226   4.616   2.036 -1.4955  1.2503  0.7056
14614TIP3    H265334   0.316   4.524   2.115  3.3120  1.9796 -3.4071
14615TIP3   OH265335   1.303   5.973  15.564  0.4178  0.5776 -0.3501
14615TIP3    H165336   1.254   6.043  15.606  0.4894  0.0657  0.6014
14615TIP3    H265337   1.327   5.914  15.635 -2.0858 -1.9525 -1.4012
14616TIP3   OH265338   0.909   6.434   1.031  0.4212 -0.2846 -0.5108
14616TIP3    H165339   0.947   6.521   1.023  1.0877 -0.3582  1.3383
14616TIP3    H265340   0.902   6.420   1.125 -0.2879 -1.9715 -0.7831
14617TIP3   OH265341   5.624   2.018  14.724 -0.4985  0.5869  0.5100
14617TIP3    H165342   5.719   2.023  14.729 -0.3934  0.8634 -1.0261
14617TIP3    H265343   5.597   2.107  14.699 -1.1536  0.5039  0.8940
14618TIP3   OH265344   2.527   4.586  15.421 -0.0523  0.0581  0.1441
14618TIP3    H165345   2.450   4.566  15.474 -1.3422  0.4403 -1.5180
14618TIP3    H265346   2.545   4.506  15.372 -1.1204  0.7539 -1.4959
14619TIP3   OH265347   0.714   0.186  16.936 -0.9892 -0.2773  0.1218
14619TIP3    H165348   0.654   0.112  16.932  2.2099 -3.1728  0.6601
14619TIP3    H265349   0.665   0.255  16.980 -3.5064 -2.8255  1.6247
14620TIP3   OH265350   5.340   2.263   0.465  0.0875  0.1248  0.0065
14620TIP3    H165351   5.314   2.300   0.549  0.9955 -0.9434  0.7963
14620TIP3    H265352   5.356   2.338   0.409 -0.5321  0.8600  0.7920
14621TIP3   OH265353   4.098   3.697  13.847  0.0935  0.0243 -0.6502
14621TIP3    H165354   4.171   3.718  13.905 -1.2208  2.1607  0.3982
14621TIP3    H265355   4.074   3.607  13.869  1.0956  0.0201  0.4852
14622TIP3   OH265356   4.877   2.269   1.595 -0.1183 -0.1937  0.7136
14622TIP3    H165357   4.885   2.262   1.500  0.8786 -1.5088  0.8610
14622TIP3    H265358   4.897   2.361   1.614  0.4754 -0.1005 -0.2848
14623TIP3   OH265359   2.728   6.099   2.123 -0.0723  0.2165  0.2634
14623TIP3    H165360   2.730   6.111   2.218  0.4399  1.7963  0.0941
14623TIP3    H265361   2.641   6.064   2.104 -0.5812  0.9255  1.2203
14624TIP3   OH265362   5.520   0.738  13.107 -0.3352  0.2097 -0.0464
14624TIP3    H165363   5.446   0.728  13.166  0.2936  1.0406  0.9009
14624TIP3    H265364   5.480   0.735  13.019 -1.1450 -2.1514  0.3319
14625TIP3   OH265365   0.689   4.661   0.657  0.0345 -0.5939 -0.6736
14625TIP3    H165366   0.774   4.656   0.615  1.3899  2.8795  1.2700
14625TIP3    H265367   0.634   4.709   0.596  0.2939 -0.4635 -0.8048
14626TIP3   OH265368   5.456   3.403  15.499  0.0786 -0.2205 -0.0848
14626TIP3    H165369   5.451   3.466  15.571  0.1080  1.2297 -1.2829
14626TIP3    H265370   5.423   3.321  15.536 -0.1626  0.5446  1.4892
14627TIP3   OH265371   3.049   0.462  14.110 -0.3345  0.5289 -0.4208
14627TIP3    H165372   2.977   0.402  14.128  1.4325 -1.9486 -1.0851
14627TIP3    H265373   3.102   0.460  14.190  0.7139 -0.2928 -1.1185
14628TIP3   OH265374   6.225   3.995  12.197 -0.1696  0.2402  0.4857
14628TIP3    H165375   6.188   3.907  12.197 -0.2705 -0.0071 -4.4024
14628TIP3    H265376   6.152   4.052  12.172  0.0162  1.7897  3.0409
14629TIP3   OH265377   3.544   0.719  15.032  0.1776  0.4893 -0.9687
14629TIP3    H165378   3.562   0.812  15.030 -1.7647  0.9320 -0.0698
14629TIP3    H265379   3.503   0.701  14.947  1.0394  0.3144 -1.3615
14630TIP3   OH265380   6.823   4.541  16.987 -0.8760 -0.2729 -0.0709
14630TIP3    H165381   6.802   4.570  17.076  1.3934 -0.7534  0.6888
14630TIP3    H265382   6.747   4.567  16.935 -1.1849  2.3389  1.5184
14631TIP3   OH265383   3.264   0.606  11.817 -0.8354 -0.0895 -0.1778
14631TIP3    H165384   3.334   0.671  11.813  0.3056 -1.3043 -3.8375
14631TIP3    H265385   3.195   0.641  11.760 -0.2010 -1.9430 -2.2145
14632TIP3   OH265386   4.072   0.220  12.991 -0.1106 -0.5705  0.5495
14632TIP3    H165387   4.117   0.237  13.073 -0.4691  0.0171  0.6352
14632TIP3    H265388   4.073   0.304  12.945 -0.4813 -0.7284  0.2428
14633TIP3   OH265389   3.664   4.967   3.982  0.0713  0.0206  0.0078
14633TIP3    H165390   3.581   4.944   4.023  0.0190 -0.4986 -0.3673
14633TIP3    H265391   3.667   5.063   3.984 -0.4290  0.0333  0.2277
14634TIP3   OH265392   6.020   6.159  12.994  0.2214  0.6118  0.1765
14634TIP3    H165393   6.095   6.151  12.935 -0.9927  0.1029 -1.3638
14634TIP3    H265394   6.019   6.252  13.018  0.3143  0.9977 -1.2256
14635TIP3   OH265395   3.036   3.316   0.474  0.6514  0.2784  0.3419
14635TIP3    H165396   3.073   3.325   0.386 -0.0425  0.3166  0.0528
14635TIP3    H265397   3.105   3.271   0.523  0.9461  0.0209 -0.2857
14636TIP3   OH265398   0.046   0.109   5.229  0.0565 -0.1995  0.3475
14636TIP3    H165399   0.081   0.063   5.153 -0.4908 -0.0402 -0.0051
14636TIP3    H265400   0.093   0.192   5.230  3.2272 -1.8304  2.6855
14637TIP3   OH265401   0.827   4.030  16.661  0.1103 -0.3163 -0.6151
14637TIP3    H165402   0.921   4.012  16.664  0.2161  0.2550 -0.3684
14637TIP3    H265403   0.807   4.062  16.749 -0.3953 -0.8132 -0.5456
14638TIP3   OH265404   5.634   1.305  11.571  0.1078  0.3775 -0.3422
14638TIP3    H165405   5.629   1.335  11.661  2.6785 -0.0500  0.0116
14638TIP3    H265406   5.696   1.364  11.528 -1.6041  1.0267 -2.0763
14639TIP3   OH265407   6.700   2.066  11.727 -0.4057 -0.7105 -0.2416
14639TIP3    H165408   6.704   1.999  11.794  0.9258 -0.5259 -0.1078
14639TIP3    H265409   6.783   2.113  11.735 -1.1175  0.6684 -0.6176
14640TIP3   OH265410   2.794   4.783  12.149 -0.6276  0.2031 -0.1291
14640TIP3    H165411   2.808   4.697  12.188 -1.3553  0.1713  0.0679
14640TIP3    H265412   2.873   4.799  12.097  0.8702  0.7001  2.1679
14641TIP3   OH265413   6.774   6.249  14.115  0.6142 -0.2580  0.1065
14641TIP3    H165414   6.794   6.342  14.125 -0.8465  0.3076 -1.6080
14641TIP3    H265415   6.810   6.208  14.193 -0.6967  2.0922  2.0851
14642TIP3   OH265416   2.781   3.659  13.407 -0.3863 -0.2019 -0.1510
14642TIP3    H165417   2.842   3.607  13.355 -0.7031  0.7110 -1.4778
14642TIP3    H265418   2.725   3.595  13.450 -1.6723 -1.0248 -2.8381
14643TIP3   OH265419   6.076   0.024  15.289  0.3567 -0.4518  0.1386
14643TIP3    H165420   6.164   0.026  15.252  0.1780  1.1476 -0.2589
14643TIP3    H265421   6.088   0.003  15.381  1.2309  0.6045  0.2781
14644TIP3   OH265422   4.146   6.040   6.427 -0.0295 -0.3605  0.4807
14644TIP3    H165423   4.192   6.026   6.509  0.3293  0.7047  0.4743
14644TIP3    H265424   4.195   5.990   6.362  0.9561  0.4986  0.5328
14645TIP3   OH265425   0.052   2.590   5.998 -0.6615 -0.1406  0.0029
14645TIP3    H165426  -0.019   2.655   5.999 -0.8500 -0.3069 -1.0990
14645TIP3    H265427   0.007   2.507   5.983 -0.1258 -0.0528 -2.3891
14646TIP3   OH265428   2.220   6.702   5.971  0.0012 -0.1093  0.4323
14646TIP3    H165429   2.257   6.756   6.041  3.4683 -0.4030 -0.9741
14646TIP3    H265430   2.181   6.627   6.017 -0.8200  1.3189  2.1564
14647TIP3   OH265431   6.447   6.221  15.322 -0.3815  0.2455  0.2349
14647TIP3    H165432   6.357   6.188  15.324 -0.5529  0.7442  0.8584
14647TIP3    H265433   6.483   6.185  15.241 -0.9983 -0.3276  0.2050
14648TIP3   OH265434   4.362   3.176  13.359  0.1655  0.3574 -0.1996
14648TIP3    H165435   4.344   3.085  13.382 -0.9067  0.1287 -1.7503
14648TIP3    H265436   4.392   3.172  13.268  1.6167  1.4309  0.1909
14649TIP3   OH265437   1.677   6.485   1.930  0.5847  0.0160  0.3050
14649TIP3    H165438   1.657   6.458   2.020  0.3809  1.2029  0.6274
14649TIP3    H265439   1.737   6.559   1.940  0.8105 -0.0426 -0.5466
14650TIP3   OH265440   6.354   2.808   4.978  0.4512  0.2097 -0.2337
14650TIP3    H165441   6.439   2.766   4.964  0.5372  0.5220 -0.7044
14650TIP3    H265442   6.343   2.865   4.901  0.2801  0.9353  0.3112
14651TIP3   OH265443   3.367   3.975   5.310 -0.2427  0.3812  0.3861
14651TIP3    H165444   3.409   3.889   5.314 -1.3635 -0.1481  1.2339
14651TIP3    H265445   3.404   4.023   5.384  0.5350  0.7310 -0.2049
14652TIP3   OH265446   0.897   4.585   2.256  0.1855 -0.6850 -0.6787
14652TIP3    H165447   0.884   4.568   2.162 -0.9046 -0.0672 -0.6633
14652TIP3    H265448   0.959   4.658   2.259 -0.1238 -0.4081 -0.9396
14653TIP3   OH265449   5.411   3.187  10.353 -0.2479 -0.4937  0.2664
14653TIP3    H165450   5.418   3.248  10.427 -0.6847 -1.2089  0.9193
14653TIP3    H265451   5.381   3.241  10.280 -1.2195 -0.0162  0.9876
14654TIP3   OH265452   2.584   0.675  11.936  0.1929  0.4146 -0.1040
14654TIP3    H165453   2.543   0.590  11.954 -0.8421  0.8514 -0.3009
14654TIP3    H265454   2.602   0.712  12.022 -0.4427  0.4904  0.0043
14655TIP3   OH265455   5.481   6.404  12.311  0.2904  0.0846  0.1173
14655TIP3    H165456   5.522   6.476  12.359 -0.3725  1.2403 -0.9752
14655TIP3    H265457   5.446   6.445  12.231 -0.6127 -1.3409 -0.2664
14656TIP3   OH265458   6.241   5.567   1.358  0.2815 -0.4567  0.4958
14656TIP3    H165459   6.242   5.510   1.281 -1.2084  0.1887 -0.0279
14656TIP3    H265460   6.305   5.635   1.339 -1.1320  0.5492 -0.8785
14657TIP3   OH265461   6.328   4.756  11.640  0.2576 -0.2832  0.2369
14657TIP3    H165462   6.323   4.830  11.580 -0.1581 -0.2519  0.3053
14657TIP3    H265463   6.421   4.732  11.642  0.1293 -1.0162 -1.2872
14658TIP3   OH265464   3.890   0.227  11.287 -0.3521 -0.3771  0.1577
14658TIP3    H165465   3.802   0.266  11.290 -0.4723 -0.6094 -0.2430
14658TIP3    H265466   3.900   0.200  11.196  0.4546  0.3750  0.0106
14659TIP3   OH265467   6.206   6.218  16.881  0.1716  0.2292  0.2629
14659TIP3    H165468   6.246   6.139  16.916  0.3714 -0.1519 -0.7879
14659TIP3    H265469   6.275   6.260  16.831 -0.1758  0.6246  0.1072
14660TIP3   OH265470   0.877   4.144   3.169 -0.5078 -0.3002  0.1412
14660TIP3    H165471   0.813   4.084   3.130  1.0288 -1.3308 -0.8785
14660TIP3    H265472   0.896   4.207   3.099  0.6884 -0.8878 -0.0769
14661TIP3   OH265473   5.358   5.722  14.612 -0.2574  0.0165  0.5016
14661TIP3    H165474   5.334   5.673  14.691  1.1146 -0.0547  0.8971
14661TIP3    H265475   5.285   5.783  14.598 -2.0439 -2.0985 -0.0143
14662TIP3   OH265476   0.215   0.064  16.392  0.1102  0.3971  0.0822
14662TIP3    H165477   0.151   0.101  16.332 -1.0322  0.3418  1.2228
14662TIP3    H265478   0.192  -0.028  16.400  1.3899 -0.0278 -0.7878
14663TIP3   OH265479   1.578   1.405  13.612 -0.0014  0.0150 -0.1103
14663TIP3    H165480   1.548   1.350  13.540 -0.1380 -1.0071  0.7116
14663TIP3    H265481   1.647   1.354  13.654 -0.1725  0.4506  0.7077
14664TIP3   OH265482   5.755   6.201   4.877 -0.5977  0.1077  0.0660
14664TIP3    H165483   5.844   6.235   4.868 -0.2227 -0.8329  0.0418
14664TIP3    H265484   5.759   6.113   4.840 -1.3207 -0.2831  0.8600
14665TIP3   OH265485   2.635   2.725  11.406 -0.1800  0.0880 -0.2768
14665TIP3    H165486   2.548   2.760  11.426 -0.2104 -0.0454 -0.1751
14665TIP3    H265487   2.620   2.632  11.392 -0.1838  0.2011 -1.0639
14666TIP3   OH265488   3.916   0.426   2.323 -0.3610 -1.0402  0.1535
14666TIP3    H165489   3.941   0.389   2.408 -1.1657 -1.4199  0.2438
14666TIP3    H265490   3.864   0.356   2.282  1.7997 -1.7222 -1.5843
14667TIP3   OH265491   2.475   2.330  13.537  0.1428 -0.8158 -0.2675
14667TIP3    H165492   2.407   2.384  13.578  0.6348 -1.2713  1.1990
14667TIP3    H265493   2.462   2.242  13.573  1.7771 -0.8193  0.4234
14668TIP3   OH265494   6.265   6.272  10.741 -0.4943  0.2385 -0.5350
14668TIP3    H165495   6.347   6.222  10.744 -1.3568 -1.2730 -0.9268
14668TIP3    H265496   6.291   6.361  10.763  0.7283 -0.8136  2.9085
14669TIP3   OH265497   5.115   6.679   4.267  0.1831 -0.6674 -0.1613
14669TIP3    H165498   5.053   6.746   4.239  0.8884  0.0569 -0.0022
14669TIP3    H265499   5.061   6.601   4.281 -0.7199  0.0069  0.1729
14670TIP3   OH265500   0.278   1.145   6.244  0.2888  0.1824 -0.2877
14670TIP3    H165501   0.299   1.177   6.332  0.8563 -0.1882 -0.2858
14670TIP3    H265502   0.186   1.119   6.250  0.6558 -0.9967  0.5512
14671TIP3   OH265503   4.498   0.123   3.753  0.3588 -0.2300 -0.3121
14671TIP3    H165504   4.508   0.141   3.659 -1.0883 -1.7819 -0.8319
14671TIP3    H265505   4.423   0.177   3.779 -0.1950 -0.9256 -0.4349
14672TIP3   OH265506   3.743   0.073  15.264  0.0196  0.4604 -0.4919
14672TIP3    H165507   3.663   0.115  15.231  1.0077  1.4499 -1.7619
14672TIP3    H265508   3.735   0.078  15.359 -1.1277  1.1174 -0.5994
14673TIP3   OH265509   6.454   1.663   4.196  0.1192  0.5700 -0.6672
14673TIP3    H165510   6.462   1.664   4.101  0.7966  1.2201 -0.6097
14673TIP3    H265511   6.363   1.691   4.213  0.6705  2.7900 -1.0748
14674TIP3   OH265512   2.135   6.421   0.741  0.1809  0.0557  0.2558
14674TIP3    H165513   2.071   6.373   0.690  0.0057  0.2665  0.2771
14674TIP3    H265514   2.219   6.400   0.700  0.0546  0.1307 -0.0444
14675TIP3   OH265515   2.102   3.823   2.323 -0.0012 -0.5526  0.4501
14675TIP3    H165516   2.188   3.795   2.291 -1.1293 -2.0344 -1.4942
14675TIP3    H265517   2.041   3.800   2.252 -1.9213  1.1455  1.4404
14676TIP3   OH265518   3.230   5.442   4.798  0.5580  0.5934  0.4153
14676TIP3    H165519   3.206   5.421   4.708 -0.0235  1.3873  0.3777
14676TIP3    H265520   3.255   5.534   4.796 -0.5263  0.9306  1.2574
14677TIP3   OH265521   6.075   5.376  12.701  0.0596 -0.4387  0.4572
14677TIP3    H165522   6.035   5.302  12.657 -2.3850  1.0779 -0.0650
14677TIP3    H265523   6.085   5.442  12.632  0.2141  0.4617  1.3134
14678TIP3   OH265524   1.706   5.237  16.804 -0.4818  0.2321 -0.0226
14678TIP3    H165525   1.799   5.254  16.814 -0.3631  0.6178 -1.6197
14678TIP3    H265526   1.669   5.321  16.777 -1.5016  0.3745  1.6350
14679TIP3   OH265527   4.499   6.148  14.903 -0.4471  0.5292 -0.4670
14679TIP3    H165528   4.445   6.078  14.939 -1.3240  1.1549 -0.5456
14679TIP3    H265529   4.551   6.179  14.978  2.1257 -2.0622 -0.9599
14680TIP3   OH265530   2.006   6.391  12.522 -0.4418 -0.0848  0.9665
14680TIP3    H165531   2.093   6.414  12.489 -0.5169 -0.2780  0.6337
14680TIP3    H265532   1.973   6.327  12.459 -0.8470  0.0299  1.0623
14681TIP3   OH265533   2.897   6.343   5.213 -0.1358  0.0113 -0.2470
14681TIP3    H165534   2.858   6.286   5.147  0.4626 -0.4895 -0.1818
14681TIP3    H265535   2.831   6.350   5.282 -0.7192  0.4487 -0.8409
14682TIP3   OH265536   5.705   1.922  15.938  0.3191  0.9290 -0.1278
14682TIP3    H165537   5.647   1.969  15.997 -0.9593 -1.2394  0.4727
14682TIP3    H265538   5.755   1.863  15.994 -2.2163 -2.5201 -1.1541
14683TIP3   OH265539   3.858   1.705   1.649  0.4779  0.5346 -0.4698
14683TIP3    H165540   3.874   1.672   1.560  0.0757 -0.2094 -0.2686
14683TIP3    H265541   3.810   1.635   1.693  2.1455  0.1977  0.8738
14684TIP3   OH265542   2.098   3.293  11.769 -0.0139  0.5978 -0.0950
14684TIP3    H165543   2.010   3.307  11.803  1.2161  2.5095  2.7412
14684TIP3    H265544   2.134   3.381  11.757  1.3786 -0.1162 -1.7301
14685TIP3   OH265545   1.625   5.690   5.465 -0.0521  0.4237 -0.0630
14685TIP3    H165546   1.609   5.597   5.480  1.3605  0.3273  0.9946
14685TIP3    H265547   1.654   5.724   5.549 -0.0219  1.7117 -0.5689
14686TIP3   OH265548   0.073   3.193  13.485 -0.5028  0.1379  0.5650
14686TIP3    H165549   0.160   3.221  13.511 -0.8945  2.6450 -0.4944
14686TIP3    H265550   0.030   3.273  13.455 -2.2546 -1.4419 -1.4797
14687TIP3   OH265551   6.092   5.995   3.440  0.1476  0.1309  0.5600
14687TIP3    H165552   6.100   5.919   3.383 -0.7637 -0.1890  0.8511
14687TIP3    H265553   6.135   5.968   3.522  0.6136  0.2577  0.3644
14688TIP3   OH265554   1.576   5.169  11.879  0.5028  0.8471 -0.2145
14688TIP3    H165555   1.600   5.226  11.952  2.9321 -1.6217  1.0887
14688TIP3    H265556   1.500   5.120  11.912  1.5152 -0.1730  0.6867
14689TIP3   OH265557   4.688   3.431  15.929 -0.0422  0.4621  0.0160
14689TIP3    H165558   4.725   3.519  15.923  0.4279  0.3552  1.1651
14689TIP3    H265559   4.761   3.373  15.907 -0.7614  0.3548 -2.4499
14690TIP3   OH265560   6.188   1.002  13.297  0.0157  0.6763  0.4234
14690TIP3    H165561   6.186   0.906  13.298 -1.2459  0.6789 -0.1504
14690TIP3    H265562   6.269   1.024  13.249 -0.2031 -0.1122 -0.3272
14691TIP3   OH265563   0.592   4.562  15.271 -0.2690 -0.5376 -0.1904
14691TIP3    H165564   0.664   4.543  15.211  1.0094  1.1737  0.7243
14691TIP3    H265565   0.628   4.541  15.358 -0.5071  1.2416  0.3661
14692TIP3   OH265566   4.657   1.466   2.121  0.8033 -0.1548 -0.2723
14692TIP3    H165567   4.716   1.413   2.067  1.3583  0.5962 -0.4176
14692TIP3    H265568   4.602   1.512   2.058  1.0532  0.2654 -0.1904
14693TIP3   OH265569   0.110   4.352   3.208  0.5786 -0.0200  0.4664
14693TIP3    H165570   0.042   4.417   3.222  0.9631  0.6165 -0.5501
14693TIP3    H265571   0.096   4.287   3.277 -2.1790 -0.8508 -0.7448
14694TIP3   OH265572   6.044   1.617  11.567 -0.1174 -0.2170  0.0469
14694TIP3    H165573   6.109   1.549  11.586 -1.5305 -1.8205 -0.5930
14694TIP3    H265574   6.074   1.657  11.485  0.0394 -0.9906 -0.2810
14695TIP3   OH265575   3.179   0.280   2.529  0.2334 -0.6740  0.1478
14695TIP3    H165576   3.267   0.290   2.565  0.4518 -2.0080  0.0186
14695TIP3    H265577   3.181   0.331   2.447  0.1285  1.2613  1.2969
14696TIP3   OH265578   0.364   6.709  14.271  0.1330  0.0940  0.4680
14696TIP3    H165579   0.335   6.649  14.340  0.1122 -0.2481  0.1622
14696TIP3    H265580   0.458   6.717  14.285  0.4143 -1.2309 -0.4179
14697TIP3   OH265581   1.234   2.354   2.211 -0.0094 -0.3380  0.1231
14697TIP3    H165582   1.289   2.356   2.132 -0.2471 -0.7839 -0.0586
14697TIP3    H265583   1.188   2.437   2.210 -0.7950 -0.7647 -0.7774
14698TIP3   OH265584   1.113   0.390   3.825 -0.2094 -1.0172  0.0707
14698TIP3    H165585   1.165   0.393   3.905 -2.1337  0.2361  1.3573
14698TIP3    H265586   1.026   0.420   3.851 -0.9586 -0.7056 -2.4633
14699TIP3   OH265587   0.925   0.420  12.082 -0.7356 -0.3299 -0.0578
14699TIP3    H165588   0.954   0.420  11.991 -0.8831 -0.8288 -0.1125
14699TIP3    H265589   0.831   0.400  12.077 -0.6359 -0.8943  0.2284
14700TIP3   OH265590   1.624   1.872  10.507 -0.4319  0.1512 -0.3534
14700TIP3    H165591   1.557   1.905  10.567  0.9883 -0.1164  1.5054
14700TIP3    H265592   1.580   1.803  10.457 -1.3237 -0.7486  1.5504
14701TIP3   OH265593   0.543   2.354   4.474  0.4416 -0.2845  0.2045
14701TIP3    H165594   0.503   2.295   4.538  2.2391  0.7350  2.4007
14701TIP3    H265595   0.477   2.423   4.461  0.9252  0.8347  2.9836
14702TIP3   OH265596   1.904   5.190  14.412 -0.2233 -0.0119 -0.6586
14702TIP3    H165597   1.854   5.117  14.450 -0.6828  0.3638 -0.5274
14702TIP3    H265598   1.978   5.148  14.369 -0.9768 -0.6357 -1.3879
14703TIP3   OH265599   2.741   0.988  14.507  0.4714 -0.2039 -0.3279
14703TIP3    H165600   2.736   1.043  14.585  0.4172 -1.3121  0.4708
14703TIP3    H265601   2.707   0.903  14.535  1.8445 -1.0679 -1.1526
14704TIP3   OH265602   5.462   0.860  16.550 -0.8694  0.2460 -0.4699
14704TIP3    H165603   5.525   0.844  16.480  0.0916  1.0571  0.1830
14704TIP3    H265604   5.452   0.776  16.594  1.5704  0.5841  0.8697
14705TIP3   OH265605   0.302   6.124   2.789 -0.3817  0.0611 -0.5174
14705TIP3    H165606   0.249   6.047   2.768 -0.1377 -0.4557  0.7221
14705TIP3    H265607   0.347   6.144   2.707 -0.5349 -1.0463 -0.8955
14706TIP3   OH265608   3.791   5.387   4.867 -0.3990 -0.2645  0.1244
14706TIP3    H165609   3.735   5.310   4.875 -0.4849 -0.1432  0.7514
14706TIP3    H265610   3.857   5.377   4.936 -0.1640  0.0191 -0.0517
14707TIP3   OH265611   6.636   0.112  11.322  0.4002 -0.0113  0.6037
14707TIP3    H165612   6.631   0.127  11.416 -0.5912  1.1527  0.3889
14707TIP3    H265613   6.551   0.140  11.288  0.8466 -0.1354 -0.6766
14708TIP3   OH265614   2.577   0.185  12.849 -0.2004 -0.7232  0.1754
14708TIP3    H165615   2.667   0.204  12.876  0.3051 -1.9381 -0.5474
14708TIP3    H265616   2.572   0.217  12.759 -0.9181  0.5294  0.6432
14709TIP3   OH265617   2.970   1.419   0.213 -0.0597  0.3082  0.3364
14709TIP3    H165618   2.999   1.507   0.188  1.0454 -0.1220  0.0254
14709TIP3    H265619   2.962   1.422   0.308  1.5088  0.3379  0.5038
14710TIP3   OH265620   4.758   3.543   6.480 -0.4078  0.0038  0.0029
14710TIP3    H165621   4.664   3.535   6.495 -0.8998  4.2531  0.3237
14710TIP3    H265622   4.798   3.484   6.543 -2.8620  0.8080  2.5009
14711TIP3   OH265623   4.855   6.245  13.177  0.9237 -0.4014  0.8077
14711TIP3    H165624   4.815   6.222  13.093  0.6462 -1.2676  1.1607
14711TIP3    H265625   4.863   6.340  13.175 -0.5335 -0.2581  0.4295
14712TIP3   OH265626   3.368   5.211  12.823 -0.0209  0.1997 -0.3779
14712TIP3    H165627   3.418   5.250  12.895  1.1296 -0.6960 -0.6676
14712TIP3    H265628   3.406   5.248  12.744 -0.7606  0.5745 -0.5707
14713TIP3   OH265629   5.158   3.807  11.408  0.1807 -0.1696  0.5870
14713TIP3    H165630   5.091   3.833  11.471  0.6708  0.4751  0.8485
14713TIP3    H265631   5.148   3.712  11.400  0.7529 -0.4177  2.4069
14714TIP3   OH265632   0.362   2.499   2.956  0.1056 -0.0053 -0.0316
14714TIP3    H165633   0.400   2.486   2.869  0.8787  0.3516  0.2494
14714TIP3    H265634   0.322   2.586   2.952  0.7146  0.2863  0.1737
14715TIP3   OH265635   3.831   6.379   2.111  0.3408 -0.5126  0.0110
14715TIP3    H165636   3.891   6.445   2.077  0.7975 -0.1775  1.3776
14715TIP3    H265637   3.878   6.297   2.103  1.2336 -0.1900  1.5317
14716TIP3   OH265638   0.757   5.261   1.956 -0.2949  0.3746  0.3491
14716TIP3    H165639   0.733   5.350   1.929  2.9613  1.2535 -0.1700
14716TIP3    H265640   0.782   5.270   2.048 -3.1814 -0.8237  1.3556
14717TIP3   OH265641   6.258   4.927   2.876  0.2946 -0.8650 -0.3159
14717TIP3    H165642   6.237   4.842   2.915  1.3419 -1.6162 -1.3223
14717TIP3    H265643   6.316   4.969   2.940 -2.3522  0.3167  1.4694
14718TIP3   OH265644   6.360   0.436  14.815  0.1012  0.1993 -0.1041
14718TIP3    H165645   6.408   0.518  14.828 -0.3951  0.4996 -0.0879
14718TIP3    H265646   6.417   0.382  14.762  0.3821  0.6158 -0.2347
14719TIP3   OH265647   4.342   3.243   1.284 -0.0082 -0.2198 -0.0137
14719TIP3    H165648   4.269   3.301   1.264  0.4548  0.3028 -0.2193
14719TIP3    H265649   4.417   3.301   1.294  0.3301 -0.7229  0.4810
14720TIP3   OH265650   3.067   2.322  17.154 -0.2776 -0.0321 -0.4311
14720TIP3    H165651   2.987   2.276  17.128 -0.8150  0.7906 -0.2718
14720TIP3    H265652   3.102   2.270  17.226 -1.3767  0.2962  0.3635
14721TIP3   OH265653   2.747   5.813   2.182 -0.0588  0.0857  0.6831
14721TIP3    H165654   2.667   5.807   2.130  0.2521  1.2104  0.0454
14721TIP3    H265655   2.815   5.774   2.126 -0.0035 -0.1288  0.8945
14722TIP3   OH265656   0.200   1.191   5.214 -0.1467 -0.0485 -0.1901
14722TIP3    H165657   0.119   1.241   5.219 -0.4300 -0.3350 -1.6697
14722TIP3    H265658   0.261   1.247   5.166  0.2733 -0.1807  0.1800
14723TIP3   OH265659   0.208   3.223  16.951  0.2199  0.2909 -0.1756
14723TIP3    H165660   0.168   3.197  17.034 -1.0294  0.1502 -0.7901
14723TIP3    H265661   0.151   3.185  16.884  1.1912  0.4239 -1.1024
14724TIP3   OH265662   0.545   4.648   2.151  0.8021  0.1402 -0.0877
14724TIP3    H165663   0.467   4.694   2.121  0.3407 -0.7912 -0.3511
14724TIP3    H265664   0.582   4.705   2.219 -0.2719  0.4531  0.2568
14725TIP3   OH265665   5.468   5.162   6.004 -0.3402  0.6082  0.0795
14725TIP3    H165666   5.520   5.203   6.073  0.1337  0.8894 -0.4308
14725TIP3    H265667   5.396   5.120   6.050  1.6466 -1.9513  1.0849
14726TIP3   OH265668   2.474   5.720  15.898  0.2349 -0.1262 -0.3993
14726TIP3    H165669   2.548   5.660  15.914  0.9173  0.6210 -0.6809
14726TIP3    H265670   2.507   5.806  15.925 -0.7021  0.1503 -0.0965
14727TIP3   OH265671   0.974   6.783  13.517  0.3081  0.2458  0.0845
14727TIP3    H165672   1.067   6.799  13.536  0.3695  1.1531 -0.8594
14727TIP3    H265673   0.970   6.780  13.421 -0.4321 -1.1837  0.1388
14728TIP3   OH265674   1.075   5.134  17.045 -0.0950 -0.0775  0.0235
14728TIP3    H165675   1.146   5.106  17.103 -0.4560  1.3719  1.2215
14728TIP3    H265676   1.079   5.230  17.047 -2.4915  0.0714  0.6707
14729TIP3   OH265677   0.690   6.792  11.402 -0.2751  0.4097  0.3725
14729TIP3    H165678   0.750   6.866  11.392 -0.2031  0.5175  1.5411
14729TIP3    H265679   0.602   6.831  11.395 -0.2991  0.9439  2.7235
14730TIP3   OH265680   2.681   4.658  17.049  0.5192  0.2875 -0.2376
14730TIP3    H165681   2.656   4.620  17.133 -0.3526  2.7436  0.7332
14730TIP3    H265682   2.643   4.599  16.983 -0.3503 -0.7301  1.1276
14731TIP3   OH265683   6.085   3.746  10.725 -0.1532 -0.0941  0.1918
14731TIP3    H165684   6.109   3.819  10.668  3.0254 -0.5183  0.7967
14731TIP3    H265685   6.040   3.684  10.667 -0.4200  1.1219 -0.9399
14732TIP3   OH265686   4.284   1.842   4.673 -0.2682 -0.0753 -0.6433
14732TIP3    H165687   4.215   1.881   4.726 -0.5812  0.4200 -1.3990
14732TIP3    H265688   4.250   1.845   4.584  1.2394  1.3194 -1.1991
14733TIP3   OH265689   2.860   4.168  14.061 -0.3348  0.1140  0.0780
14733TIP3    H165690   2.943   4.206  14.034 -0.6127 -0.2899 -1.4257
14733TIP3    H265691   2.883   4.096  14.120  0.3037  0.8769  0.7702
14734TIP3   OH265692   6.604   2.750   5.006 -0.2683 -0.0988  0.4171
14734TIP3    H165693   6.645   2.823   5.054 -1.3313  0.0111  1.1778
14734TIP3    H265694   6.662   2.676   5.022  0.6508  0.4879 -0.0913
14735TIP3   OH265695   5.072   0.949   1.332 -0.5395 -0.6988 -0.7785
14735TIP3    H165696   5.099   1.040   1.348  0.6680 -0.9470 -1.3532
14735TIP3    H265697   5.017   0.927   1.408 -0.0091  0.1753 -0.1226
14736TIP3   OH265698   5.425   5.066   0.649 -0.4768  0.0285  0.4881
14736TIP3    H165699   5.385   5.122   0.583 -0.2592  1.5960  1.6292
14736TIP3    H265700   5.426   4.978   0.609 -1.7759  0.6215 -0.9336
14737TIP3   OH265701   5.326   5.468   0.281 -0.4791 -0.9089 -0.0102
14737TIP3    H165702   5.374   5.551   0.285 -1.2160 -0.4916  2.8463
14737TIP3    H265703   5.234   5.495   0.281 -0.7241 -1.7309 -0.1420
14738TIP3   OH265704   3.098   0.077   5.381  0.5187  0.5605  0.2415
14738TIP3    H165705   3.052   0.013   5.435 -1.5607  2.1432  0.4895
14738TIP3    H265706   3.115   0.032   5.299  3.2937 -1.7415  1.9025
14739TIP3   OH265707   4.237   3.846  17.230 -0.0404 -0.1100  0.5832
14739TIP3    H165708   4.166   3.910  17.222 -0.0184  0.1802  2.2850
14739TIP3    H265709   4.203   3.767  17.188 -0.1985  0.8922 -1.2498
14740TIP3   OH265710   6.300   2.916   4.723 -0.5237  0.6515 -0.1521
14740TIP3    H165711   6.354   2.987   4.688  0.8119 -0.1786  0.1394
14740TIP3    H265712   6.238   2.897   4.653  1.1025  0.0489 -1.5014
14741TIP3   OH265713   0.022   1.037   5.086 -0.0258  0.2258 -0.2955
14741TIP3    H165714  -0.008   0.984   5.160 -1.1935  1.1225 -0.0974
14741TIP3    H265715   0.099   1.083   5.118 -0.3599  0.3903  0.2894
14742TIP3   OH265716   1.633   0.238  11.107  0.0590  0.4393 -0.3308
14742TIP3    H165717   1.615   0.277  11.193  0.2206 -0.3738  0.0865
14742TIP3    H265718   1.728   0.250  11.095 -0.0268  0.8861 -0.5669
14743TIP3   OH265719   3.605   3.556   0.399  0.3463 -0.3656 -0.1299
14743TIP3    H165720   3.682   3.596   0.440 -0.0918 -0.2709  0.6178
14743TIP3    H265721   3.551   3.527   0.473  0.5763 -2.2244 -0.6429
14744TIP3   OH265722   6.355   1.112   3.793  0.2719  0.2394 -0.1869
14744TIP3    H165723   6.291   1.058   3.839  1.5412  0.3234  1.8207
14744TIP3    H265724   6.315   1.198   3.789 -0.2281  0.0216 -0.0000
14745TIP3   OH265725   1.417   4.390  10.740 -0.3092  0.0986 -0.1764
14745TIP3    H165726   1.434   4.444  10.817 -2.0552 -0.2912  0.5262
14745TIP3    H265727   1.504   4.369  10.706  0.4541  1.6524  0.7002
14746TIP3   OH265728   4.829   4.628  13.503  0.4457 -0.6508  0.2866
14746TIP3    H165729   4.771   4.675  13.563  0.5087 -0.2642  0.0489
14746TIP3    H265730   4.906   4.607  13.556  1.5248  1.6970 -0.2040
14747TIP3   OH265731   0.437   0.766   1.266  0.0607  0.1399  0.2904
14747TIP3    H165732   0.477   0.766   1.179 -0.1836  1.7986  0.1350
14747TIP3    H265733   0.501   0.724   1.322  1.3321  1.2624 -0.2626
14748TIP3   OH265734   6.564   6.650  11.376 -0.1456 -0.0821  0.0222
14748TIP3    H165735   6.511   6.614  11.447  0.5234  0.0730  0.6157
14748TIP3    H265736   6.584   6.739  11.404 -1.1866  0.5365 -1.1009
14749TIP3   OH265737   3.885   4.702  13.779 -0.0179  0.3283  0.2233
14749TIP3    H165738   3.879   4.696  13.874 -1.0685  1.8021  0.2826
14749TIP3    H265739   3.929   4.785  13.761 -0.2470  0.2949 -0.5725
14750TIP3   OH265740   6.547   5.591  10.611 -0.0710 -0.5573 -0.5027
14750TIP3    H165741   6.535   5.668  10.667  0.1959 -1.4427  0.8322
14750TIP3    H265742   6.465   5.582  10.563 -0.0150  0.6890 -0.8573
14751TIP3   OH265743   5.390   5.261  14.091 -0.1369 -0.5763 -0.6653
14751TIP3    H165744   5.446   5.297  14.021 -1.6341 -0.8744 -2.0692
14751TIP3    H265745   5.335   5.196  14.047 -0.2892 -1.6877  1.0506
14752TIP3   OH265746   2.974   6.552   5.368 -0.8716  0.1388 -0.0266
14752TIP3    H165747   2.928   6.490   5.311 -0.7720 -1.7060  1.7969
14752TIP3    H265748   3.067   6.538   5.349 -0.8899  0.6833 -0.5406
14753TIP3   OH265749   6.313   3.497   4.270 -0.7165  0.8153 -0.0428
14753TIP3    H165750   6.243   3.466   4.214 -0.6848 -1.5645  1.0808
14753TIP3    H265751   6.393   3.463   4.230 -0.2809  2.4198 -0.6173
14754TIP3   OH265752   3.118   2.485   4.157  0.3321 -0.2313 -0.3349
14754TIP3    H165753   3.203   2.443   4.147  0.1078 -1.0472  0.9676
14754TIP3    H265754   3.058   2.413   4.176 -0.8002  0.2447 -1.9151
14755TIP3   OH265755   1.697   6.599   5.767  0.3635  0.5577 -0.3118
14755TIP3    H165756   1.659   6.588   5.854  0.0954 -1.7678 -0.6412
14755TIP3    H265757   1.627   6.638   5.715  0.7464  2.6125  0.6078
14756TIP3   OH265758   4.965   5.654   6.337  0.2888 -0.0666 -0.4720
14756TIP3    H165759   4.967   5.714   6.411  0.6888 -0.1355 -0.4274
14756TIP3    H265760   5.048   5.667   6.291  0.2010 -0.2834 -0.7012
14757TIP3   OH265761   6.762   2.559  13.628 -0.3794 -0.1690  0.4445
14757TIP3    H165762   6.764   2.470  13.663 -0.5028 -0.2323  0.2923
14757TIP3    H265763   6.805   2.552  13.543  1.2963  0.2726  1.2084
14758TIP3   OH265764   3.027   6.162  12.183 -0.1897 -0.8191  0.1364
14758TIP3    H165765   3.031   6.069  12.201 -0.8483 -1.4160 -2.4208
14758TIP3    H265766   2.938   6.188  12.207 -0.4662 -1.1881 -0.4610
14759TIP3   OH265767   6.791   2.257   1.699 -0.5129  0.0301  0.1157
14759TIP3    H165768   6.706   2.244   1.741 -0.3625 -0.0440  0.3983
14759TIP3    H265769   6.834   2.172   1.706 -0.0873  0.2947  0.7105
14760TIP3   OH265770   2.465   3.288  15.978 -0.7350 -0.1292 -0.0004
14760TIP3    H165771   2.400   3.272  15.910  0.1638 -1.2555 -0.6102
14760TIP3    H265772   2.414   3.292  16.059 -1.6692 -0.0515 -0.5843
14761TIP3   OH265773   5.982   0.166  15.063 -0.2342 -0.6626  0.0412
14761TIP3    H165774   5.969   0.135  15.153 -2.7810  0.5726  0.1667
14761TIP3    H265775   6.075   0.189  15.060 -0.0399 -0.8516  2.3076
14762TIP3   OH265776   1.146   5.292   5.761  0.3194 -0.3401  0.0376
14762TIP3    H165777   1.094   5.316   5.837  1.1061  0.9374  0.2054
14762TIP3    H265778   1.107   5.343   5.689  0.5637 -0.3236 -0.0842
14763TIP3   OH265779   4.495   0.295  11.260  0.0786  0.7651  0.2156
14763TIP3    H165780   4.434   0.240  11.210 -0.1736  0.4331  0.8605
14763TIP3    H265781   4.509   0.372  11.206 -2.0734  1.5297  0.6585
14764TIP3   OH265782   5.964   5.612  13.381  0.2111  0.1694  0.3294
14764TIP3    H165783   6.053   5.642  13.399  0.3866 -0.1953  0.0867
14764TIP3    H265784   5.976   5.531  13.332 -0.2582  0.3870 -0.1483
14765TIP3   OH265785   5.493   4.502  15.832  0.1600  0.5345 -0.2677
14765TIP3    H165786   5.408   4.537  15.806  0.8645  1.0363 -2.0523
14765TIP3    H265787   5.548   4.579  15.847  0.1748  0.2281  1.5021
14766TIP3   OH265788   2.031   6.751  11.195 -0.2701 -0.5156  0.7111
14766TIP3    H165789   2.084   6.737  11.116  0.8535 -0.9923  1.5250
14766TIP3    H265790   1.948   6.707  11.175 -0.3011  0.0478 -0.5022
14767TIP3   OH265791   2.668   2.384   5.412  0.1707 -0.0799  0.2220
14767TIP3    H165792   2.612   2.307   5.419 -1.2268  0.5966 -2.3795
14767TIP3    H265793   2.755   2.349   5.395  0.0477 -1.0904  1.5201
14768TIP3   OH265794   6.232   2.370   5.196  0.2138 -0.7394  0.7284
14768TIP3    H165795   6.239   2.444   5.256 -1.0441 -1.2475  1.5458
14768TIP3    H265796   6.315   2.323   5.207  0.1198 -0.6763  1.8907
14769TIP3   OH265797   6.549   2.200  13.634  1.0382  0.6294 -0.2283
14769TIP3    H165798   6.601   2.138  13.686  0.0933 -0.1928 -0.2140
14769TIP3    H265799   6.506   2.255  13.699  1.1716  0.7069 -0.2057
14770TIP3   OH265800   1.234   0.917  13.293 -0.1643  0.5885 -0.2348
14770TIP3    H165801   1.232   1.001  13.248 -2.0932  1.4046  1.2358
14770TIP3    H265802   1.259   0.939  13.383  0.5645 -0.5876 -0.1314
14771TIP3   OH265803   3.718   4.959   2.460  0.2593 -0.1775 -0.5627
14771TIP3    H165804   3.661   5.029   2.426 -0.2808 -0.2051  0.2738
14771TIP3    H265805   3.795   4.963   2.404 -0.1018  0.5745 -1.0314
14772TIP3   OH265806   4.282   3.929  16.914  0.4059  0.6713 -0.3302
14772TIP3    H165807   4.355   3.923  16.975  0.5274  1.2876 -0.4048
14772TIP3    H265808   4.324   3.945  16.829  0.1554  2.2603 -0.1845
14773TIP3   OH265809   0.741   3.203   4.785  0.2595  0.0856 -0.9292
14773TIP3    H165810   0.684   3.222   4.859  0.0802  0.8595 -1.2549
14773TIP3    H265811   0.786   3.286   4.767  2.1313 -0.6908 -0.1611
14774TIP3   OH265812   1.035   3.709  14.226  0.2686  0.5090  0.2751
14774TIP3    H165813   0.974   3.635  14.225  0.1174  0.5665  2.2402
14774TIP3    H265814   1.102   3.685  14.290  1.4043  1.1779 -0.6123
14775TIP3   OH265815   5.262   0.388   3.523 -0.1713  0.5723 -0.2515
14775TIP3    H165816   5.174   0.417   3.501 -2.1563 -2.4966  2.6155
14775TIP3    H265817   5.283   0.321   3.457  1.1201  2.8278 -2.2693
14776TIP3   OH265818   6.103   3.431  10.299 -0.4742 -0.6248 -0.1370
14776TIP3    H165819   6.046   3.473  10.234 -0.9773 -1.8371 -0.5005
14776TIP3    H265820   6.176   3.396  10.248  0.2289  0.2809  0.2370
14777TIP3   OH265821   4.870   0.266  13.203  0.3818  0.0809 -0.1423
14777TIP3    H165822   4.806   0.213  13.250 -0.8366  1.5461 -0.0848
14777TIP3    H265823   4.825   0.294  13.124  0.6482  1.8266  0.2948
14778TIP3   OH265824   3.097   6.158   3.542  0.0248  0.0153  0.9502
14778TIP3    H165825   3.049   6.189   3.464  0.8033 -1.1158 -0.0114
14778TIP3    H265826   3.036   6.098   3.585 -0.0524 -0.1056  0.6768
14779TIP3   OH265827   5.679   6.018   1.694  0.6191  0.3974 -0.7339
14779TIP3    H165828   5.648   6.014   1.784 -0.5064  2.1866 -0.9989
14779TIP3    H265829   5.600   6.030   1.641  1.2202 -0.8655 -2.0238
14780TIP3   OH265830   1.865   5.379  16.575  0.5776  0.2469 -0.4852
14780TIP3    H165831   1.913   5.360  16.657  2.5579  2.7318 -0.9551
14780TIP3    H265832   1.781   5.414  16.604  0.8418  0.1370  0.4621
14781TIP3   OH265833   6.217   0.706   4.643 -0.0856 -0.0187  0.1196
14781TIP3    H165834   6.141   0.652   4.664 -1.0048  0.4854 -1.6379
14781TIP3    H265835   6.198   0.791   4.681  0.2156 -0.2443  0.7853
14782TIP3   OH265836   3.681   4.546   3.767  0.9050 -0.0192 -0.5371
14782TIP3    H165837   3.753   4.518   3.824  1.0762  0.6156 -0.4217
14782TIP3    H265838   3.700   4.639   3.750 -0.5278  0.5137  0.4974
14783TIP3   OH265839   0.662   1.448   6.173  0.5500 -0.0139  0.0577
14783TIP3    H165840   0.665   1.524   6.115  1.0790 -0.2958 -0.2892
14783TIP3    H265841   0.752   1.417   6.177  0.3218 -0.6913  0.1067
14784TIP3   OH265842   4.984   1.247  17.199 -0.1047 -0.0800  0.1633
14784TIP3    H165843   4.951   1.166  17.238  0.4196  0.1530  1.1342
14784TIP3    H265844   5.011   1.300  17.274  2.7681 -0.3616 -0.5346
14785TIP3   OH265845   5.534   6.025   0.287 -0.0143  0.5412 -0.3647
14785TIP3    H165846   5.512   5.980   0.369 -0.0601  4.2791  1.8899
14785TIP3    H265847   5.485   5.977   0.220  0.0687 -2.7278  1.6826
14786TIP3   OH265848   2.495   6.153  10.988 -0.2240  0.6557 -0.2854
14786TIP3    H165849   2.428   6.218  11.010 -1.8272 -1.2751  0.7941
14786TIP3    H265850   2.534   6.129  11.071 -0.1891 -0.3160 -0.5708
14787TIP3   OH265851   1.064   4.165  13.214  0.4512 -0.6939 -0.8782
14787TIP3    H165852   1.084   4.193  13.125 -0.1889  2.4205 -0.1938
14787TIP3    H265853   0.969   4.175  13.222  0.5230 -0.7267  0.1950
14788TIP3   OH265854   6.210   1.671  15.362  0.0704  0.6187 -0.4644
14788TIP3    H165855   6.164   1.754  15.372 -0.2552  0.3008  0.9293
14788TIP3    H265856   6.287   1.692  15.308 -1.8008  1.0955 -3.1350
14789TIP3   OH265857   2.344   1.919  11.157  0.2991  0.1706  0.0737
14789TIP3    H165858   2.252   1.919  11.185  0.4833 -0.2896  0.6954
14789TIP3    H265859   2.391   1.880  11.231  0.8463 -0.6886 -0.7083
14790TIP3   OH265860   6.819   1.099   6.250 -0.5630  0.5128 -0.3183
14790TIP3    H165861   6.753   1.029   6.249  0.3636 -0.3846 -0.2329
14790TIP3    H265862   6.775   1.172   6.295 -0.8863 -0.7002  1.4464
14791TIP3   OH265863   5.897   1.868   4.445 -0.2480  0.0889 -0.8564
14791TIP3    H165864   5.988   1.891   4.467 -0.1612  0.1647 -1.2744
14791TIP3    H265865   5.854   1.952   4.431 -1.2766  0.2818  2.5599
14792TIP3   OH265866   1.538   5.447  11.787  0.9271 -0.0113 -0.1500
14792TIP3    H165867   1.528   5.402  11.702 -0.0743 -0.1659  0.0340
14792TIP3    H265868   1.566   5.378  11.847 -0.9189 -0.5297  0.2040
14793TIP3   OH265869   6.144   6.563  10.483  0.7308  0.3146 -0.1435
14793TIP3    H165870   6.088   6.568  10.406 -0.4839 -1.3207  0.5832
14793TIP3    H265871   6.176   6.653  10.495 -1.7710  1.3547 -0.5800
14794TIP3   OH265872   2.501   2.500   2.883 -0.4635  0.4616  0.1254
14794TIP3    H165873   2.581   2.530   2.840  0.0517  2.2060  2.1617
14794TIP3    H265874   2.510   2.528   2.973 -2.1867 -1.7237  1.0732
14795TIP3   OH265875   5.239   2.630   4.599 -0.1448  0.5858 -0.3921
14795TIP3    H165876   5.312   2.672   4.646 -0.1373  0.2470 -0.0900
14795TIP3    H265877   5.170   2.622   4.665 -0.9609  2.1006 -1.0020
14796TIP3   OH265878   5.105   3.802   2.325  0.4576  0.5160 -0.3343
14796TIP3    H165879   5.069   3.744   2.392  2.8890 -0.0264  0.5797
14796TIP3    H265880   5.149   3.871   2.374 -0.4640  1.9518 -1.4200
14797TIP3   OH265881   6.326   5.792   1.568 -0.2877 -0.0839 -0.2158
14797TIP3    H165882   6.412   5.814   1.533 -0.4631  1.7791  0.4141
14797TIP3    H265883   6.267   5.802   1.493  0.1179 -2.2445 -0.8756
14798TIP3   OH265884   5.296   0.122  14.289 -0.6877  0.0523 -0.1354
14798TIP3    H165885   5.318   0.091  14.378  0.3714 -0.1076 -0.4393
14798TIP3    H265886   5.223   0.066  14.262 -0.1048 -0.8588  0.1096
14799TIP3   OH265887   0.950   4.361  13.392  0.2456 -0.5351  0.0400
14799TIP3    H165888   0.999   4.286  13.425  0.1653  0.0544  1.5486
14799TIP3    H265889   0.862   4.327  13.377  0.0855 -0.6545  1.1633
14800TIP3   OH265890   2.778   5.278  15.822 -0.0876  0.2594  1.1243
14800TIP3    H165891   2.740   5.271  15.734  3.2695  0.3757 -0.4990
14800TIP3    H265892   2.707   5.312  15.876 -1.8631  1.7792 -1.8890
14801TIP3   OH265893   6.319   5.878  11.529  0.2469 -0.0267 -0.1184
14801TIP3    H165894   6.413   5.888  11.539  0.6915 -3.5876  0.6897
14801TIP3    H265895   6.306   5.863  11.435  0.9566 -2.3400  0.0918
14802TIP3   OH265896   0.712   3.050  14.827  0.2196 -0.2338 -0.0236
14802TIP3    H165897   0.629   3.078  14.865 -0.5441  0.2931 -1.9338
14802TIP3    H265898   0.708   2.954  14.829 -0.8266 -0.2306 -0.8054
14803TIP3   OH265899   5.019   0.272  14.336 -0.6667  0.0631 -0.5439
14803TIP3    H165900   5.084   0.242  14.274 -0.1094  2.0045 -0.9863
14803TIP3    H265901   4.936   0.239  14.302 -0.2607  0.2881 -1.8081
14804TIP3   OH265902   6.525   5.947   3.051  0.1241  0.3041 -0.4477
14804TIP3    H165903   6.539   5.873   3.110  0.1170  0.6827  0.0370
14804TIP3    H265904   6.484   6.014   3.106  0.5949  0.8551 -0.7569
14805TIP3   OH265905   2.186   6.761  12.449 -0.1854  0.0993  0.6256
14805TIP3    H165906   2.151   6.727  12.532 -0.6364  0.7347  0.7021
14805TIP3    H265907   2.278   6.737  12.451 -0.3053 -0.3534  1.0756
14806TIP3   OH265908   2.832   6.009  15.353 -0.1498 -0.6945 -0.2072
14806TIP3    H165909   2.753   6.060  15.334 -0.1692 -1.3375 -2.0695
14806TIP3    H265910   2.801   5.919  15.360  0.5042 -1.1190 -2.0973
14807TIP3   OH265911   2.936   0.728   0.126 -0.3348  0.0605 -0.8508
14807TIP3    H165912   2.872   0.797   0.141 -0.3941 -0.3749  1.1562
14807TIP3    H265913   3.014   0.774   0.096  0.0284  1.2052  1.6281
14808TIP3   OH265914   1.634   6.427   4.640  0.3402  0.1224  0.3148
14808TIP3    H165915   1.604   6.518   4.643 -1.3261 -0.3336 -0.9480
14808TIP3    H265916   1.729   6.433   4.648  0.5096  2.1949 -1.8682
14809TIP3   OH265917   6.170   2.319   1.059  0.5011 -0.5557 -0.1434
14809TIP3    H165918   6.186   2.325   1.153 -1.3576  2.2620  0.0963
14809TIP3    H265919   6.096   2.259   1.051  0.1892 -0.2336  0.2776
14810TIP3   OH265920   6.321   4.061   3.089  0.1863  0.3264 -0.2618
14810TIP3    H165921   6.229   4.043   3.068  0.1062  0.4484 -0.0220
14810TIP3    H265922   6.343   3.998   3.157  0.1621  0.5581 -0.0382
14811TIP3   OH265923   0.191   6.069  14.202  0.4906 -0.3331 -0.1753
14811TIP3    H165924   0.227   6.072  14.291 -1.5492 -0.6824  0.7171
14811TIP3    H265925   0.126   5.999  14.205  0.0756 -0.0588 -1.8290
14812TIP3   OH265926   4.309   6.117  13.185  0.1184 -0.1176 -0.3369
14812TIP3    H165927   4.346   6.104  13.098  1.8482 -0.4634  0.4098
14812TIP3    H265928   4.263   6.035  13.203  1.3175 -0.7914 -0.2178
14813TIP3   OH265929   1.536   3.647  12.140  0.1782 -0.1362  0.2719
14813TIP3    H165930   1.524   3.740  12.122  1.0372  0.4176  2.2131
14813TIP3    H265931   1.539   3.642  12.236 -0.0615 -2.1985  0.2083
14814TIP3   OH265932   3.155   5.372   3.636  0.3827 -0.2953  0.0887
14814TIP3    H165933   3.136   5.466   3.632  2.4646  0.1389 -2.6926
14814TIP3    H265934   3.140   5.348   3.728  0.0367  2.7899  0.9367
14815TIP3   OH265935   5.496   0.705  13.963  0.3882  0.0146  0.5269
14815TIP3    H165936   5.536   0.643  13.902 -2.3514 -0.4616 -0.9452
14815TIP3    H265937   5.437   0.652  14.016  2.0833  0.5657  3.1509
14816TIP3   OH265938   5.278   1.291  16.135  0.0857 -0.1537 -0.7574
14816TIP3    H165939   5.238   1.288  16.048 -0.6859  0.2416 -0.4265
14816TIP3    H265940   5.285   1.199  16.160 -2.6238 -0.2322  0.0475
14817TIP3   OH265941   3.948   3.940  15.605 -0.0920 -0.1119  0.3360
14817TIP3    H165942   3.856   3.931  15.578 -0.4167  0.2168  1.2832
14817TIP3    H265943   3.981   3.850  15.609 -1.1374 -0.4689  2.4706
14818TIP3   OH265944   4.238   5.076   2.400  0.1092  0.2061  0.5147
14818TIP3    H165945   4.253   5.155   2.348 -0.7870  1.1911  1.6961
14818TIP3    H265946   4.302   5.080   2.471  1.6907 -1.4103 -0.7136
14819TIP3   OH265947   3.921   0.466  11.735  0.0081 -0.2793 -0.4818
14819TIP3    H165948   3.967   0.467  11.651  2.0553 -1.0583  0.5700
14819TIP3    H265949   3.954   0.543  11.782 -2.0856  0.9027 -0.8102
14820TIP3   OH265950   3.718   3.394  11.917 -0.2390 -0.1895  0.5575
14820TIP3    H165951   3.680   3.482  11.912 -0.8079 -0.4790 -0.9427
14820TIP3    H265952   3.803   3.407  11.959 -1.1917  0.7449  2.3288
14821TIP3   OH265953   4.129   6.555   4.807 -0.2087  0.0985 -0.4190
14821TIP3    H165954   4.120   6.618   4.878 -1.2775  0.4068 -0.8100
14821TIP3    H265955   4.151   6.472   4.851  2.5787  0.9655  0.0093
14822TIP3   OH265956   3.301   6.520  14.348  0.1649  0.2248 -0.4283
14822TIP3    H165957   3.330   6.562  14.267  2.6061 -1.6950 -0.6687
14822TIP3    H265958   3.261   6.590  14.399  0.5070  1.9327 -2.3847
14823TIP3   OH265959   1.773   6.738  12.673  0.5421 -0.4383  0.3072
14823TIP3    H165960   1.741   6.671  12.613  1.4891  0.0379 -0.7558
14823TIP3    H265961   1.741   6.821  12.637  2.5240  0.0081 -0.5293
14824TIP3   OH265962   3.009   5.550   0.663  0.0945  0.3474 -0.7863
14824TIP3    H165963   2.985   5.536   0.571  0.1870 -0.3904 -0.7007
14824TIP3    H265964   2.945   5.614   0.695 -0.0561  0.4625 -1.3079
14825TIP3   OH265965   0.899   4.012  15.775  0.2378  0.1286 -0.0458
14825TIP3    H165966   0.868   4.103  15.782  1.6310  0.6770 -0.7097
14825TIP3    H265967   0.819   3.960  15.783 -0.4625  1.3424  1.5327
14826TIP3   OH265968   0.036   4.092  15.786  0.7714 -0.3207 -0.3841
14826TIP3    H165969   0.082   4.174  15.808  2.0953 -1.0846 -0.1519
14826TIP3    H265970   0.105   4.036  15.750 -0.0618 -1.4075 -0.3206
14827TIP3   OH265971   1.403   1.725   1.392 -0.1389 -0.5540  0.5259
14827TIP3    H165972   1.438   1.678   1.468 -0.2347 -2.2705 -0.4311
14827TIP3    H265973   1.308   1.718   1.401 -0.1538 -0.5132  0.3961
14828TIP3   OH265974   5.161   6.769  13.182 -0.1283  0.3405 -0.1103
14828TIP3    H165975   5.089   6.793  13.240  0.6229  2.4831  0.0316
14828TIP3    H265976   5.231   6.831  13.205  1.4665 -1.1316 -0.8132
14829TIP3   OH265977   4.098   4.297   2.739 -0.4161  0.4277  0.3413
14829TIP3    H165978   4.035   4.283   2.669 -0.7021  1.2512  0.4233
14829TIP3    H265979   4.183   4.299   2.695 -0.5977  0.9818  0.0049
14830TIP3   OH265980   4.038   3.091  11.422 -0.8795 -0.0413 -0.0484
14830TIP3    H165981   4.040   2.996  11.431 -0.4105 -0.1609 -1.1946
14830TIP3    H265982   4.075   3.124  11.504  0.1803 -0.9012 -0.1532
14831TIP3   OH265983   0.542   3.780   3.531 -0.5549  0.1801 -0.2087
14831TIP3    H165984   0.453   3.750   3.511 -0.1108 -0.9786 -0.5283
14831TIP3    H265985   0.530   3.862   3.579 -1.8601 -1.1705  1.8724
14832TIP3   OH265986   5.530   1.817   2.706  0.6232  0.3892 -0.3152
14832TIP3    H165987   5.555   1.884   2.642 -0.5276 -0.4335 -1.6811
14832TIP3    H265988   5.454   1.854   2.752 -0.5496 -0.2710 -1.6566
14833TIP3   OH265989   0.630   3.327   5.846  0.2006  0.4602  0.0964
14833TIP3    H165990   0.685   3.255   5.875  0.1636  0.0586 -0.8107
14833TIP3    H265991   0.572   3.344   5.920 -1.1948 -1.8223 -0.3804
14834TIP3   OH265992   1.969   4.940   1.173 -0.0330 -0.2633 -0.0981
14834TIP3    H165993   1.920   4.862   1.146 -0.2924  0.1466 -0.8671
14834TIP3    H265994   2.060   4.919   1.154  0.0557 -0.8683  0.9373
14835TIP3   OH265995   1.066   0.567  10.645 -0.5532 -0.2480  0.0344
14835TIP3    H165996   1.110   0.578  10.560  1.1830 -1.0926  0.7607
14835TIP3    H265997   1.131   0.596  10.709 -0.8919 -1.8677  1.1911
14836TIP3   OH265998   3.256   1.957   2.415 -0.4289  0.0701 -0.0143
14836TIP3    H165999   3.297   2.043   2.402  1.8788 -0.7892  1.1112
14836TIP3    H266000   3.250   1.921   2.326  2.4615 -0.2243 -0.1827
14837TIP3   OH266001   5.683   0.719  14.801  0.1870  0.2066  0.0936
14837TIP3    H166002   5.662   0.712  14.894 -0.7966  0.7942 -0.0677
14837TIP3    H266003   5.611   0.674  14.757  0.8098 -0.3416 -0.3761
14838TIP3   OH266004   5.532   4.738  14.577 -0.2273  0.2619  0.5249
14838TIP3    H166005   5.491   4.769  14.657 -2.3347  0.4987 -0.5737
14838TIP3    H266006   5.541   4.815  14.522  1.1038  0.0841  0.4416
14839TIP3   OH266007   1.930   1.416   2.030 -0.3129 -0.3401  0.3283
14839TIP3    H166008   1.949   1.436   2.121  1.5677 -3.0495  0.6534
14839TIP3    H266009   2.014   1.426   1.985 -1.1942  0.9182 -1.1563
14840TIP3   OH266010   5.826   0.206  15.631  0.9642 -0.3580 -0.3984
14840TIP3    H166011   5.827   0.116  15.664  1.5773 -0.3021 -0.2589
14840TIP3    H266012   5.871   0.257  15.698 -0.2312  0.2221 -0.0140
14841TIP3   OH266013   0.082   4.828  14.456 -0.1763 -0.2785  0.0650
14841TIP3    H166014   0.121   4.776  14.385  0.4950  0.5461 -0.1805
14841TIP3    H266015   0.133   4.805  14.533 -0.4534 -0.6445  0.1421
14842TIP3   OH266016   3.261   0.627   4.068 -0.3246 -0.1794  0.0998
14842TIP3    H166017   3.203   0.605   3.995 -0.9942 -0.5939  0.7466
14842TIP3    H266018   3.224   0.707   4.105 -1.3456 -1.1783  1.3713
14843TIP3   OH266019   4.645   5.237  14.776  0.3885  0.3398 -0.1859
14843TIP3    H166020   4.602   5.158  14.743  0.2525 -0.3374  1.5069
14843TIP3    H266021   4.592   5.309  14.743  0.2134 -0.2810 -1.3230
14844TIP3   OH266022   5.327   0.331  13.826 -0.1048 -0.2792 -0.4859
14844TIP3    H166023   5.294   0.284  13.749 -1.9249  2.1712 -1.3289
14844TIP3    H266024   5.388   0.396  13.790  0.7539 -0.5421  0.4275
14845TIP3   OH266025   2.523   5.827  15.426  0.2622  0.2457  0.2067
14845TIP3    H166026   2.476   5.764  15.481  0.7044 -1.0398 -0.8441
14845TIP3    H266027   2.601   5.780  15.397  0.8457  1.4422 -0.2436
14846TIP3   OH266028   0.391   4.744  16.472 -0.0898 -0.3833 -0.2877
14846TIP3    H166029   0.319   4.794  16.432 -0.5412  0.0677  1.0167
14846TIP3    H266030   0.348   4.691  16.540  0.4512 -2.2070 -1.3123
14847TIP3   OH266031   6.516   6.715   0.697  0.5014 -0.1833 -0.1493
14847TIP3    H166032   6.543   6.720   0.605 -0.4340  0.4169 -0.3988
14847TIP3    H266033   6.532   6.623   0.721  0.2073 -0.4873 -1.0787
14848TIP3   OH266034   4.630   0.058  11.712  0.6721 -0.1277 -0.2993
14848TIP3    H166035   4.712   0.094  11.747  0.2104  1.3767 -0.6896
14848TIP3    H266036   4.653   0.031  11.623  1.2098 -1.5430  0.2520
14849TIP3   OH266037   1.292   1.896  16.903  0.0754  0.1402  0.5479
14849TIP3    H166038   1.383   1.919  16.884 -0.7288  2.5831 -0.6575
14849TIP3    H266039   1.240   1.952  16.846 -2.2735  0.7215  3.0436
14850TIP3   OH266040   0.004   4.912   2.659 -0.3238  0.0098 -0.2048
14850TIP3    H166041   0.028   4.997   2.623  0.7381  0.0932  0.6189
14850TIP3    H266042   0.072   4.853   2.626 -0.1897 -0.2013  0.4254
14851TIP3   OH266043   5.111   4.370  10.580  0.4924  0.2889  1.3609
14851TIP3    H166044   5.142   4.352  10.669 -0.3401  0.7377  1.7545
14851TIP3    H266045   5.169   4.439  10.548  1.9866 -1.1452  0.8380
14852TIP3   OH266046   6.479   1.105   4.718 -0.2534  0.2393  0.1587
14852TIP3    H166047   6.529   1.135   4.794  2.7158  1.3645 -2.0669
14852TIP3    H266048   6.493   1.172   4.651 -1.9385 -1.1587 -1.7274
14853TIP3   OH266049   3.085   6.065  15.257 -0.5430 -0.3288  0.1118
14853TIP3    H166050   3.061   6.105  15.173 -1.0548  0.9796  0.8512
14853TIP3    H266051   3.002   6.033  15.293 -0.3804 -0.5649  0.2763
14854TIP3   OH266052   3.725   0.634  15.533  0.4335  0.5199 -0.1831
14854TIP3    H166053   3.695   0.546  15.554  0.1373  0.4713 -0.7906
14854TIP3    H266054   3.771   0.625  15.449 -0.2600  1.0659 -0.6369
14855TIP3   OH266055   3.151   3.256  16.002 -0.0384  0.6159 -0.7148
14855TIP3    H166056   3.063   3.235  16.035 -0.2015  1.3671 -0.6545
14855TIP3    H266057   3.177   3.334  16.051 -0.2500  1.7189 -2.2688
14856TIP3   OH266058   5.686   5.243  16.303 -0.1145 -0.1960 -0.1825
14856TIP3    H166059   5.671   5.152  16.326  0.4368 -0.0497  0.8465
14856TIP3    H266060   5.782   5.253  16.305 -0.0853  0.0518 -1.7478
14857TIP3   OH266061   4.089   5.030   5.029 -0.7594 -0.5471  0.1432
14857TIP3    H166062   4.160   5.093   5.020 -2.0944  1.1756  0.9718
14857TIP3    H266063   4.037   5.040   4.949 -1.4725  0.1114  0.6670
14858TIP3   OH266064   0.119   6.251  13.131 -0.2981 -0.0644  0.3363
14858TIP3    H166065   0.055   6.306  13.086 -0.4848 -0.7473 -0.2403
14858TIP3    H266066   0.131   6.176  13.074 -1.3145 -1.4700  1.8774
14859TIP3   OH266067   1.663   5.345   0.933 -0.4546  0.1048 -0.4260
14859TIP3    H166068   1.621   5.426   0.902  0.0376  0.5162 -0.0338
14859TIP3    H266069   1.705   5.309   0.854 -0.7538  0.1784 -0.6221
14860TIP3   OH266070   1.403   5.458  11.423 -0.1338 -0.2905  0.0148
14860TIP3    H166071   1.419   5.486  11.333  4.1720 -2.0588 -0.0133
14860TIP3    H266072   1.401   5.540  11.473 -3.0854  0.7557 -1.5482
14861TIP3   OH266073   4.325   2.380   5.851 -0.0418  0.2212  0.1278
14861TIP3    H166074   4.408   2.428   5.842  1.6283 -2.1962  1.5232
14861TIP3    H266075   4.331   2.311   5.784  1.1754 -2.5822  2.8586
14862TIP3   OH266076   5.725   3.136   0.437  0.1077  0.2657  0.0924
14862TIP3    H166077   5.791   3.094   0.492  1.5843  1.9832 -0.2764
14862TIP3    H266078   5.648   3.142   0.493  0.2342 -1.7446  0.5487
14863TIP3   OH266079   6.633   0.762  13.015 -0.5790  0.0083 -0.4844
14863TIP3    H166080   6.682   0.679  13.011 -0.6930 -0.1847  1.3223
14863TIP3    H266081   6.550   0.742  12.972 -0.7689 -0.9580  0.2968
14864TIP3   OH266082   6.745   5.752  16.163  0.1882 -0.6486  0.2130
14864TIP3    H166083   6.653   5.731  16.149  0.7541 -2.2281 -1.7101
14864TIP3    H266084   6.767   5.813  16.092  0.5132  0.1689  0.9959
14865TIP3   OH266085   4.581   4.819   0.705  0.1106  0.2943 -0.5601
14865TIP3    H166086   4.659   4.793   0.656  0.0518 -1.2521  0.1247
14865TIP3    H266087   4.601   4.798   0.796 -1.7988 -2.0454 -0.5813
14866TIP3   OH266088   1.408   0.776   1.352  0.1001  1.1240 -0.0872
14866TIP3    H166089   1.328   0.828   1.340 -1.1252 -0.5126  0.4955
14866TIP3    H266090   1.377   0.695   1.392  1.7145 -0.5987 -2.0954
14867TIP3   OH266091   1.097   5.790   1.386 -0.5686 -0.2429  0.1434
14867TIP3    H166092   1.166   5.812   1.448  0.7457  1.0786 -1.6669
14867TIP3    H266093   1.139   5.729   1.325 -0.6234  1.3213 -1.5445
14868TIP3   OH266094   6.322   5.591  10.266 -0.2539 -0.0364  0.3907
14868TIP3    H166095   6.273   5.523  10.221 -1.2008  0.1310  1.1569
14868TIP3    H266096   6.257   5.640  10.317  0.3737  1.5273 -0.2279
14869TIP3   OH266097   3.678   6.257  12.269 -0.3086 -0.3025  0.0494
14869TIP3    H166098   3.693   6.230  12.178  0.2676 -2.0346  0.6318
14869TIP3    H266099   3.657   6.177  12.315  0.4569  0.3850  1.6704
14870TIP3   OH266100   5.121   2.489   2.376 -0.2222  0.0175 -0.0137
14870TIP3    H166101   5.062   2.486   2.300 -1.3921  1.1974  0.8079
14870TIP3    H266102   5.209   2.488   2.338 -0.7701  1.7033 -1.4684
14871TIP3   OH266103   2.676   5.677   0.311 -0.1094 -0.7551  0.3330
14871TIP3    H166104   2.652   5.592   0.274  1.3835 -0.9470 -0.2928
14871TIP3    H266105   2.766   5.664   0.342  1.0983  1.2182 -2.0070
14872TIP3   OH266106   4.046   5.578   1.679  0.4942 -0.0729  0.5433
14872TIP3    H166107   4.115   5.526   1.639  0.5526 -1.6109  2.4785
14872TIP3    H266108   3.976   5.515   1.699  0.5260  0.5292  2.8748
14873TIP3   OH266109   2.896   6.335   2.061 -0.1780 -0.5590 -0.6148
14873TIP3    H166110   2.859   6.247   2.065 -2.1038  0.2133 -0.0576
14873TIP3    H266111   2.832   6.386   2.011  1.1660  0.4144 -1.4011
14874TIP3   OH266112   0.731   2.257  11.594 -0.2940 -0.4636  0.2776
14874TIP3    H166113   0.703   2.168  11.572 -0.5434 -0.5367  0.8688
14874TIP3    H266114   0.798   2.245  11.661  0.0285 -0.2211  0.0007
14875TIP3   OH266115   4.732   1.909   3.866 -0.1231  0.1993  0.4903
14875TIP3    H166116   4.827   1.897   3.863 -0.2705 -1.4655  1.5126
14875TIP3    H266117   4.697   1.830   3.824 -1.0690  1.2149 -0.7087
14876TIP3   OH266118   6.590   6.671   4.574  0.5955  0.2550  0.1742
14876TIP3    H166119   6.592   6.727   4.651  1.7144 -0.2836  0.5470
14876TIP3    H266120   6.510   6.698   4.527  1.2657  2.3974  0.1601
14877TIP3   OH266121   6.520   3.817  12.643 -1.0941  0.0438 -0.0304
14877TIP3    H166122   6.474   3.897  12.618  0.3536  1.4431  1.5222
14877TIP3    H266123   6.589   3.807  12.578 -1.3809 -0.0545 -0.3229
14878TIP3   OH266124   0.667   4.611  13.278 -0.0917 -0.5098  0.2241
14878TIP3    H166125   0.748   4.646  13.316  0.3273  0.0710 -1.1520
14878TIP3    H266126   0.640   4.543  13.340 -1.1829  2.4046  3.3015
14879TIP3   OH266127   4.708   5.564  16.245 -0.3690 -0.5193 -0.4810
14879TIP3    H166128   4.666   5.648  16.264 -1.6648 -1.1940 -0.2965
14879TIP3    H266129   4.802   5.583  16.250 -0.6230  0.4305  1.7320
14880TIP3   OH266130   6.783   0.494   5.367 -0.6677  0.7286  0.5146
14880TIP3    H166131   6.791   0.588   5.357 -2.8742  0.8553 -0.6832
14880TIP3    H266132   6.838   0.457   5.297 -0.0494  1.0986  0.7929
14881TIP3   OH266133   3.696   4.358  11.807 -0.9614  0.1421  0.3236
14881TIP3    H166134   3.628   4.357  11.874 -0.7434 -0.5144  0.5417
14881TIP3    H266135   3.692   4.271  11.768 -1.6891  0.8035 -1.1412
14882TIP3   OH266136   3.481   6.107   0.837  0.4331 -0.8244  0.0582
14882TIP3    H166137   3.393   6.144   0.843  0.6640 -0.1547 -0.5084
14882TIP3    H266138   3.536   6.170   0.883  0.4673 -1.8353  1.4587
14883TIP3   OH266139   6.765   1.308   5.277 -0.4014  0.1405 -0.5032
14883TIP3    H166140   6.703   1.241   5.304  0.3745 -0.1340  0.7049
14883TIP3    H266141   6.737   1.387   5.323 -0.4674  0.2835 -0.7846
14884TIP3   OH266142   0.784   5.258   4.614  0.1623  0.7144  0.2002
14884TIP3    H166143   0.869   5.216   4.627 -0.2034  0.4630  1.9984
14884TIP3    H266144   0.738   5.245   4.696 -2.6331 -1.3783 -1.5290
14885TIP3   OH266145   2.488   2.635   2.054  0.0202 -0.4226 -0.6717
14885TIP3    H166146   2.565   2.685   2.026  1.3305 -2.4116 -0.8804
14885TIP3    H266147   2.432   2.698   2.099  0.9730  1.4550 -2.0045
14886TIP3   OH266148   4.327   4.780   3.652  0.1424 -0.0689  0.0926
14886TIP3    H166149   4.245   4.818   3.683  0.2553 -0.6220  1.1134
14886TIP3    H266150   4.394   4.844   3.676  0.2983 -0.7329  1.5637
14887TIP3   OH266151   4.728   4.710   0.912 -0.0157  0.3061  0.0330
14887TIP3    H166152   4.804   4.760   0.884  0.5432 -0.4552  0.1506
14887TIP3    H266153   4.765   4.640   0.967 -0.6069 -1.1826 -1.3979
14888TIP3   OH266154   4.984   5.341   0.961  0.4545 -0.4559 -0.0842
14888TIP3    H166155   5.032   5.377   0.886 -1.8589 -0.6671 -1.7793
14888TIP3    H266156   4.969   5.417   1.018 -0.2327  0.3259 -1.2677
14889TIP3   OH266157   0.830   3.239   1.619  0.4015 -0.5602  0.1078
14889TIP3    H166158   0.834   3.334   1.629 -0.3835 -0.5315  0.2133
14889TIP3    H266159   0.871   3.204   1.699  2.4356 -0.3280 -0.7722
14890TIP3   OH266160   5.459   0.294   0.342 -0.4175 -0.2479 -0.2986
14890TIP3    H166161   5.480   0.279   0.434 -1.2303 -0.2794 -0.1188
14890TIP3    H266162   5.542   0.322   0.304 -0.2525  0.5388  0.6074
14891TIP3   OH266163   0.365   5.501   4.325  0.4577  0.1064 -0.1577
14891TIP3    H166164   0.297   5.467   4.383  0.8504 -1.9625 -0.8265
14891TIP3    H266165   0.324   5.576   4.281 -0.6430  0.2205  1.0052
14892TIP3   OH266166   3.011   2.299   2.852 -0.3756  1.0204 -0.0501
14892TIP3    H166167   2.966   2.215   2.857 -1.1181  1.4535  1.1593
14892TIP3    H266168   3.084   2.285   2.792 -0.4251 -0.5127  0.2188
14893TIP3   OH266169   2.977   0.560  11.417  0.8055  0.6645  0.2862
14893TIP3    H166170   2.947   0.594  11.333  0.2732  0.1723  0.2685
14893TIP3    H266171   2.991   0.466  11.401 -0.6525  0.2757  1.0828
14894TIP3   OH266172   1.442   4.284   3.189 -0.7117  0.4990  0.3715
14894TIP3    H166173   1.414   4.374   3.208 -1.6115 -0.0373  1.7816
14894TIP3    H266174   1.534   4.293   3.162 -0.5931  1.7971  1.0856
14895TIP3   OH266175   4.449   4.818  11.703 -0.0153  0.3402  0.0025
14895TIP3    H166176   4.384   4.862  11.757  0.0057  2.2997 -1.4792
14895TIP3    H266177   4.443   4.726  11.729 -1.8328  0.7996  1.4232
14896TIP3   OH266178   3.741   2.470   4.187 -0.8034  0.4906  0.1254
14896TIP3    H166179   3.696   2.534   4.132 -3.2450  0.3737  1.8196
14896TIP3    H266180   3.679   2.398   4.197 -0.2435  0.2402  2.4901
14897TIP3   OH266181   0.327   5.744  12.923 -0.5364  0.1582 -0.2385
14897TIP3    H166182   0.296   5.661  12.960  0.7951  0.2819  1.2693
14897TIP3    H266183   0.421   5.731  12.912 -0.7153  0.5350 -2.6368
14898TIP3   OH266184   5.294   2.156  11.918 -0.3883  0.3671  0.7827
14898TIP3    H166185   5.264   2.198  11.838  0.6128 -1.5611 -0.7043
14898TIP3    H266186   5.335   2.227  11.968 -1.7829  1.7784  0.0115
14899TIP3   OH266187   2.707   3.957   0.536  0.4953 -0.3039 -0.3397
14899TIP3    H166188   2.802   3.968   0.539  0.7944 -2.4694  0.7780
14899TIP3    H266189   2.689   3.924   0.448  0.7969  0.0790 -0.5434
14900TIP3   OH266190   6.076   1.646   2.933 -0.0662 -0.1998 -0.1787
14900TIP3    H166191   6.049   1.555   2.945 -0.4163 -0.3167 -1.6115
14900TIP3    H266192   6.012   1.697   2.983  0.6084 -0.7681  1.2836
14901TIP3   OH266193   3.551   4.121  12.880  0.0560  0.1221 -0.5136
14901TIP3    H166194   3.574   4.040  12.927 -0.8449 -0.8156 -1.6318
14901TIP3    H266195   3.456   4.115  12.867  0.1089  0.9663 -1.3540
14902TIP3   OH266196   3.925   4.800  13.433  0.3871  0.5925  0.1292
14902TIP3    H166197   3.965   4.734  13.376  4.5480  0.3101  2.9114
14902TIP3    H266198   3.844   4.759  13.463  0.0529 -0.8318 -2.4930
14903TIP3   OH266199   1.961   3.493  16.763  0.1903  0.0416 -0.2469
14903TIP3    H166200   2.049   3.530  16.775  0.0526  0.8456 -1.5159
14903TIP3    H266201   1.904   3.551  16.814 -0.0594  1.8450 -2.4534
14904TIP3   OH266202   0.702   4.151   4.583 -0.6105  0.1441 -0.0678
14904TIP3    H166203   0.607   4.156   4.567 -0.4953 -1.7473 -1.6683
14904TIP3    H266204   0.739   4.117   4.502  1.4829  0.8303  0.5289
14905TIP3   OH266205   0.183   5.985   1.069 -0.6725  0.6572  0.7414
14905TIP3    H166206   0.232   5.916   1.114  1.3399  1.6798  0.2114
14905TIP3    H266207   0.183   6.059   1.130  0.2671  1.3528 -0.0694
14906TIP3   OH266208   4.367   2.140   3.837 -1.1073  0.1149  0.2034
14906TIP3    H166209   4.347   2.080   3.765 -0.8499 -1.8743  1.7123
14906TIP3    H266210   4.282   2.173   3.865 -1.0979  2.2783 -2.0624
14907TIP3   OH266211   2.439   2.859   3.836  0.0607  0.5857  0.0700
14907TIP3    H166212   2.430   2.912   3.757 -0.7136 -0.7939 -0.8255
14907TIP3    H266213   2.359   2.877   3.886  0.4548  1.3034  0.4549
14908TIP3   OH266214   5.731   1.847   0.332 -0.1821  0.4587  0.2999
14908TIP3    H166215   5.811   1.807   0.299 -0.7299  0.4398 -1.1130
14908TIP3    H266216   5.676   1.773   0.360  0.6053  0.5160  2.1096
14909TIP3   OH266217   5.978   5.776   4.898 -0.1060  0.0800 -0.2009
14909TIP3    H166218   5.962   5.778   4.804 -1.1420 -0.0577 -0.0449
14909TIP3    H266219   5.901   5.820   4.936 -0.5593 -1.3888  0.6662
14910TIP3   OH266220   4.869   0.898   2.342  0.0492 -0.0659 -0.1159
14910TIP3    H166221   4.857   0.988   2.311 -1.9912 -1.0340 -2.5305
14910TIP3    H266222   4.857   0.844   2.263 -0.2597 -2.5240  1.5147
14911TIP3   OH266223   6.525   3.770   2.467  0.7945  0.6963 -0.0775
14911TIP3    H166224   6.603   3.759   2.412  0.8099 -0.8585  0.2106
14911TIP3    H266225   6.477   3.688   2.457 -1.4756  2.0694 -1.2180
14912TIP3   OH266226   5.889   5.702   0.460  0.3369  0.2163  0.0316
14912TIP3    H166227   5.806   5.654   0.451  1.0836 -1.5970  1.8164
14912TIP3    H266228   5.948   5.638   0.501  1.4122  2.6804  2.6335
14913TIP3   OH266229   1.362   2.825  15.373  0.2573 -0.1023  0.6575
14913TIP3    H166230   1.364   2.769  15.295  0.6885  0.9211 -0.0878
14913TIP3    H266231   1.455   2.842  15.392  0.1256  1.1445  0.2732
14914TIP3   OH266232   1.029   3.472  12.020  0.3051  0.3956 -0.4620
14914TIP3    H166233   1.043   3.447  11.929 -2.0982 -0.6501 -0.6186
14914TIP3    H266234   0.934   3.465  12.033  0.6357 -0.2551  2.3349
14915TIP3   OH266235   2.413   3.815   1.324  0.3782 -0.6615 -0.0053
14915TIP3    H166236   2.355   3.867   1.379  0.6494  1.0226 -1.2488
14915TIP3    H266237   2.363   3.798   1.244  1.4915  0.7088 -1.0432
14916TIP3   OH266238   3.418   4.948   1.567 -0.1790 -0.2214 -0.7802
14916TIP3    H166239   3.411   4.924   1.475 -1.0774  0.5222 -0.9119
14916TIP3    H266240   3.461   4.872   1.608 -0.2529 -0.7748 -1.7067
14917TIP3   OH266241   5.909   2.802   1.508  0.1674  0.2215  0.2960
14917TIP3    H166242   5.997   2.764   1.503 -0.0419 -0.2928  0.5435
14917TIP3    H266243   5.861   2.760   1.437  0.8454  2.4649 -1.6446
14918TIP3   OH266244   6.414   6.488   3.636 -0.3138 -0.0605 -0.5716
14918TIP3    H166245   6.455   6.575   3.633  0.8804 -0.4404  1.9663
14918TIP3    H266246   6.320   6.506   3.627  0.0448  1.2224 -2.3951
14919TIP3   OH266247   2.652   3.092   6.511 -0.0571 -0.1243  0.0905
14919TIP3    H166248   2.610   3.176   6.533 -0.9662 -0.4802 -0.2442
14919TIP3    H266249   2.597   3.026   6.554  0.3737 -0.5757 -0.0508
14920TIP3   OH266250   1.993   1.966   2.628  0.7900  0.0839  0.3903
14920TIP3    H166251   1.958   2.042   2.579 -0.0878 -1.1862 -1.0532
14920TIP3    H266252   2.057   2.004   2.688  0.3032  1.9866 -0.2053
14921TIP3   OH266253   4.611   1.559   5.520 -0.1930  0.1368  0.2689
14921TIP3    H166254   4.516   1.548   5.527 -0.0356 -0.6990  1.3362
14921TIP3    H266255   4.625   1.651   5.541 -0.8402  0.5473 -0.9627
14922TIP3   OH266256   2.479   2.917   4.203 -0.0261  0.6277  0.8337
14922TIP3    H166257   2.541   2.846   4.218 -1.4474 -0.6078  1.2382
14922TIP3    H266258   2.503   2.954   4.119 -1.2179 -2.6130 -1.1164
14923TIP3   OH266259   2.493   0.314   1.263 -0.2159 -0.1389  0.2341
14923TIP3    H166260   2.523   0.224   1.278 -0.3232 -0.3458 -0.7707
14923TIP3    H266261   2.402   0.304   1.237  0.4448  0.0266 -2.4410
14924TIP3   OH266262   0.605   6.447  11.736  0.1212 -1.1278 -0.6894
14924TIP3    H166263   0.596   6.440  11.641  0.1404 -0.6553 -0.7310
14924TIP3    H266264   0.678   6.507  11.748 -0.9410  0.1602 -0.3980
14925TIP3   OH266265   2.210   3.934  13.405  0.2713 -0.3900  0.1394
14925TIP3    H166266   2.127   3.919  13.359 -0.7355  0.2272  1.6602
14925TIP3    H266267   2.202   4.022  13.440  2.6249  0.6550 -1.7074
14926TIP3   OH266268   0.359   5.339  14.274 -0.2473  0.5088  0.3819
14926TIP3    H166269   0.335   5.272  14.337 -0.9522  0.5652  0.1875
14926TIP3    H266270   0.275   5.377  14.247  0.0947  0.9695 -0.0485
14927TIP3   OH266271   5.452   5.934  15.547  0.3992 -0.2782  0.2418
14927TIP3    H166272   5.506   6.002  15.507 -0.0312 -0.1879 -0.1929
14927TIP3    H266273   5.390   5.981  15.602  0.9952 -0.4014  1.0470
14928TIP3   OH266274   5.610   1.484  15.302 -0.4152 -0.3723  0.9037
14928TIP3    H166275   5.688   1.519  15.259  0.1485 -1.4706  0.9863
14928TIP3    H266276   5.628   1.494  15.396 -0.9672  0.5864  0.9253
14929TIP3   OH266277   2.082   6.471   6.121  0.3199 -0.3415 -0.5938
14929TIP3    H166278   2.072   6.548   6.176  0.9716 -0.9358  0.4030
14929TIP3    H266279   2.062   6.397   6.180 -2.9614 -0.9048 -2.1425
14930TIP3   OH266280   3.547   3.645  16.638 -0.0683  0.0509 -0.5360
14930TIP3    H166281   3.507   3.623  16.721 -0.2093  0.5705 -0.4653
14930TIP3    H266282   3.621   3.584  16.630  0.3878  0.4742  0.3092
14931TIP3   OH266283   4.235   6.816   6.735  0.6424  0.1635 -0.3400
14931TIP3    H166284   4.250   6.747   6.670  0.8706  1.1514 -1.3645
14931TIP3    H266285   4.140   6.828   6.734  0.5519 -0.4464  0.1853
14932TIP3   OH266286   1.103   1.005  11.214  0.1754 -0.0283 -0.4670
14932TIP3    H166287   1.055   1.067  11.159 -0.0914 -0.7019 -1.0125
14932TIP3    H266288   1.133   0.937  11.152  0.4578 -0.4406  0.1153
14933TIP3   OH266289   1.138   2.184  16.177 -0.1758 -0.2649  0.1095
14933TIP3    H166290   1.215   2.224  16.136  0.3370 -0.9166  0.4021
14933TIP3    H266291   1.173   2.138  16.254 -0.3685 -2.9809 -1.2848
14934TIP3   OH266292   6.135   6.659   1.192  0.5524  0.4872 -0.1449
14934TIP3    H166293   6.059   6.712   1.166  0.3436  0.9104  1.2342
14934TIP3    H266294   6.100   6.571   1.206 -0.0563  0.9935  1.9624
14935TIP3   OH266295   1.350   5.124  15.736 -0.6878  0.5723  0.2810
14935TIP3    H166296   1.401   5.044  15.735 -0.0924  0.9431  0.3254
14935TIP3    H266297   1.384   5.174  15.810  0.8035  2.0008 -1.2534
14936TIP3   OH266298   4.155   1.362  11.712  0.1867  0.1229  0.3075
14936TIP3    H166299   4.225   1.319  11.760 -1.5177 -1.1991  1.7703
14936TIP3    H266300   4.170   1.455  11.725  2.2413 -0.0678 -0.3547
14937TIP3   OH266301   2.166   0.324  16.396  0.0968 -0.1427 -0.3134
14937TIP3    H166302   2.207   0.392  16.342 -1.5628  0.6652 -0.6368
14937TIP3    H266303   2.112   0.274  16.334 -0.5846 -0.2144  0.3232
14938TIP3   OH266304   5.805   4.541   0.265 -0.6309 -0.1650 -0.7361
14938TIP3    H166305   5.858   4.616   0.237 -1.8602  0.5201 -1.3117
14938TIP3    H266306   5.830   4.526   0.356  3.0041 -2.0210 -1.8210
14939TIP3   OH266307   2.890   2.752   2.613 -0.5001  0.5627  0.1397
14939TIP3    H166308   2.869   2.750   2.520  0.0086  1.5356 -0.0044
14939TIP3    H266309   2.917   2.842   2.630  0.1215  0.2184  1.0734
14940TIP3   OH266310   4.947   3.194   2.925  0.4847  0.4448  0.4487
14940TIP3    H166311   4.949   3.158   3.013 -0.5182  0.5305  0.5159
14940TIP3    H266312   4.952   3.288   2.937  1.1867  0.4263  0.3632
14941TIP3   OH266313   5.342   4.274  13.007  0.5203 -0.2460 -0.0523
14941TIP3    H166314   5.297   4.345  13.053  0.6805 -0.3124  0.2083
14941TIP3    H266315   5.352   4.307  12.917  0.1653 -0.1371 -0.0540
14942TIP3   OH266316   3.624   3.947  17.116  0.3614  0.3438  0.4759
14942TIP3    H166317   3.591   4.037  17.111 -1.1409 -0.2273 -0.3632
14942TIP3    H266318   3.644   3.924  17.026  1.1211 -0.0443  0.7363
14943TIP3   OH266319   4.324   3.137  11.479  0.0533 -0.1625  0.2000
14943TIP3    H166320   4.254   3.105  11.422  0.8704  1.3787 -1.7886
14943TIP3    H266321   4.278   3.170  11.557 -1.2775 -0.5926 -0.3739
14944TIP3   OH266322   5.134   5.474  13.693 -0.0356 -0.4940  0.5721
14944TIP3    H166323   5.073   5.457  13.622  1.2683 -0.3195 -0.6427
14944TIP3    H266324   5.123   5.566  13.714 -0.6174 -0.6115  0.8024
14945TIP3   OH266325   1.602   1.828   5.983 -0.2952  0.0657  0.0516
14945TIP3    H166326   1.603   1.862   5.893  1.6966  1.3754  0.5136
14945TIP3    H266327   1.622   1.904   6.038  1.6232 -1.2882  1.3504
14946TIP3   OH266328   5.136   5.429  16.628  0.0225  0.0839 -0.3873
14946TIP3    H166329   5.117   5.378  16.549 -1.4911 -2.8579  1.6997
14946TIP3    H266330   5.071   5.499  16.627  0.3536  0.4042 -1.9679
14947TIP3   OH266331   0.570   6.020   3.676  0.5560  0.2672  0.1277
14947TIP3    H166332   0.654   6.042   3.716  1.0318 -2.1063  0.5239
14947TIP3    H266333   0.512   6.004   3.750  0.4623 -0.6295 -0.1378
14948TIP3   OH266334   6.128   0.470  14.441 -0.3360  0.1979 -0.5577
14948TIP3    H166335   6.127   0.530  14.516 -0.5854  0.2032 -0.5664
14948TIP3    H266336   6.036   0.456  14.419 -0.2705  0.0329 -0.7343
14949TIP3   OH266337   1.190   2.971   4.857  0.1040  0.0017  0.6047
14949TIP3    H166338   1.213   2.902   4.795  1.4302  1.9317 -1.2082
14949TIP3    H266339   1.095   2.962   4.868 -0.0115 -1.0363 -0.9494
14950TIP3   OH266340   2.121   2.112   3.368  0.7674  0.0699  0.5352
14950TIP3    H166341   2.088   2.095   3.456 -0.5755 -0.0542  0.0338
14950TIP3    H266342   2.149   2.204   3.370 -0.3425  0.4224  0.7904
14951TIP3   OH266343   4.835   6.101  13.810  0.8399  0.0907 -0.7044
14951TIP3    H166344   4.921   6.105  13.769  0.2074 -0.2324 -2.1143
14951TIP3    H266345   4.776   6.142  13.747 -0.0871  0.1037  0.1379
14952TIP3   OH266346   0.583   3.579   4.817  0.0463  0.1818  0.1263
14952TIP3    H166347   0.549   3.578   4.907 -1.1348 -0.9252 -0.2913
14952TIP3    H266348   0.673   3.549   4.825  0.3175  1.2053  1.0610
14953TIP3   OH266349   2.850   0.031  16.578 -0.0061  0.1294  0.3015
14953TIP3    H166350   2.879   0.120  16.598  3.1112 -0.9394  1.0804
14953TIP3    H266351   2.896   0.009  16.497 -0.5604 -0.8642  0.2447
14954TIP3   OH266352   0.240   3.006   2.371 -0.5657  0.3327  0.1641
14954TIP3    H166353   0.213   2.977   2.284  1.3038 -0.2034 -0.2774
14954TIP3    H266354   0.318   3.059   2.355 -0.4833  0.6386  1.4812
14955TIP3   OH266355   1.573   5.854  12.978  0.2068 -0.2743  0.2183
14955TIP3    H166356   1.654   5.842  12.928  0.9159 -0.1525  1.2959
14955TIP3    H266357   1.523   5.774  12.963  0.1239  0.0017 -1.1429
14956TIP3   OH266358   3.791   0.260   0.890  0.0302 -0.7201  0.3295
14956TIP3    H166359   3.847   0.329   0.853 -1.2511 -0.5512 -1.4715
14956TIP3    H266360   3.851   0.188   0.910  1.1474  0.2130  0.4407
14957TIP3   OH266361   1.615   1.266  12.406 -0.3761 -0.5041 -0.2358
14957TIP3    H166362   1.551   1.251  12.475 -1.2126  1.7275 -0.4587
14957TIP3    H266363   1.566   1.258  12.325 -0.4884  1.4901 -0.4027
14958TIP3   OH266364   0.907   5.351   6.329  0.2751 -0.0438 -0.1653
14958TIP3    H166365   0.813   5.369   6.330  0.4119  0.8641  1.3585
14958TIP3    H266366   0.947   5.434   6.302  0.6532 -0.2939 -0.3879
14959TIP3   OH266367   1.937   1.585   0.195 -0.1884 -0.1262  0.1267
14959TIP3    H166368   1.955   1.586   0.100  3.7052  0.4209  0.6952
14959TIP3    H266369   1.968   1.670   0.226  0.5842 -1.0702  2.1377
14960TIP3   OH266370   0.036   3.310  14.358 -0.2099 -0.4168  0.3179
14960TIP3    H166371   0.078   3.274  14.436 -1.5245 -0.6877  0.9179
14960TIP3    H266372  -0.004   3.392  14.388 -0.4245 -0.3416 -0.1634
14961TIP3   OH266373   0.525   3.851   0.333 -0.2790  0.2286  0.0984
14961TIP3    H166374   0.538   3.911   0.259 -1.3424  0.3796  0.0184
14961TIP3    H266375   0.526   3.908   0.410 -1.2481  0.3670  0.0255
14962TIP3   OH266376   4.887   5.355  16.828 -0.3105 -0.2509 -0.6573
14962TIP3    H166377   4.963   5.371  16.883 -2.5223 -0.3018  2.7319
14962TIP3    H266378   4.896   5.264  16.799  1.6342  0.2340 -1.7051
14963TIP3   OH266379   1.829   4.940   0.527  0.2625  0.0486 -0.7521
14963TIP3    H166380   1.850   4.946   0.620 -0.8564 -1.1361 -0.3945
14963TIP3    H266381   1.860   4.854   0.501 -1.0596 -0.3634 -1.0175
14964TIP3   OH266382   1.189   6.421   4.180 -0.1102  0.5248  0.6394
14964TIP3    H166383   1.154   6.473   4.108 -0.6345  0.5044  0.8757
14964TIP3    H266384   1.176   6.330   4.152  0.1231  0.5185  0.5516
14965TIP3   OH266385   5.318   1.060  16.425 -0.5771  0.2542  0.1615
14965TIP3    H166386   5.357   0.983  16.465  1.3997  0.2308 -1.6354
14965TIP3    H266387   5.353   1.134  16.475  0.2858  0.1186 -0.2140
14966TIP3   OH266388   0.585   3.854   4.947 -0.0098  0.2888 -0.2668
14966TIP3    H166389   0.557   3.773   4.904  1.0371  1.2113 -2.9204
14966TIP3    H266390   0.681   3.853   4.938 -0.0328  2.1945 -1.1607
14967TIP3   OH266391   5.484   5.341   0.740 -0.3012 -0.3963 -0.5853
14967TIP3    H166392   5.425   5.289   0.685 -2.0753  1.4725 -0.5701
14967TIP3    H266393   5.430   5.367   0.815  0.8872  0.4138  0.0121
14968TIP3   OH266394   5.836   0.291   1.708 -0.1692  0.2161  0.4524
14968TIP3    H166395   5.915   0.346   1.709  0.2113 -0.2358 -1.1847
14968TIP3    H266396   5.868   0.202   1.722 -0.0903 -0.2190 -2.0290
14969TIP3   OH266397   1.284   2.960   3.304  0.0219 -0.0552 -0.2106
14969TIP3    H166398   1.215   2.913   3.350  0.9943 -1.1843  0.1491
14969TIP3    H266399   1.293   3.043   3.351  1.7374 -1.6106  2.4155
14970TIP3   OH266400   1.377   0.076  11.212  0.4866  0.0064  0.1752
14970TIP3    H166401   1.377   0.094  11.117  1.1091  0.5515  0.2681
14970TIP3    H266402   1.449   0.129  11.246  0.6663 -0.6784  0.8715
14971TIP3   OH266403   5.840   3.802  12.322  0.3992 -0.2465  0.2700
14971TIP3    H166404   5.782   3.815  12.247 -0.3707 -1.7958  0.5398
14971TIP3    H266405   5.928   3.808  12.286  0.0369 -1.0338 -0.7947
14972TIP3   OH266406   4.286   2.437   0.369  0.0625  0.0366 -0.2213
14972TIP3    H166407   4.298   2.343   0.357  0.6369 -0.2739  2.3873
14972TIP3    H266408   4.214   2.445   0.431  0.7732  1.2743  0.4820
14973TIP3   OH266409   0.314   6.456  13.222 -0.5089 -0.4391  0.3321
14973TIP3    H166410   0.385   6.421  13.169 -0.5831  0.3107 -0.2816
14973TIP3    H266411   0.238   6.402  13.200 -1.2684  1.5500 -2.5334
14974TIP3   OH266412   3.030   3.368  14.153 -0.2075  0.0034 -0.3556
14974TIP3    H166413   2.992   3.444  14.110 -0.4730  0.0826  0.0098
14974TIP3    H266414   3.090   3.405  14.218 -1.0670 -0.0562  0.5079
14975TIP3   OH266415   2.927   4.500  15.493 -0.1995 -0.0342 -0.5649
14975TIP3    H166416   3.006   4.554  15.485  0.0650 -0.2835  0.2662
14975TIP3    H266417   2.930   4.466  15.582 -0.2629 -1.5599 -1.1138
14976TIP3   OH266418   2.951   0.039  13.029 -0.1896  0.1369  0.1596
14976TIP3    H166419   2.916  -0.006  12.953  1.8959  0.4673 -1.0724
14976TIP3    H266420   3.045   0.021  13.027 -0.0550  0.1371  2.6880
14977TIP3   OH266421   4.241   5.773   4.765 -0.5193  0.0530  0.1884
14977TIP3    H166422   4.296   5.769   4.687 -0.9601  0.5628 -0.1534
14977TIP3    H266423   4.158   5.809   4.734 -0.2906  1.4435  1.1144
14978TIP3   OH266424   2.644   5.409   0.210  0.5940 -0.1855  0.4916
14978TIP3    H166425   2.608   5.332   0.254  1.3608 -0.1167  1.2666
14978TIP3    H266426   2.703   5.374   0.143  0.0745 -0.2793  0.0777
14979TIP3   OH266427   2.067   1.506  14.476  0.2098  0.1730 -0.6086
14979TIP3    H166428   2.043   1.442  14.409 -1.1005 -0.8288  0.7652
14979TIP3    H266429   2.010   1.581  14.459  0.8481  0.4880 -1.4317
14980TIP3   OH266430   3.857   2.078   1.941 -0.0912  0.3325 -0.1134
14980TIP3    H166431   3.829   2.168   1.926 -0.3094  0.4725  1.0900
14980TIP3    H266432   3.820   2.054   2.026 -1.2332 -1.3717 -1.0151
14981TIP3   OH266433   6.756   3.860  13.211 -0.4823 -0.3875  0.2239
14981TIP3    H166434   6.781   3.767  13.210  0.1327 -0.2492  1.4684
14981TIP3    H266435   6.666   3.860  13.176 -0.6619 -1.5073  0.6214
14982TIP3   OH266436   1.150   0.065  14.008  0.3736 -0.0994 -0.1392
14982TIP3    H166437   1.225   0.006  14.021 -0.0720 -0.5001  0.7214
14982TIP3    H266438   1.189   0.151  13.994  1.1131 -0.8129 -3.1100
14983TIP3   OH266439   4.925   0.550   3.065  0.0780  0.7471 -0.2635
14983TIP3    H166440   5.000   0.578   3.013 -0.2974 -1.9870 -2.5350
14983TIP3    H266441   4.870   0.501   3.004 -2.0266 -0.0044  2.0320
14984TIP3   OH266442   6.490   4.598   3.736  0.1104  0.6248 -0.3625
14984TIP3    H166443   6.478   4.652   3.814  0.2269  1.2476 -0.7702
14984TIP3    H266444   6.542   4.524   3.766 -1.0348  0.1314  0.4637
14985TIP3   OH266445   5.414   5.791  12.763  0.9664 -0.1855  0.4838
14985TIP3    H166446   5.458   5.856  12.707  1.0253 -1.5587 -1.1709
14985TIP3    H266447   5.471   5.714  12.758 -0.3236 -1.1593  0.4006
14986TIP3   OH266448   1.120   1.782  13.615  0.3705 -0.5572  0.3782
14986TIP3    H166449   1.177   1.857  13.600  0.5210 -0.8196 -0.4318
14986TIP3    H266450   1.102   1.748  13.527 -0.7170 -0.7121  0.6561
14987TIP3   OH266451   1.519   0.307   3.482 -0.4738 -0.0083 -0.3612
14987TIP3    H166452   1.456   0.239   3.504 -0.4310 -0.1222 -0.5883
14987TIP3    H266453   1.520   0.364   3.558 -0.9914  0.1014 -0.4318
14988TIP3   OH266454   0.249   6.784   6.346 -0.8214 -0.2528 -0.0947
14988TIP3    H166455   0.254   6.757   6.438 -0.0098  2.0357  0.6106
14988TIP3    H266456   0.300   6.718   6.300 -1.0573 -1.3344  1.1201
14989TIP3   OH266457   0.219   1.882  13.152  0.0089 -0.4080 -0.1368
14989TIP3    H166458   0.134   1.913  13.185  0.4764  0.0119  0.6953
14989TIP3    H266459   0.279   1.896  13.224  0.3427 -2.9095  0.1367
14990TIP3   OH266460   0.354   6.275  17.163 -0.0019 -0.2587  0.8176
14990TIP3    H166461   0.277   6.329  17.149 -0.5570 -1.1626  0.2715
14990TIP3    H266462   0.402   6.280  17.080  1.5004  1.7402  1.7232
14991TIP3   OH266463   3.196   6.791  13.351 -0.0283 -0.4945  0.5744
14991TIP3    H166464   3.165   6.849  13.420 -1.4288 -1.2141  0.5851
14991TIP3    H266465   3.210   6.848  13.276  2.2027  0.4199  1.5875
14992TIP3   OH266466   3.518   4.844  15.340  0.3363 -0.3266 -0.1050
14992TIP3    H166467   3.532   4.822  15.432  0.3634  0.6712  0.1412
14992TIP3    H266468   3.604   4.868  15.308  0.0430  1.0457  0.0931
14993TIP3   OH266469   6.047   6.030  15.109 -0.5673  0.4220 -0.1925
14993TIP3    H166470   5.954   6.028  15.130 -0.6620  0.6685 -0.5834
14993TIP3    H266471   6.062   5.951  15.057  0.0262 -1.1535  2.2226
14994TIP3   OH266472   0.506   4.794   0.174 -0.6107 -0.1335 -0.3490
14994TIP3    H166473   0.413   4.789   0.152 -0.3686 -0.4339 -1.3862
14994TIP3    H266474   0.535   4.703   0.180 -0.6735 -0.0717  1.3996
14995TIP3   OH266475   0.892   1.207  14.486 -0.5082 -0.4446  0.5640
14995TIP3    H166476   0.921   1.295  14.510 -1.0958  0.0794 -0.5925
14995TIP3    H266477   0.887   1.208  14.391 -1.7612 -1.3276  0.5913
14996TIP3   OH266478   4.737   4.238   4.073  0.4062 -0.4570 -0.5192
14996TIP3    H166479   4.688   4.273   3.998 -1.9885 -0.0573  1.1192
14996TIP3    H266480   4.669   4.210   4.134  2.1816  0.9837  2.3150
14997TIP3   OH266481   0.954   0.521  15.053  0.0556 -0.0130  0.1085
14997TIP3    H166482   0.940   0.443  15.107  0.0026 -0.9898 -1.2632
14997TIP3    H266483   1.028   0.566  15.095  1.1831 -1.6756  0.0071
14998TIP3   OH266484   3.662   5.896   4.334  0.8624  0.4273 -0.1113
14998TIP3    H166485   3.634   5.842   4.259  1.5979  0.0308 -0.1143
14998TIP3    H266486   3.665   5.834   4.407 -1.4733  1.1450  0.6592
14999TIP3   OH266487   2.193   3.282   0.954 -0.2533  0.5230 -0.2505
14999TIP3    H166488   2.177   3.190   0.937  0.3795  0.6645 -1.8238
14999TIP3    H266489   2.107   3.323   0.953 -0.4296  0.1506 -1.0365
15000TIP3   OH266490   6.597   4.477   2.738 -0.3226  0.2337  0.7524
15000TIP3    H166491   6.678   4.526   2.753 -1.8686  3.1636  0.3726
15000TIP3    H266492   6.543   4.497   2.814 -2.0717  1.5663 -0.7637
15001TIP3   OH266493   3.751   1.844   2.404 -0.3132 -0.3504  0.5976
15001TIP3    H166494   3.716   1.886   2.482  0.5419  0.3281  0.6337
15001TIP3    H266495   3.846   1.841   2.418 -0.0694  0.4006 -0.6827
15002TIP3   OH266496   0.240   4.490   0.713  0.3668 -0.2827 -0.0780
15002TIP3    H166497   0.289   4.421   0.668 -0.9569 -0.3183 -1.5538
15002TIP3    H266498   0.297   4.567   0.706  0.3062 -0.3472 -1.6840
15003TIP3   OH266499   1.350   2.215   3.356 -0.5008  0.0144  0.2302
15003TIP3    H166500   1.314   2.217   3.267  0.7161  0.0468 -0.2795
15003TIP3    H266501   1.381   2.125   3.367 -1.1428 -0.1416  0.8398
15004TIP3   OH266502   2.901   2.103  11.740 -0.0836  0.5779  1.1401
15004TIP3    H166503   2.892   2.163  11.814 -1.4607  0.5959  0.9782
15004TIP3    H266504   2.992   2.075  11.743  0.3658  2.0230  1.7239
15005TIP3   OH266505   6.301   4.130  17.081 -0.2788  0.1025 -0.3016
15005TIP3    H166506   6.347   4.213  17.074 -1.0922  0.6520  0.5176
15005TIP3    H266507   6.370   4.064  17.090  0.3703  0.7057 -0.7797
15006TIP3   OH266508   0.597   0.638   3.050 -0.1438 -0.1052 -0.1880
15006TIP3    H166509   0.664   0.573   3.032 -0.9485 -0.8927 -0.4345
15006TIP3    H266510   0.526   0.589   3.091  0.2337  1.0625  1.9995
15007TIP3   OH266511   0.210   2.024   1.932  0.0152 -0.1288  0.2576
15007TIP3    H166512   0.174   1.960   1.870 -0.5301  1.4227 -1.0959
15007TIP3    H266513   0.264   2.082   1.879 -1.7409  2.2383  0.8386
15008TIP3   OH266514   1.509   0.655  16.033  0.3191 -0.3389 -0.3776
15008TIP3    H166515   1.470   0.581  15.986 -0.6357  0.3129 -0.6554
15008TIP3    H266516   1.584   0.681  15.980  0.7851 -1.2153 -0.1731
15009TIP3   OH266517   0.756   3.111   3.323  0.2752 -0.4625  0.0314
15009TIP3    H166518   0.719   3.034   3.279  0.0230 -0.4439  0.2088
15009TIP3    H266519   0.847   3.115   3.292 -0.2612  0.3357 -1.5526
15010TIP3   OH266520   5.905   0.706   3.592 -0.1421 -0.2852  0.0653
15010TIP3    H166521   5.846   0.774   3.625 -0.4567  0.6587 -2.2745
15010TIP3    H266522   5.991   0.749   3.587  0.1283 -0.7442  0.5947
15011TIP3   OH266523   2.535   2.488  12.354  0.3630  0.5476 -0.4844
15011TIP3    H166524   2.598   2.559  12.369  0.8631  0.1205 -0.5493
15011TIP3    H266525   2.485   2.483  12.436  1.8781 -0.5628  0.4308
15012TIP3   OH266526   6.360   2.370   5.751  0.7751 -0.2461  0.0960
15012TIP3    H166527   6.423   2.442   5.754  0.8695 -0.2606 -0.9518
15012TIP3    H266528   6.274   2.413   5.752  0.8261 -0.1406  0.0023
15013TIP3   OH266529   1.922   6.385   0.559 -0.1682  0.5005 -0.3210
15013TIP3    H166530   1.843   6.424   0.596 -0.0966  0.5350 -0.2046
15013TIP3    H266531   1.939   6.436   0.479 -1.0965 -0.4413 -1.1461
15014TIP3   OH266532   6.696   5.614   0.457 -0.0684 -0.0250  0.0214
15014TIP3    H166533   6.632   5.544   0.470  0.5255 -0.3449  1.5308
15014TIP3    H266534   6.706   5.653   0.544  2.1483 -0.3527 -0.0255
15015TIP3   OH266535   0.009   1.296  14.795  0.5772  0.0924 -0.0181
15015TIP3    H166536   0.024   1.386  14.765  1.4198 -0.1468 -0.3714
15015TIP3    H266537   0.096   1.266  14.823  0.1070 -0.2679  1.0795
15016TIP3   OH266538   6.403   2.692   1.757 -0.3341 -0.7055  0.1509
15016TIP3    H166539   6.409   2.778   1.800  2.3398  0.1630 -1.6673
15016TIP3    H266540   6.401   2.629   1.828  0.2521  0.7889  1.5398
15017TIP3   OH266541   2.583   1.353   6.647 -0.2328  0.0907  0.5375
15017TIP3    H166542   2.666   1.338   6.692  1.0403 -2.3225 -2.2952
15017TIP3    H266543   2.570   1.448   6.651  3.6688  0.8296 -0.4915
15018TIP3   OH266544   4.061   1.634  16.876  0.7222 -0.5727  0.2227
15018TIP3    H166545   4.007   1.699  16.920 -1.1177 -0.4595 -2.0438
15018TIP3    H266546   4.056   1.656  16.783  3.6591 -1.3691 -0.2437
15019TIP3   OH266547   4.107   1.948   2.665  0.1487 -0.4059  0.0238
15019TIP3    H166548   4.092   1.954   2.570 -1.6114 -0.3112  0.2781
15019TIP3    H266549   4.111   1.853   2.682 -1.9882 -0.5283  0.1499
15020TIP3   OH266550   1.176   0.046  16.164 -0.4390 -0.0127 -0.3022
15020TIP3    H166551   1.108   0.000  16.212 -1.3990  1.9063  0.2687
15020TIP3    H266552   1.139   0.060  16.077 -0.1342 -0.3521 -0.4881
15021TIP3   OH266553   5.085   5.042  15.928  0.6000 -0.4992 -0.2185
15021TIP3    H166554   5.032   4.991  15.867  1.8714  1.0101 -2.7483
15021TIP3    H266555   5.022   5.081  15.989 -0.7509 -1.8114 -0.7174
15022TIP3   OH266556   2.099   2.288  11.158 -0.3310 -0.4331  0.4716
15022TIP3    H166557   2.140   2.371  11.183  0.4895 -0.5963 -0.2712
15022TIP3    H266558   2.100   2.289  11.062 -2.9990 -0.0032  0.3688
15023TIP3   OH266559   3.264   2.913  16.053  0.2110 -0.1911  0.4990
15023TIP3    H166560   3.174   2.909  16.085  0.7842 -0.9586  2.1173
15023TIP3    H266561   3.292   2.821  16.048  1.1829  0.0660  0.8672
15024TIP3   OH266562   1.850   5.702   4.261  0.0621 -0.4041  0.1058
15024TIP3    H166563   1.898   5.760   4.202 -1.6166  1.4475  0.4355
15024TIP3    H266564   1.907   5.626   4.273  1.2877  0.0451 -2.3158
15025TIP3   OH266565   5.791   6.415   2.838 -0.4404  0.2965  0.3349
15025TIP3    H166566   5.734   6.339   2.850  0.2272 -0.3886 -0.6566
15025TIP3    H266567   5.743   6.472   2.777 -0.9566  0.7012  1.1056
15026TIP3   OH266568   5.985   0.568  13.118 -0.1693  0.2217 -0.0252
15026TIP3    H166569   5.957   0.571  13.026  0.8788  0.8178 -0.3495
15026TIP3    H266570   5.911   0.529  13.164 -1.3578  1.3783 -0.8813
15027TIP3   OH266571   5.564   4.658   4.643 -0.3193  0.2015  0.7126
15027TIP3    H166572   5.485   4.692   4.603 -0.4106  0.6732  1.2790
15027TIP3    H266573   5.627   4.652   4.572 -0.5970  0.6603  0.4269
15028TIP3   OH266574   4.966   0.026  10.994 -0.0337  0.2266  0.6008
15028TIP3    H166575   5.058   0.026  10.965 -0.4997 -2.3375 -1.3010
15028TIP3    H266576   4.950  -0.064  11.022 -1.8857  0.7222  1.2976
15029TIP3   OH266577   4.093   0.895   2.573 -0.3548 -0.4385 -0.3386
15029TIP3    H166578   4.067   0.888   2.665 -0.7233  2.6015 -0.1026
15029TIP3    H266579   4.012   0.914   2.526 -0.0776 -1.3331 -1.2102
15030TIP3   OH266580   4.164   6.686   0.305  0.3173 -0.3829  0.1659
15030TIP3    H166581   4.173   6.643   0.219  0.2085 -0.5432  0.2342
15030TIP3    H266582   4.091   6.747   0.294 -1.8824 -2.6803  1.0375
15031TIP3   OH266583   6.386   6.766  15.754  1.0537 -0.0099 -0.6462
15031TIP3    H166584   6.369   6.673  15.743  0.0649 -0.1071  1.2694
15031TIP3    H266585   6.467   6.771  15.804 -0.3234 -0.0145  1.7539
15032TIP3   OH266586   6.776   3.443  15.374 -0.1924  0.5227  0.0364
15032TIP3    H166587   6.719   3.509  15.334  1.9964  1.7663 -1.2348
15032TIP3    H266588   6.773   3.463  15.468  0.6214  2.6526 -0.3368
15033TIP3   OH266589   3.257   3.025   4.231 -0.0062 -0.2297 -0.1397
15033TIP3    H166590   3.196   3.006   4.159 -0.2040  1.3679 -0.4283
15033TIP3    H266591   3.332   3.067   4.188 -0.8970  2.4288  0.6963
15034TIP3   OH266592   4.536   2.941   4.033  0.3811 -0.2390  0.0937
15034TIP3    H166593   4.459   2.901   4.072 -0.1740  0.7840  0.0704
15034TIP3    H266594   4.584   2.867   3.995 -0.3568 -0.9394  0.4837
15035TIP3   OH266595   0.261   4.663  12.605  0.8766  0.1948 -0.1038
15035TIP3    H166596   0.291   4.753  12.611 -0.9941  0.8729 -0.3646
15035TIP3    H266597   0.211   4.659  12.523 -1.3814 -0.2924  1.1960
15036TIP3   OH266598   0.814   6.670   0.735 -0.4508  0.5800  0.0844
15036TIP3    H166599   0.842   6.691   0.646  3.6354 -1.4709  0.6539
15036TIP3    H266600   0.745   6.605   0.724  1.3185 -1.1090 -1.7065
15037TIP3   OH266601   5.416   5.893  11.734 -0.2321  0.5120 -0.0720
15037TIP3    H166602   5.334   5.869  11.690  0.0658  2.0054 -1.5220
15037TIP3    H266603   5.392   5.897  11.827 -2.0374  1.6567 -0.5188
15038TIP3   OH266604   3.874   0.080  16.878 -0.0062  0.1850  0.1035
15038TIP3    H166605   3.893  -0.014  16.882 -0.0151  0.2112  0.8040
15038TIP3    H266606   3.779   0.086  16.884  0.0666  0.2998  1.4963
15039TIP3   OH266607   4.318   3.215  14.318  0.4608  0.4387  0.9595
15039TIP3    H166608   4.368   3.168  14.251 -0.6214  0.9935 -0.2826
15039TIP3    H266609   4.266   3.147  14.361  1.8900 -0.0740  1.9618
15040TIP3   OH266610   5.613   2.851   0.432  0.0849 -0.5779  0.1664
15040TIP3    H166611   5.554   2.859   0.507 -1.0887 -3.4544 -0.3078
15040TIP3    H266612   5.694   2.816   0.470 -0.3903 -1.6982  0.2136
15041TIP3   OH266613   1.559   4.018  10.757 -0.0895  0.0275 -0.0505
15041TIP3    H166614   1.609   4.100  10.753 -1.0200  0.6325  0.3048
15041TIP3    H266615   1.474   4.041  10.719 -1.1814 -0.1212  2.1322
15042TIP3   OH266616   1.378   6.524  12.555  0.2171 -0.5824 -0.1995
15042TIP3    H166617   1.303   6.491  12.504  0.3724 -0.6003 -0.4170
15042TIP3    H266618   1.447   6.537  12.490  0.4711 -0.7700  0.0320
15043TIP3   OH266619   0.008   2.125   0.641  0.4283 -0.4555 -0.1571
15043TIP3    H166620   0.085   2.086   0.599  0.8951 -0.5576  0.7690
15043TIP3    H266621   0.007   2.087   0.729  0.4466  1.0134  0.5001
15044TIP3   OH266622   2.525   0.491  14.519 -0.0711 -0.0398 -0.0067
15044TIP3    H166623   2.610   0.471  14.558  0.6786 -0.5667 -1.8109
15044TIP3    H266624   2.473   0.412  14.534 -0.0783  0.0775  0.6242
15045TIP3   OH266625   2.272   4.887   1.311  0.2610 -0.6344 -0.1778
15045TIP3    H166626   2.269   4.973   1.351 -1.2158 -0.2945 -0.9549
15045TIP3    H266627   2.334   4.897   1.238 -1.5445  0.4359 -1.6415
15046TIP3   OH266628   3.112   1.918   4.304  0.0351  0.8579 -0.5122
15046TIP3    H166629   3.074   1.927   4.392  2.0287  0.2983  0.4849
15046TIP3    H266630   3.063   1.980   4.250 -3.5989 -1.1905  0.1125
15047TIP3   OH266631   1.048   1.114  11.861 -0.3683 -0.0023 -0.1626
15047TIP3    H166632   0.980   1.048  11.845  0.3767 -0.6895 -0.5413
15047TIP3    H266633   1.001   1.186  11.903 -1.4732 -0.1753 -1.0277
15048TIP3   OH266634   4.989   3.061  11.288 -0.2095  0.1787  0.7423
15048TIP3    H166635   4.978   3.062  11.193  0.7043 -0.0084  0.6218
15048TIP3    H266636   5.074   3.103  11.302 -0.3094  0.1413  1.4707
15049TIP3   OH266637   0.129   4.943  12.259 -0.1801 -0.3307  0.0902
15049TIP3    H166638   0.084   5.027  12.250  0.7474  0.4348  1.9955
15049TIP3    H266639   0.059   4.882  12.285 -0.6637  0.1308 -0.1071
15050TIP3   OH266640   2.461   6.434  16.189  0.3648 -0.2468  0.0579
15050TIP3    H166641   2.457   6.488  16.268  1.9084  0.8572 -0.5821
15050TIP3    H266642   2.400   6.362  16.207  0.4490  0.1244  2.1276
15051TIP3   OH266643   0.747   3.124   5.606  0.2721  0.4728 -0.4563
15051TIP3    H166644   0.691   3.185   5.557  0.2645  0.2097 -0.7817
15051TIP3    H266645   0.760   3.051   5.546 -1.0142 -0.5889  0.4777
15052TIP3   OH266646   1.586   2.631   4.659 -0.2478  0.1421 -0.2064
15052TIP3    H166647   1.544   2.714   4.639 -0.3710  0.0984 -0.1243
15052TIP3    H266648   1.514   2.570   4.674 -0.2379 -0.6586 -2.9110
15053TIP3   OH266649   2.194   2.226  13.114  0.3413  0.0034  0.5535
15053TIP3    H166650   2.233   2.305  13.076 -1.2326  0.7747  0.4578
15053TIP3    H266651   2.239   2.215  13.198  1.1546  0.4982  0.2017
15054TIP3   OH266652   3.695   0.861   2.163  0.1658  0.0407 -0.5891
15054TIP3    H166653   3.693   0.955   2.144 -0.4471  0.0449 -0.5223
15054TIP3    H266654   3.784   0.834   2.141  0.4109  0.6782 -0.4063
15055TIP3   OH266655   2.734   0.599   0.846 -0.1659 -0.2913 -0.0118
15055TIP3    H166656   2.676   0.636   0.913 -0.2236 -0.2039 -0.1090
15055TIP3    H266657   2.733   0.505   0.862 -1.4720 -0.4464 -0.9109
15056TIP3   OH266658   0.990   1.707   2.313 -0.3358  0.1012  0.5059
15056TIP3    H166659   1.015   1.752   2.394 -2.1126  1.8455  0.1680
15056TIP3    H266660   1.009   1.771   2.244  2.5460 -1.8944 -0.7218
15057TIP3   OH266661   4.133   4.467   5.166 -0.2764 -0.2577 -0.3092
15057TIP3    H166662   4.126   4.538   5.230 -1.8156 -0.9969  0.4026
15057TIP3    H266663   4.217   4.425   5.187 -0.9730 -0.8061  1.6441
15058TIP3   OH266664   4.639   2.437  15.228 -0.1842  0.3748  0.1815
15058TIP3    H166665   4.548   2.411  15.243  0.2648  0.2288  3.3387
15058TIP3    H266666   4.634   2.527  15.195 -1.4498  0.0371 -0.6019
15059TIP3   OH266667   3.355   6.128  13.764 -1.0843  0.4476 -0.5056
15059TIP3    H166668   3.377   6.045  13.722 -1.4205  0.3779 -0.5523
15059TIP3    H266669   3.274   6.156  13.721 -0.7444  1.0174 -0.7912
15060TIP3   OH266670   0.672   4.746   4.892  0.2707 -0.0185 -0.3276
15060TIP3    H166671   0.638   4.832   4.866  5.1906  2.6102  0.6189
15060TIP3    H266672   0.628   4.727   4.975 -0.3547  2.0374 -0.1172
15061TIP3   OH266673   2.955   4.023  14.287  0.5649 -0.9334  0.2381
15061TIP3    H166674   2.996   3.937  14.297  1.1795 -0.7018 -0.2117
15061TIP3    H266675   2.913   4.039  14.371 -0.1842 -1.9906  0.0850
15062TIP3   OH266676   1.589   6.115  11.013 -0.0709  0.0963 -0.2404
15062TIP3    H166677   1.634   6.038  10.978  0.1175  0.4871 -0.8722
15062TIP3    H266678   1.542   6.151  10.938 -2.0098 -0.6842  0.5441
15063TIP3   OH266679   5.032   4.881  13.033 -0.5363 -0.3176 -0.2455
15063TIP3    H166680   4.993   4.793  13.031 -1.7394  0.1882  0.4185
15063TIP3    H266681   4.990   4.925  13.106  0.0569  0.8321 -0.5650
15064TIP3   OH266682   6.039   1.083  13.724 -0.5651 -0.3143  0.3624
15064TIP3    H166683   6.024   1.092  13.630  0.5362  0.8972  0.2745
15064TIP3    H266684   6.087   1.000  13.733 -0.0986 -0.1176 -0.2279
15065TIP3   OH266685   4.358   0.367   1.163 -0.1711  0.0821  0.2103
15065TIP3    H166686   4.423   0.335   1.225 -1.4527 -0.0455  1.5615
15065TIP3    H266687   4.380   0.459   1.150  1.0380 -0.2807 -0.3877
15066TIP3   OH266688   6.337   6.588  14.988  0.5759  0.2195 -0.3183
15066TIP3    H166689   6.300   6.527  15.051 -0.4378  0.6310 -0.4895
15066TIP3    H266690   6.340   6.672  15.034 -0.4382  0.5862 -0.8867
15067TIP3   OH266691   1.811   4.287  11.610  0.0115  0.1798  0.6049
15067TIP3    H166692   1.831   4.250  11.524  0.4375  1.5902  0.0662
15067TIP3    H266693   1.851   4.374  11.608 -1.1169  0.7507  1.7400
15068TIP3   OH266694   4.739   6.801   3.752  0.1680 -0.1021 -0.4115
15068TIP3    H166695   4.710   6.713   3.777 -0.5912  0.0109 -0.8588
15068TIP3    H266696   4.665   6.858   3.775  0.7901  0.4760  0.2068
15069TIP3   OH266697   5.141   1.764  15.045  0.1290  0.1301  0.1086
15069TIP3    H166698   5.119   1.857  15.047  0.4931  0.3232 -2.0219
15069TIP3    H266699   5.235   1.760  15.062 -0.0038  0.0830  0.8476
15070TIP3   OH266700   2.501   3.423   2.272  0.7546  0.5720 -0.3758
15070TIP3    H166701   2.437   3.494   2.275  0.3268  0.2031  2.1997
15070TIP3    H266702   2.457   3.352   2.224 -1.3516 -0.0673  2.2408
15071TIP3   OH266703   3.754   3.471   1.686  0.7128  0.0332 -0.2310
15071TIP3    H166704   3.712   3.557   1.676 -0.8826 -0.4920  1.3993
15071TIP3    H266705   3.848   3.489   1.681  0.3898  1.7433 -0.7641
15072TIP3   OH266706   5.969   1.820  16.962 -0.0249  0.6478 -0.1968
15072TIP3    H166707   5.981   1.750  16.898 -0.4544  1.6192 -1.3793
15072TIP3    H266708   6.058   1.846  16.986  0.1704  1.0662 -1.3164
15073TIP3   OH266709   0.986   1.239   1.608 -0.8955 -0.5851 -1.0066
15073TIP3    H166710   0.940   1.317   1.577  0.6176 -0.1319 -2.2189
15073TIP3    H266711   1.079   1.257   1.592 -0.2827 -1.6159  1.0110
15074TIP3   OH266712   2.589   2.095   1.439  0.0448  0.0957  0.0307
15074TIP3    H166713   2.667   2.048   1.468  0.4186  0.6224 -0.1073
15074TIP3    H266714   2.618   2.185   1.426 -1.2151  1.0235  2.8191
15075TIP3   OH266715   4.342   0.949  16.209 -0.3332 -0.0406  0.0694
15075TIP3    H166716   4.405   0.918  16.274  1.5210  1.8021 -0.7234
15075TIP3    H266717   4.278   1.000  16.258 -1.0084 -1.5530  0.8296
15076TIP3   OH266718   4.038   2.103   6.275 -0.4701 -0.1634 -0.2863
15076TIP3    H166719   3.964   2.099   6.214 -1.1363 -0.0696  0.4908
15076TIP3    H266720   4.004   2.153   6.349 -1.1423 -3.7018  2.0650
15077TIP3   OH266721   4.033   5.647  13.331 -0.5509  0.4054 -0.1852
15077TIP3    H166722   4.101   5.627  13.267  1.3707 -1.8479  2.3335
15077TIP3    H266723   3.988   5.563  13.345  0.8866  0.0538  3.2491
15078TIP3   OH266724   2.659   6.056  13.654 -0.3120 -0.0663 -0.6541
15078TIP3    H166725   2.740   6.009  13.675  0.1882  1.7764  2.0132
15078TIP3    H266726   2.596   6.027  13.720 -1.5553 -0.6498 -2.0335
15079TIP3   OH266727   4.459   3.077   2.438 -0.0020  0.1927 -0.5077
15079TIP3    H166728   4.517   3.092   2.513 -1.5927  0.0523  0.8139
15079TIP3    H266729   4.498   3.127   2.367  0.7484  1.5893  0.8204
15080TIP3   OH266730   4.017   0.875   0.062  0.0732  0.1011 -0.3798
15080TIP3    H166731   3.948   0.899  -0.001  0.3734  1.1360 -0.3323
15080TIP3    H266732   4.024   0.780   0.054 -0.3597  0.1395 -1.4264
15081TIP3   OH266733   6.799   4.354   0.753  0.0185  0.0891 -0.0496
15081TIP3    H166734   6.713   4.363   0.796 -1.0932  0.0524 -2.1503
15081TIP3    H266735   6.821   4.443   0.724 -0.7081 -0.3100 -1.9770
15082TIP3   OH266736   1.032   3.840  14.673  0.3630 -0.5107 -0.2311
15082TIP3    H166737   1.040   3.805  14.762 -3.2768  1.0552  0.9253
15082TIP3    H266738   0.973   3.778  14.628  0.8017 -0.3727 -1.0176
15083TIP3   OH266739   5.098   0.664   4.643  0.4618  0.2285 -0.0385
15083TIP3    H166740   5.156   0.596   4.610 -0.1032 -1.5385  2.3079
15083TIP3    H266741   5.122   0.674   4.735 -2.0066  0.4187  0.6696
15084TIP3   OH266742   6.789   0.129  11.939 -0.2688 -0.3197  0.4319
15084TIP3    H166743   6.772   0.193  12.008 -1.0232 -1.4033  1.2982
15084TIP3    H266744   6.782   0.044  11.983  1.4369 -1.0044 -0.5233
15085TIP3   OH266745   4.138   5.846   5.845 -0.1040  0.2538  0.3951
15085TIP3    H166746   4.217   5.805   5.809  0.3600  0.3862  1.2344
15085TIP3    H266747   4.134   5.815   5.936 -0.1053  1.5315  0.8524
15086TIP3   OH266748   4.545   4.455  10.672  0.3434 -0.0315 -0.1439
15086TIP3    H166749   4.539   4.421  10.583 -0.1392  1.5034 -0.7124
15086TIP3    H266750   4.632   4.494  10.677  0.6067 -0.6472  0.2713
15087TIP3   OH266751   1.536   1.082  16.824  0.2006  0.3279 -0.0489
15087TIP3    H166752   1.586   1.086  16.742 -1.0111  0.6491 -0.7970
15087TIP3    H266753   1.550   1.167  16.865  0.8935  0.1312  0.1306
15088TIP3   OH266754   0.379   2.821   4.717 -0.0569  0.3287 -0.0077
15088TIP3    H166755   0.433   2.853   4.789  1.4406 -1.6063 -0.1651
15088TIP3    H266756   0.328   2.750   4.756  0.9280 -0.8824 -0.8173
15089TIP3   OH266757   0.672   2.238   1.360 -0.2461 -0.2816 -0.0792
15089TIP3    H166758   0.590   2.191   1.342  0.8065 -2.0330 -0.5454
15089TIP3    H266759   0.645   2.329   1.374 -2.4884 -1.1245  1.6855
15090TIP3   OH266760   5.276   5.328  12.706 -0.0618  0.1549  0.3970
15090TIP3    H166761   5.329   5.263  12.753  0.1809 -1.0590 -1.4531
15090TIP3    H266762   5.327   5.348  12.628 -1.1280  1.0151 -0.1049
15091TIP3   OH266763   4.294   5.989   1.414 -0.5712 -0.6402  0.3927
15091TIP3    H166764   4.258   5.957   1.331 -2.1355 -1.9367  1.4968
15091TIP3    H266765   4.360   5.925   1.437 -1.7691 -1.6077  1.2499
15092TIP3   OH266766   5.419   3.289  11.646 -0.4212  0.6793 -0.2628
15092TIP3    H166767   5.447   3.273  11.556 -0.3677  0.8600 -0.2786
15092TIP3    H266768   5.446   3.379  11.664 -1.9792  1.2561 -0.6536
15093TIP3   OH266769   6.069   4.375   1.845 -0.2183 -0.2530  0.3218
15093TIP3    H166770   6.069   4.279   1.842  0.2353 -0.2772  1.0422
15093TIP3    H266771   6.126   4.397   1.918 -1.2998  0.5473  0.9484
15094TIP3   OH266772   0.041   2.678   5.670 -0.3988 -0.8683  0.1685
15094TIP3    H166773   0.077   2.724   5.746 -0.8422 -0.3191  0.0455
15094TIP3    H266774  -0.005   2.603   5.708 -3.8098  1.3442  0.8152
15095TIP3   OH266775   1.702   4.925   4.321  0.4351  0.0728 -0.3048
15095TIP3    H166776   1.696   4.839   4.278  1.7446  0.4390 -1.3000
15095TIP3    H266777   1.764   4.974   4.267 -1.3040  2.1494 -0.5563
15096TIP3   OH266778   3.154   2.479   1.387  0.7342 -0.2404 -0.1092
15096TIP3    H166779   3.163   2.475   1.482 -0.1491  1.3911  0.0946
15096TIP3    H266780   3.080   2.421   1.367 -0.0038  0.5136  0.3876
15097TIP3   OH266781   5.667   5.284   2.858  0.7652  0.0502 -0.5382
15097TIP3    H166782   5.649   5.262   2.766  1.9605 -0.5319 -0.6545
15097TIP3    H266783   5.678   5.199   2.901  0.2185  0.3218  0.1560
15098TIP3   OH266784   5.621   1.272  15.536 -0.4007 -0.6639 -0.5852
15098TIP3    H166785   5.619   1.352  15.589 -0.4726 -0.1965 -1.2788
15098TIP3    H266786   5.581   1.298  15.452 -1.1430 -1.6224 -0.5499
15099TIP3   OH266787   0.896   5.888  12.120 -0.1763 -0.2332  0.4480
15099TIP3    H166788   0.886   5.981  12.140 -1.3762 -0.3531  0.4821
15099TIP3    H266789   0.820   5.846  12.160  0.3453 -1.2356  0.4320
15100TIP3   OH266790   5.988   6.810   0.803  0.5810  0.1720  0.2801
15100TIP3    H166791   6.079   6.784   0.814  0.7906  0.9080  0.2970
15100TIP3    H266792   5.959   6.763   0.725  0.8560 -0.3564  0.4874
15101TIP3   OH266793   3.292   2.253   0.131  0.1833 -0.7167  0.0726
15101TIP3    H166794   3.375   2.281   0.171  0.8858 -1.3523 -0.8809
15101TIP3    H266795   3.224   2.294   0.184  1.1248  0.6580  0.2660
15102TIP3   OH266796   2.465   3.693   4.584  0.2248  0.5916 -0.5881
15102TIP3    H166797   2.470   3.716   4.492  1.3605 -0.0848 -0.7238
15102TIP3    H266798   2.428   3.605   4.585  0.0250  0.6771 -0.3813
15103TIP3   OH266799   5.366   3.925  14.175 -0.1108  0.2733  0.0746
15103TIP3    H166800   5.433   3.892  14.235 -1.3309 -2.1412  0.2147
15103TIP3    H266801   5.402   3.909  14.088  0.5905  1.5009  0.1032
15104TIP3   OH266802   6.773   3.009  12.179  0.2334 -0.5744 -0.0591
15104TIP3    H166803   6.732   3.034  12.261 -2.7502 -0.0360 -1.5586
15104TIP3    H266804   6.790   2.915  12.187 -0.2450 -0.5723  1.0462
15105TIP3   OH266805   2.077   5.473  16.425 -0.0194  0.3261 -0.6326
15105TIP3    H166806   2.069   5.565  16.451 -0.7568  0.5565 -1.6263
15105TIP3    H266807   2.012   5.428  16.478  2.2579 -0.1357  1.9933
15106TIP3   OH266808   3.020   0.947  13.561 -0.2337  0.3474  0.0006
15106TIP3    H166809   3.046   0.952  13.469 -1.3710  2.6007 -0.2601
15106TIP3    H266810   3.061   1.023  13.602 -1.6605  0.7208  0.8056
15107TIP3   OH266811   5.620   2.313  11.843  0.4489 -0.3165 -0.0121
15107TIP3    H166812   5.638   2.314  11.936  2.5463 -1.2374 -0.3543
15107TIP3    H266813   5.591   2.402  11.823  0.4117  0.0166  1.4323
15108TIP3   OH266814   6.805   1.032   1.765  0.8309 -0.8082  0.2094
15108TIP3    H166815   6.869   1.104   1.764 -0.8551  0.7581 -0.3582
15108TIP3    H266816   6.766   1.037   1.852  0.9240 -1.2667  0.2795
15109TIP3   OH266817   4.392   4.667  14.491  0.1457 -0.1398 -0.1071
15109TIP3    H166818   4.307   4.673  14.535  0.4466 -1.7985  0.7843
15109TIP3    H266819   4.370   4.650  14.400 -0.5609 -3.0502  0.5103
15110TIP3   OH266820   0.643   1.254  15.799  0.1359  0.4599  0.3032
15110TIP3    H166821   0.719   1.229  15.746 -0.0088  0.3603  0.1429
15110TIP3    H266822   0.568   1.226  15.748 -0.0818  2.3091 -0.4950
15111TIP3   OH266823   5.638   5.499  16.411 -0.0760 -0.8803 -0.0119
15111TIP3    H166824   5.642   5.431  16.344  1.2910 -0.3454 -0.5101
15111TIP3    H266825   5.724   5.495  16.454 -0.1554  0.2080  0.2637
15112TIP3   OH266826   4.190   3.680  10.831  0.7863 -0.4354 -0.7643
15112TIP3    H166827   4.161   3.659  10.920  0.1423  1.0815 -0.5868
15112TIP3    H266828   4.276   3.640  10.824  1.0201 -0.2500  0.6895
15113TIP3   OH266829   3.364   1.965   0.911  0.2615 -0.6365 -0.2140
15113TIP3    H166830   3.387   1.916   0.832 -0.5316  0.7154 -1.3261
15113TIP3    H266831   3.422   2.040   0.910 -0.4107 -0.1033 -0.0543
15114TIP3   OH266832   3.235   6.206   2.246  0.2349 -0.5196 -0.2665
15114TIP3    H166833   3.274   6.169   2.325 -1.8945 -1.3018  0.4982
15114TIP3    H266834   3.181   6.279   2.278 -0.4375 -0.6747 -1.0179
15115TIP3   OH266835   0.251   6.668   0.960 -0.2528  0.3771 -0.2432
15115TIP3    H166836   0.304   6.732   1.007  1.2328 -0.3546 -0.8663
15115TIP3    H266837   0.202   6.623   1.029  2.0178 -0.8080  0.6885
15116TIP3   OH266838   1.226   5.489  11.188  0.1710  0.0326  0.4375
15116TIP3    H166839   1.164   5.548  11.145  1.1802 -0.0616 -1.2395
15116TIP3    H266840   1.172   5.434  11.245 -1.1243  0.7317 -0.0820
15117TIP3   OH266841   6.071   4.790   2.439 -0.0478 -0.6348 -0.0919
15117TIP3    H166842   6.095   4.704   2.473  0.5924 -0.8963 -1.1568
15117TIP3    H266843   6.135   4.850   2.477 -0.3725 -0.6535  0.4922
15118TIP3   OH266844   6.352   3.972  15.037  0.5351 -0.7492  0.0601
15118TIP3    H166845   6.284   4.023  14.993  0.4327 -0.9900 -0.0600
15118TIP3    H266846   6.369   3.899  14.978  0.7493 -0.8028  0.1895
15119TIP3   OH266847   0.744   1.782  11.960  0.3241 -0.0291  0.3802
15119TIP3    H166848   0.833   1.745  11.966 -0.3105 -1.5594  0.8661
15119TIP3    H266849   0.714   1.787  12.051  0.7799  2.8672  0.4719
15120TIP3   OH266850   5.313   2.620   0.959 -0.1886 -0.0401  0.1909
15120TIP3    H166851   5.247   2.632   0.891 -1.6046 -0.9621  1.3132
15120TIP3    H266852   5.319   2.705   1.002 -1.9499 -0.3418  1.1325
15121TIP3   OH266853   1.322   6.636   4.561  0.0625 -0.4995  0.6933
15121TIP3    H166854   1.353   6.714   4.515  0.6202  0.7285  2.9722
15121TIP3    H266855   1.350   6.563   4.507  1.7427  0.8064 -0.2887
15122TIP3   OH266856   2.941   5.212   2.686  0.4602  0.1549 -0.4535
15122TIP3    H166857   2.947   5.203   2.781  0.9243  0.3740 -0.4602
15122TIP3    H266858   2.904   5.300   2.672  0.5309  0.1800 -0.4803
15123TIP3   OH266859   0.213   5.040   1.793  0.0184  0.0978 -0.3348
15123TIP3    H166860   0.155   5.086   1.853  0.1654 -1.8568  1.4274
15123TIP3    H266861   0.154   4.992   1.734 -0.1467 -0.2259  0.0923
15124TIP3   OH266862   3.677   5.141  16.142  0.6148  0.3886  0.2464
15124TIP3    H166863   3.712   5.217  16.094 -0.4093 -0.3487 -1.7832
15124TIP3    H266864   3.585   5.162  16.154  0.5190 -0.1667  0.4786
15125TIP3   OH266865   0.794   4.176  13.169  0.1252 -0.2463 -0.2632
15125TIP3    H166866   0.747   4.245  13.121 -0.3285  0.5466  1.2541
15125TIP3    H266867   0.736   4.100  13.162 -0.2085  0.0218 -0.5026
15126TIP3   OH266868   4.909   5.271   2.125 -0.2701 -0.1006  0.4012
15126TIP3    H166869   4.840   5.241   2.183 -0.1369 -1.2537 -0.0064
15126TIP3    H266870   4.977   5.203   2.131  0.8862  1.0455  0.8715
15127TIP3   OH266871   6.409   3.626  16.066  0.0798 -0.1631  0.9059
15127TIP3    H166872   6.409   3.565  15.992 -3.4035  1.1349 -0.3810
15127TIP3    H266873   6.425   3.711  16.027 -0.8830  0.4327  1.7529
15128TIP3   OH266874   5.881   6.237   1.639  0.2235 -0.2825  0.3775
15128TIP3    H166875   5.801   6.183   1.638 -0.2620  0.1823  3.6738
15128TIP3    H266876   5.952   6.173   1.631 -0.4121 -0.8957 -0.6496
15129TIP3   OH266877   3.539   0.863   5.213  0.6731 -0.4790  0.9517
15129TIP3    H166878   3.578   0.949   5.199  0.2684 -0.2871  0.9727
15129TIP3    H266879   3.455   0.882   5.256  0.5973 -0.8852  0.9860
15130TIP3   OH266880   2.476   3.793  17.248  0.0293  0.4169 -0.0436
15130TIP3    H166881   2.465   3.865  17.185 -1.9236 -0.0630 -0.3160
15130TIP3    H266882   2.568   3.769  17.241  0.8357  3.1129  0.3082
15131TIP3   OH266883   6.215   2.896   5.915 -0.4640  0.2188 -0.0474
15131TIP3    H166884   6.280   2.829   5.894  0.1284  1.0212 -0.9156
15131TIP3    H266885   6.241   2.928   6.001  0.3283  0.5469 -0.3967
15132TIP3   OH266886   4.450   0.863  13.665  0.3891  0.8443  0.4629
15132TIP3    H166887   4.487   0.937  13.617  4.3157 -0.5895  0.8848
15132TIP3    H266888   4.443   0.793  13.600 -2.3359  1.1924  0.2842
15133TIP3   OH266889   4.230   5.481  15.610  0.5104  0.2322  0.1912
15133TIP3    H166890   4.208   5.551  15.549  0.6348 -0.4939 -0.7067
15133TIP3    H266891   4.319   5.456  15.586  0.7678  0.3106  1.0379
15134TIP3   OH266892   4.523   2.221  15.424  0.5636  0.8326 -0.4168
15134TIP3    H166893   4.585   2.174  15.369  2.4709  1.2656  1.2442
15134TIP3    H266894   4.558   2.310  15.429 -2.5261  2.3685 -2.8343
15135TIP3   OH266895   5.341   4.067   5.129  0.1115  0.0317 -0.2428
15135TIP3    H166896   5.370   4.156   5.150  0.7926 -0.1039 -0.5765
15135TIP3    H266897   5.421   4.014   5.135 -0.1784 -0.4555 -0.6258
15136TIP3   OH266898   1.147   3.434  14.919 -0.2849  0.4710  0.7195
15136TIP3    H166899   1.105   3.513  14.953 -0.2204  0.9023 -0.1715
15136TIP3    H266900   1.082   3.365  14.931 -0.2845  0.6251  1.6409
15137TIP3   OH266901   0.912   1.684  16.593 -0.2600  0.1933 -0.1561
15137TIP3    H166902   0.942   1.745  16.526 -2.8693  0.9543 -0.7412
15137TIP3    H266903   0.894   1.603  16.545 -0.7961  0.2944 -0.1258
15138TIP3   OH266904   6.582   3.316  16.698 -0.3886 -0.0846  0.0125
15138TIP3    H166905   6.654   3.379  16.689 -0.1390 -0.3368  0.2293
15138TIP3    H266906   6.564   3.289  16.608 -0.3229  0.1071 -0.0593
15139TIP3   OH266907   5.059   2.045  11.684  0.0064  0.4805 -0.6975
15139TIP3    H166908   5.066   1.988  11.761 -0.2161  1.2176 -0.1239
15139TIP3    H266909   5.094   1.992  11.612 -0.4795 -0.4936 -0.2341
15140TIP3   OH266910   2.373   0.576  11.667 -0.5581  0.1603 -0.0558
15140TIP3    H166911   2.382   0.603  11.758 -0.2899 -0.5683  0.1405
15140TIP3    H266912   2.307   0.506  11.669  0.4694 -0.8306 -0.2144
15141TIP3   OH266913   1.610   2.381   3.645  0.0446 -0.0366  0.2253
15141TIP3    H166914   1.537   2.438   3.671  1.1202  2.2460 -1.4659
15141TIP3    H266915   1.679   2.400   3.707  0.2959  0.2700 -0.1447
15142TIP3   OH266916   5.449   1.885  11.014 -0.0449 -0.0591  0.4826
15142TIP3    H166917   5.520   1.872  10.951 -0.6958 -0.6445 -0.1511
15142TIP3    H266918   5.370   1.856  10.968 -0.6965  0.5540  1.1831
15143TIP3   OH266919   2.247   6.445   6.615 -0.2692  0.0195 -0.1012
15143TIP3    H166920   2.168   6.405   6.578 -0.4392  0.2129  0.0489
15143TIP3    H266921   2.255   6.408   6.702  0.2483 -0.5900 -0.4030
15144TIP3   OH266922   5.864   4.652   1.630  0.1592  0.3817 -0.2219
15144TIP3    H166923   5.809   4.655   1.553  0.9985 -0.5159 -0.8797
15144TIP3    H266924   5.851   4.565   1.667  1.8743 -0.2454 -0.9787
15145TIP3   OH266925   5.132   0.203   1.104  0.1794  0.0722 -0.4074
15145TIP3    H166926   5.164   0.292   1.119  0.2246 -0.1698  1.0274
15145TIP3    H266927   5.037   0.211   1.109  0.2254 -0.2169  1.3879
15146TIP3   OH266928   6.634   2.876  14.917 -0.6057  0.0208  0.0314
15146TIP3    H166929   6.576   2.950  14.898 -0.0561  0.5704  0.4363
15146TIP3    H266930   6.655   2.840  14.831 -0.0734  0.9726 -0.2520
15147TIP3   OH266931   3.208   6.257   3.793 -0.1316  0.2151 -0.4547
15147TIP3    H166932   3.184   6.208   3.714 -1.3887  0.0172  0.0313
15147TIP3    H266933   3.241   6.191   3.853  0.2526  0.2788 -0.5964
15148TIP3   OH266934   6.000   6.053  16.110 -0.3241 -0.2154 -0.7300
15148TIP3    H166935   5.921   6.014  16.147 -1.2200  1.5070 -0.7270
15148TIP3    H266936   5.993   6.146  16.132  1.8052 -0.0417 -0.5790
15149TIP3   OH266937   5.679   2.807  16.989 -0.1868  0.3827  0.3095
15149TIP3    H166938   5.678   2.903  16.996 -5.7116  0.6337  0.6197
15149TIP3    H266939   5.652   2.777  17.076 -0.5512 -1.3316 -0.3594
15150TIP3   OH266940   2.630   3.428  14.376 -0.3010  0.1794  0.0447
15150TIP3    H166941   2.724   3.411  14.367 -0.2503  0.6411 -0.3693
15150TIP3    H266942   2.608   3.401  14.465  0.1499 -0.2695  0.0225
15151TIP3   OH266943   6.557   2.429  16.338  0.7529  0.5439 -0.8906
15151TIP3    H166944   6.605   2.482  16.275  0.5614  1.3258 -0.3819
15151TIP3    H266945   6.541   2.346  16.291  2.3409  0.3568 -1.1727
15152TIP3   OH266946   1.697   2.685  13.199 -0.1107  0.0397  0.2211
15152TIP3    H166947   1.726   2.733  13.122 -0.1483  1.5946  1.1315
15152TIP3    H266948   1.691   2.751  13.268  0.5340 -1.4041  1.7344
15153TIP3   OH266949   0.638   0.234  14.682  0.0924 -0.0378 -0.9085
15153TIP3    H166950   0.616   0.142  14.667  1.0549 -0.2237 -1.2984
15153TIP3    H266951   0.668   0.266  14.597 -0.3941  0.6890 -0.8153
15154TIP3   OH266952   6.422   4.508  13.814 -0.4308  0.4088 -0.2060
15154TIP3    H166953   6.459   4.426  13.849  0.1695  0.9046  0.3333
15154TIP3    H266954   6.497   4.554  13.775 -0.9425  0.2459 -1.4462
15155TIP3   OH266955   0.429   0.919   1.587  0.6029  0.4179 -0.4864
15155TIP3    H166956   0.485   0.874   1.650 -1.0096  0.5545  1.1247
15155TIP3    H266957   0.348   0.869   1.587 -0.0106  1.3811 -1.2202
15156TIP3   OH266958   6.781   5.063  16.378  0.0415  0.1244 -0.0181
15156TIP3    H166959   6.762   5.040  16.287 -1.2991  0.0363  0.2692
15156TIP3    H266960   6.740   5.148  16.391  3.8824  2.3430 -0.7006
15157TIP3   OH266961   5.121   1.631  11.119 -1.0342 -0.3356 -0.4989
15157TIP3    H166962   5.140   1.537  11.124  0.8231 -0.0124 -0.7943
15157TIP3    H266963   5.089   1.644  11.030 -0.7961 -0.6141 -0.6279
15158TIP3   OH266964   4.977   0.402  11.626  0.0744 -0.5707 -0.5384
15158TIP3    H166965   5.010   0.332  11.571 -1.1473 -1.1439 -0.5734
15158TIP3    H266966   4.891   0.422  11.590  0.0612  0.3664 -0.0074
15159TIP3   OH266967   6.517   3.473  15.573 -0.3481 -0.1980 -0.1799
15159TIP3    H166968   6.462   3.503  15.500  0.5085 -0.6559 -1.0416
15159TIP3    H266969   6.543   3.385  15.548  3.0675  0.9558 -1.1973
15160TIP3   OH266970   0.980   3.870  12.992 -0.4506 -0.6124  0.2254
15160TIP3    H166971   0.888   3.848  13.008 -0.9408  1.1197  0.0076
15160TIP3    H266972   1.020   3.872  13.078 -1.1594  0.7400  0.5539
15161TIP3   OH266973   6.388   5.357   0.743  0.1517 -0.4465  0.3142
15161TIP3    H166974   6.347   5.280   0.782  1.6035 -0.9759  0.8787
15161TIP3    H266975   6.332   5.430   0.770  0.0038 -1.0325  1.7144
15162TIP3   OH266976   5.770   0.563  14.162 -0.0454 -0.3569 -0.6600
15162TIP3    H166977   5.752   0.495  14.227  3.6308 -1.4201 -0.5221
15162TIP3    H266978   5.840   0.615  14.200  0.2457  0.7736 -2.5866
15163TIP3   OH266979   5.229   6.539   3.894 -0.1654  0.3629  0.3224
15163TIP3    H166980   5.214   6.453   3.855 -0.1310  0.5237 -0.0496
15163TIP3    H266981   5.143   6.581   3.894  0.0616  0.8479 -0.7580
15164TIP3   OH266982   0.268   0.959   4.744 -0.0709  0.3013  0.1259
15164TIP3    H166983   0.319   0.882   4.767  1.4298 -0.0177 -3.4936
15164TIP3    H266984   0.182   0.945   4.783  0.6852 -2.3289  1.0131
15165TIP3   OH266985   3.193   3.790   0.996 -0.3275 -0.2911  0.7297
15165TIP3    H166986   3.125   3.805   1.061 -1.7823  1.3319 -1.0238
15165TIP3    H266987   3.274   3.784   1.046 -1.6938 -2.4058  2.9135
15166TIP3   OH266988   0.012   5.712   0.046 -0.1843 -0.2839 -0.8083
15166TIP3    H166989   0.034   5.620   0.063 -0.2291  0.0410  1.2827
15166TIP3    H266990   0.094   5.751   0.015 -0.0239 -0.9230 -1.1915
15167TIP3   OH266991   5.177   1.674   3.394 -0.0441 -0.0590 -0.4417
15167TIP3    H166992   5.211   1.586   3.414 -2.5106 -1.0635 -0.2914
15167TIP3    H266993   5.139   1.665   3.307  0.5963  1.1974 -0.8752
15168TIP3   OH266994   5.036   0.795  15.219 -0.0425  0.1738 -0.0123
15168TIP3    H166995   4.960   0.854  15.219  0.5382  0.9544 -1.1624
15168TIP3    H266996   5.097   0.834  15.282 -0.9573 -0.9984  1.6790
15169TIP3   OH266997   6.126   2.556  14.342 -0.5390 -0.0487 -0.0950
15169TIP3    H166998   6.194   2.511  14.392 -1.4624 -1.7017 -0.2487
15169TIP3    H266999   6.174   2.621  14.290  0.8180 -0.5779  0.4380
15170TIP3   OH267000   0.479   3.156   3.193  0.2692  0.3249  0.4922
15170TIP3    H167001   0.400   3.166   3.139  0.0270 -1.3856  0.4794
15170TIP3    H267002   0.454   3.093   3.260  0.7286  2.0156  2.3485
15171TIP3   OH267003   0.493   5.353  13.099  0.0610  0.5578 -0.1765
15171TIP3    H167004   0.411   5.376  13.055 -1.3983  0.1099  2.0818
15171TIP3    H267005   0.519   5.433  13.144  1.1770  0.8423 -1.3039
15172TIP3   OH267006   2.340   5.253  11.661  0.6213  0.3887 -0.3280
15172TIP3    H167007   2.255   5.208  11.665  0.7888  0.0657 -0.3296
15172TIP3    H267008   2.403   5.183  11.678  0.8308  0.8083  0.6824
15173TIP3   OH267009   5.334   4.681   4.509  0.6137 -0.2172  0.3523
15173TIP3    H167010   5.303   4.752   4.565  1.7239  1.3778 -0.9854
15173TIP3    H267011   5.268   4.674   4.440 -0.7530 -2.1806  1.7330
15174TIP3   OH267012   5.242   0.732   1.830 -0.4655  0.0690 -0.3518
15174TIP3    H167013   5.208   0.747   1.919  1.3905 -0.5886  0.5100
15174TIP3    H267014   5.163   0.727   1.776 -1.6340  1.0275  1.1532
15175TIP3   OH267015   3.845   1.263   5.780  0.0451  0.3842 -0.6906
15175TIP3    H167016   3.863   1.235   5.870  2.4231  1.3998 -0.7681
15175TIP3    H267017   3.811   1.352   5.789 -3.4786 -0.8110 -0.6778
15176TIP3   OH267018   4.888   0.515  10.967 -0.6266 -0.4498 -0.1073
15176TIP3    H167019   4.865   0.440  11.022 -4.0256 -2.1791 -3.4069
15176TIP3    H267020   4.871   0.592  11.022 -0.5737 -2.0100  2.2323
15177TIP3   OH267021   1.235   3.890   4.941 -0.6169  0.3144  0.1570
15177TIP3    H167022   1.319   3.926   4.913 -0.5143 -0.2085 -0.2391
15177TIP3    H267023   1.200   3.846   4.863 -0.4691 -0.9085  0.7430
15178TIP3   OH267024   4.585   5.560  14.967  0.1582 -0.2159 -0.3218
15178TIP3    H167025   4.534   5.606  15.034  0.7502 -1.2064  0.8512
15178TIP3    H267026   4.520   5.513  14.915 -0.4797  2.0433 -1.6778
15179TIP3   OH267027   1.259   1.522  14.910  0.2333 -0.2296 -0.2739
15179TIP3    H167028   1.171   1.518  14.948  0.8674  3.0571  1.8737
15179TIP3    H267029   1.304   1.445  14.945 -1.2982 -1.0920 -0.1230
15180TIP3   OH267030   5.251   2.789  13.573 -0.3191  0.1315  0.3645
15180TIP3    H167031   5.290   2.702  13.577  2.0080  1.0427 -0.8748
15180TIP3    H267032   5.220   2.797  13.482 -0.7331  0.5346  0.5336
15181TIP3   OH267033   3.186   5.328   2.674 -0.0928 -0.4628  0.1355
15181TIP3    H167034   3.102   5.284   2.666 -1.0292  1.3225 -0.3228
15181TIP3    H267035   3.172   5.395   2.741  1.0998 -0.4066  0.3588
15182TIP3   OH267036   3.589   6.495   0.011 -0.1132  0.0753  0.2511
15182TIP3    H167037   3.644   6.435  -0.040  0.2840  1.7663 -1.4178
15182TIP3    H267038   3.622   6.486   0.101  0.4662 -1.5767 -0.0909
15183TIP3   OH267039   2.952   4.074   2.215 -0.7298 -0.5401 -0.0814
15183TIP3    H167040   2.975   4.079   2.308  0.6714 -0.5238 -0.3959
15183TIP3    H267041   2.968   4.163   2.182 -1.4559 -0.4832 -0.2925
15184TIP3   OH267042   6.818   4.406   5.842  0.2839 -0.0255  0.7487
15184TIP3    H167043   6.873   4.471   5.799  0.1402 -0.9250 -0.8818
15184TIP3    H267044   6.874   4.368   5.909  0.3990  1.6706  1.6876
15185TIP3   OH267045   2.924   3.104  14.040 -0.2254 -0.3156 -0.4568
15185TIP3    H167046   2.971   3.021  14.047  1.2686  0.3944 -1.5469
15185TIP3    H267047   2.980   3.167  14.086 -0.9043  0.2457 -0.3874
15186TIP3   OH267048   0.607   4.577   3.223 -0.3014 -0.0570  0.7054
15186TIP3    H167049   0.633   4.501   3.275  1.0085 -0.1336 -0.0313
15186TIP3    H267050   0.597   4.648   3.287 -3.1778 -1.1674  1.6478
15187TIP3   OH267051   4.893   4.434  10.267  0.3160 -0.3684 -0.1530
15187TIP3    H167052   4.987   4.446  10.282 -0.2360 -0.0084  3.9874
15187TIP3    H267053   4.870   4.501  10.203  2.3192  1.8942  1.3296
15188TIP3   OH267054   2.600   0.697   4.855  0.0412 -0.9371  0.6609
15188TIP3    H167055   2.639   0.687   4.942  0.9581 -2.4773  0.1252
15188TIP3    H267056   2.507   0.708   4.872  0.2736 -0.6483  1.8583
15189TIP3   OH267057   2.832   5.498   4.726  0.1832 -0.1276  0.1792
15189TIP3    H167058   2.804   5.483   4.816  0.3308 -0.1118  0.2270
15189TIP3    H267059   2.794   5.425   4.677  0.6989 -0.5252  0.3707
15190TIP3   OH267060   3.974   5.085   4.017  0.9335 -0.0883 -0.1486
15190TIP3    H167061   3.918   5.128   4.081 -1.2865 -2.5291 -0.2731
15190TIP3    H267062   3.923   5.086   3.936  1.9731 -0.5844 -0.8351
15191TIP3   OH267063   6.822   5.078  13.289  0.1033 -0.3586  0.2213
15191TIP3    H167064   6.739   5.124  13.296  0.4298 -0.0154  4.2095
15191TIP3    H267065   6.822   5.016  13.362  2.8854 -1.1236 -0.2942
15192TIP3   OH267066   0.513   6.767  13.599  0.2692 -0.0697 -0.5973
15192TIP3    H167067   0.513   6.681  13.642 -0.7038  1.4868  2.9397
15192TIP3    H267068   0.599   6.804  13.619  0.0701  0.4153 -0.6284
15193TIP3   OH267069   4.782   4.041  16.139 -0.5107 -0.5653  0.3229
15193TIP3    H167070   4.747   4.088  16.063 -1.3417 -1.2200  0.2832
15193TIP3    H267071   4.850   4.098  16.174 -2.7538  1.5998  1.4378
15194TIP3   OH267072   3.512   4.561  13.265 -0.0989 -0.0149  0.0440
15194TIP3    H167073   3.484   4.649  13.291  0.8127  0.6531 -1.1555
15194TIP3    H267074   3.432   4.508  13.270 -0.8184  1.0419  0.0502
15195TIP3   OH267075   6.764   1.508  16.105  0.9881 -0.3019  0.8134
15195TIP3    H167076   6.833   1.459  16.061  1.0058 -0.9776  1.5497
15195TIP3    H267077   6.687   1.496  16.049  1.5465  0.8234 -0.2389
15196TIP3   OH267078   6.378   2.796   0.746  0.6811  0.0046 -0.3604
15196TIP3    H167079   6.337   2.841   0.820  0.7200  0.4438 -0.6009
15196TIP3    H267080   6.389   2.706   0.776 -1.9367 -0.5624 -0.8546
15197TIP3   OH267081   6.472   5.826   3.842 -0.0280  0.1273 -0.0228
15197TIP3    H167082   6.487   5.734   3.820 -1.6559  0.1016 -1.1577
15197TIP3    H267083   6.554   5.854   3.883  0.4753 -1.8322  0.4187
15198TIP3   OH267084   0.293   1.464  15.231 -0.4480 -0.4176 -0.4077
15198TIP3    H167085   0.230   1.405  15.270  0.2395 -1.0054 -0.1568
15198TIP3    H267086   0.279   1.456  15.137 -1.6495  0.4870 -0.3213
15199TIP3   OH267087   4.533   3.764   1.306  0.5410 -0.0213  0.5529
15199TIP3    H167088   4.594   3.811   1.249 -1.7271  0.1921 -1.9311
15199TIP3    H267089   4.537   3.810   1.389  2.1543  1.3089 -0.1974
15200TIP3   OH267090   2.023   0.116  16.187  0.5753 -0.7704  0.4472
15200TIP3    H167091   1.953   0.074  16.136 -0.1130  0.0797  0.6717
15200TIP3    H267092   1.980   0.146  16.267  1.4046 -1.0637  1.0161
15201TIP3   OH267093   3.809   1.529  16.499  0.5737  0.0889 -0.4353
15201TIP3    H167094   3.746   1.576  16.552  0.7411 -0.5444  0.3565
15201TIP3    H267095   3.759   1.494  16.426 -0.0718 -0.6316  0.3231
15202TIP3   OH267096   0.870   0.072  11.913 -0.2972  0.1407  0.2162
15202TIP3    H167097   0.797   0.015  11.892  0.1458 -0.5350  0.4925
15202TIP3    H267098   0.923   0.073  11.833  0.4378 -0.9785  0.6790
15203TIP3   OH267099   1.962   6.483  14.637 -0.2105  0.5284  0.1008
15203TIP3    H167100   2.040   6.538  14.631  0.4623 -0.1902  1.6460
15203TIP3    H267101   1.899   6.525  14.579 -0.3144  3.9016  2.3497
15204TIP3   OH267102   3.871   4.652  11.549 -0.8592  0.2710  0.1934
15204TIP3    H167103   3.848   4.562  11.527 -0.3526  0.1112  0.2937
15204TIP3    H267104   3.794   4.704  11.525 -1.7467 -0.3723  1.5205
15205TIP3   OH267105   0.713   4.034  16.924  0.1842 -0.1852  0.7114
15205TIP3    H167106   0.633   4.082  16.904 -1.2783 -2.3540  1.0496
15205TIP3    H267107   0.683   3.946  16.946  2.7077 -1.1483  0.5543
15206TIP3   OH267108   3.953   0.188   5.386  0.2959  0.3189  0.4047
15206TIP3    H167109   3.917   0.128   5.321  1.8175 -0.1616 -0.0427
15206TIP3    H267110   3.949   0.274   5.345  0.9214  0.0682 -0.1812
15207TIP3   OH267111   4.229   5.378   5.100  0.4340 -0.0868 -0.1265
15207TIP3    H167112   4.185   5.398   5.017 -0.4733 -0.7592  0.1825
15207TIP3    H267113   4.295   5.312   5.076 -0.1326 -0.6177 -0.2441
15208TIP3   OH267114   0.801   4.872   5.743 -0.4921 -0.1203  0.5268
15208TIP3    H167115   0.862   4.902   5.676 -1.6746 -0.3516 -0.7015
15208TIP3    H267116   0.718   4.913   5.719 -0.8340  0.2558  2.2077
15209TIP3   OH267117   1.391   0.393   1.717 -0.2349  0.2328  0.1768
15209TIP3    H167118   1.474   0.398   1.765  0.0092 -1.1676 -0.0676
15209TIP3    H267119   1.385   0.302   1.688 -1.1588  0.6696 -1.0753
15210TIP3   OH267120   2.841   5.181  11.639  0.0128 -0.2190 -0.4138
15210TIP3    H167121   2.926   5.213  11.667 -0.0277 -0.1015 -0.4255
15210TIP3    H267122   2.784   5.193  11.715 -0.0629 -0.0313 -0.5011
15211TIP3   OH267123   1.551   3.287  16.849 -0.1527 -1.0638 -0.2016
15211TIP3    H167124   1.539   3.265  16.942  2.1462 -1.5188  0.0509
15211TIP3    H267125   1.629   3.237  16.823 -1.4121 -1.8645 -2.7197
15212TIP3   OH267126   1.905   3.221  13.543 -0.0004  0.5026 -0.6858
15212TIP3    H167127   1.841   3.154  13.519  0.8036 -0.0650 -1.3374
15212TIP3    H267128   1.853   3.295  13.574 -0.9712  0.1329 -1.3928
15213TIP3   OH267129   0.285   5.405   1.352 -0.0114  0.3172  0.0077
15213TIP3    H167130   0.288   5.361   1.437  1.4538  0.8935  0.2756
15213TIP3    H267131   0.289   5.499   1.373  0.0779  0.4747 -0.6872
15214TIP3   OH267132   4.417   0.702   0.289 -0.3205  0.0076  0.0068
15214TIP3    H167133   4.445   0.793   0.299 -3.1262  1.0284 -0.5087
15214TIP3    H267134   4.477   0.665   0.224  1.1384  1.3143  0.5385
15215TIP3   OH267135   5.457   3.017   0.890 -0.4439 -0.3868 -0.2495
15215TIP3    H167136   5.447   3.112   0.888 -1.7978 -0.5013 -0.2595
15215TIP3    H267137   5.490   2.998   0.977  0.0062  0.1006 -0.3068
15216TIP3   OH267138   5.989   3.221  13.634 -0.4651  0.3091  0.3274
15216TIP3    H167139   5.932   3.296  13.653 -0.6713  0.0816  0.6070
15216TIP3    H267140   5.944   3.174  13.565  1.0522  2.0230 -1.9901
15217TIP3   OH267141   0.680   1.979   1.117  0.5282 -0.3738 -0.6250
15217TIP3    H167142   0.661   1.891   1.084 -0.8995 -0.3958  0.1789
15217TIP3    H267143   0.647   1.979   1.207  1.0642  0.7998 -0.4020
15218TIP3   OH267144   4.517   1.553  15.017  0.5465  0.2529 -0.4147
15218TIP3    H167145   4.502   1.615  14.946  0.7092  1.4608  0.5673
15218TIP3    H267146   4.589   1.592  15.068  1.3818 -1.2745 -0.3576
15219TIP3   OH267147   1.675   3.166  15.964 -0.0832  0.5741  0.2169
15219TIP3    H167148   1.678   3.245  15.910  0.1422  0.8070  0.5626
15219TIP3    H267149   1.753   3.172  16.019 -0.0056  0.0524  0.1649
15220TIP3   OH267150   5.773   2.045   6.173  0.1681  0.2200 -0.1983
15220TIP3    H167151   5.804   2.066   6.085  0.3124  0.5859 -0.0602
15220TIP3    H267152   5.825   2.100   6.232 -0.9144  1.0391  0.0234
15221TIP3   OH267153   6.413   5.990  16.934 -0.0499  0.0608  0.5405
15221TIP3    H167154   6.397   5.926  16.865 -2.4380  0.0341  1.0323
15221TIP3    H267155   6.461   5.941  17.001  1.6511 -0.0989 -0.7203
15222TIP3   OH267156   4.380   4.823   3.328 -0.2554 -0.4920  0.2881
15222TIP3    H167157   4.353   4.878   3.402  1.3154 -0.2439  0.7083
15222TIP3    H267158   4.461   4.783   3.357 -0.0251 -1.0024 -1.0259
15223TIP3   OH267159   0.256   0.366  16.213  0.4149  0.2843 -0.3544
15223TIP3    H167160   0.329   0.420  16.242 -0.4869  1.2626  0.1812
15223TIP3    H267161   0.209   0.343  16.293  0.4481 -0.8268 -0.6344
15224TIP3   OH267162   4.521   3.309   2.239  0.3035 -0.3304 -0.2685
15224TIP3    H167163   4.587   3.372   2.211  0.0229 -0.4318 -1.1687
15224TIP3    H267164   4.491   3.268   2.158  0.5749 -1.7190  0.3072
15225TIP3   OH267165   1.741   6.284  17.203  0.0601  0.4588 -0.5388
15225TIP3    H167166   1.668   6.267  17.263 -0.0803  1.2951 -0.4568
15225TIP3    H267167   1.744   6.207  17.146  1.1331 -1.0194  1.4274
15226TIP3   OH267168   4.362   1.805  14.358 -0.2302 -0.2541  0.4830
15226TIP3    H167169   4.316   1.731  14.318  0.9794  0.3439 -2.1960
15226TIP3    H267170   4.440   1.817  14.304  0.4948  1.9037  1.8919
15227TIP3   OH267171   6.082   1.330  13.787 -0.2274 -0.5070  0.1010
15227TIP3    H167172   6.102   1.241  13.759  1.1487  0.7989 -3.8546
15227TIP3    H267173   5.999   1.351  13.743  0.1773  0.5582 -0.1944
15228TIP3   OH267174   2.529   4.530   4.891  0.2029  0.2901 -0.5665
15228TIP3    H167175   2.617   4.536   4.929  0.2510  0.9346 -0.7631
15228TIP3    H267176   2.487   4.458   4.938  1.0973 -0.5375 -0.9958
15229TIP3   OH267177   4.821   3.373  16.232  0.2256 -0.0532  0.2146
15229TIP3    H167178   4.841   3.418  16.314 -0.4960 -0.1652  0.4630
15229TIP3    H267179   4.853   3.431  16.163  0.9282 -0.0023  0.5746
15230TIP3   OH267180   6.011   0.084  16.053 -0.1742 -0.3591 -0.2750
15230TIP3    H167181   6.078   0.087  16.122  2.3735  0.5218 -2.5814
15230TIP3    H267182   5.968   0.169  16.058 -0.1308 -0.3656  0.3202
15231TIP3   OH267183   1.350   2.025   4.660  0.1822 -0.4518  0.3713
15231TIP3    H167184   1.265   2.068   4.652 -1.0724 -2.6482  0.9692
15231TIP3    H267185   1.342   1.970   4.738  2.3434 -0.3279  0.7321
15232TIP3   OH267186   3.372   2.407   3.131  0.1155 -0.4733 -0.5924
15232TIP3    H167187   3.404   2.375   3.216 -2.1730  2.8813  1.8106
15232TIP3    H267188   3.292   2.358   3.116  0.4296 -0.9495 -0.7241
15233TIP3   OH267189   6.236   2.667  13.430 -0.6854 -0.3770 -0.2743
15233TIP3    H167190   6.312   2.668  13.489 -1.9054 -0.9517  1.4032
15233TIP3    H267191   6.247   2.589  13.376 -0.4944 -0.9279  0.5468
15234TIP3   OH267192   6.337   2.502  10.507 -0.7458  0.3217  0.4895
15234TIP3    H167193   6.362   2.417  10.543 -0.4742 -0.4518 -1.4030
15234TIP3    H267194   6.420   2.547  10.492 -0.7644  0.0533 -0.4709
15235TIP3   OH267195   1.260   6.202  13.576  0.0526  0.5926 -0.3018
15235TIP3    H167196   1.175   6.244  13.565 -0.6685 -0.9549 -0.9847
15235TIP3    H267197   1.268   6.144  13.500  1.8191  0.8550 -0.3553
15236TIP3   OH267198   3.269   1.690  12.756 -0.3402  0.0365 -0.2561
15236TIP3    H167199   3.277   1.771  12.706  0.6998  1.5240  2.2072
15236TIP3    H267200   3.359   1.666  12.778 -0.6231 -1.8531 -0.9388
15237TIP3   OH267201   2.520   3.923  15.989 -0.6696  0.4218 -0.1379
15237TIP3    H167202   2.483   3.887  15.908 -0.8759 -0.3537  0.2996
15237TIP3    H267203   2.586   3.859  16.016 -1.7175 -0.1542  1.1664
15238TIP3   OH267204   5.506   4.898  13.407  0.2082 -0.4275 -0.1387
15238TIP3    H167205   5.428   4.916  13.461 -0.5096 -1.2744 -0.8632
15238TIP3    H267206   5.571   4.867  13.469 -0.5169 -1.1298  0.2938
15239TIP3   OH267207   2.178   4.654   5.544 -0.2679  0.4102 -0.3521
15239TIP3    H167208   2.183   4.735   5.593 -3.2366  0.5146 -0.0376
15239TIP3    H267209   2.100   4.663   5.488 -0.3690 -1.9628 -0.7419
15240TIP3   OH267210   6.781   3.826  14.047  0.1096 -0.3614  0.2487
15240TIP3    H167211   6.807   3.831  14.139 -0.5826 -0.8591  0.4857
15240TIP3    H267212   6.685   3.827  14.050  0.0830 -0.2837 -0.4757
15241TIP3   OH267213   1.710   0.745   4.562  0.0833  0.1193  0.3098
15241TIP3    H167214   1.764   0.776   4.634  0.4755  1.6021 -0.5813
15241TIP3    H267215   1.772   0.710   4.498 -0.0494  0.9017 -0.2739
15242TIP3   OH267216   1.960   1.071   2.036  0.1502 -0.0468  0.5772
15242TIP3    H167217   1.926   1.109   1.954  0.5862 -0.7659  0.0552
15242TIP3    H267218   1.882   1.043   2.083 -0.1347  0.7582  0.6116
15243TIP3   OH267219   3.660   6.750   2.296 -0.1410 -0.3696 -0.3326
15243TIP3    H167220   3.646   6.655   2.291  1.5545 -0.6640  0.0775
15243TIP3    H267221   3.749   6.760   2.328  0.3855  1.3826 -2.1452
15244TIP3   OH267222   1.590   0.829   2.005  0.1396 -0.0038  0.1671
15244TIP3    H167223   1.505   0.858   1.971  0.2482 -0.2435 -0.3147
15244TIP3    H267224   1.604   0.883   2.083  0.1952  1.0238 -0.5410
15245TIP3   OH267225   5.351   5.473   6.083  0.2193 -0.1261  0.2744
15245TIP3    H167226   5.297   5.394   6.086  0.8649 -0.5443  1.5023
15245TIP3    H267227   5.355   5.502   6.174  1.0353  0.6060  0.0144
15246TIP3   OH267228   0.727   5.758  10.143 -0.2528  0.0374  0.5352
15246TIP3    H167229   0.716   5.670  10.179 -0.6555  1.3399  3.9390
15246TIP3    H267230   0.814   5.784  10.170 -0.7675  1.2861  1.0366
15247TIP3   OH267231   1.113   5.385  12.917  0.1652  0.1503 -0.5142
15247TIP3    H167232   1.044   5.449  12.936  0.4635  0.1747  0.5593
15247TIP3    H267233   1.151   5.415  12.834  0.0353  1.1426 -0.2262
15248TIP3   OH267234   0.439   5.013  11.916  0.2701  0.3826 -0.3657
15248TIP3    H167235   0.444   5.036  12.009  0.5129 -1.4445  0.1136
15248TIP3    H267236   0.349   4.984  11.903  0.3404  0.2804 -0.6237
15249TIP3   OH267237   3.548   3.081   5.361 -0.0217 -0.1054 -0.4369
15249TIP3    H167238   3.475   3.142   5.355  0.3776  0.4788  0.4971
15249TIP3    H267239   3.611   3.112   5.296  0.7680  1.3128  0.9620
15250TIP3   OH267240   3.565   1.604  15.005  0.1575 -0.1586 -0.3421
15250TIP3    H167241   3.658   1.583  14.999 -0.1399 -1.3393 -1.0427
15250TIP3    H267242   3.549   1.615  15.099  1.0786  0.4748 -0.2442
15251TIP3   OH267243   4.153   3.523   2.744  0.1675  0.2739 -0.1908
15251TIP3    H167244   4.160   3.446   2.687  0.7342  0.6109 -0.5830
15251TIP3    H267245   4.234   3.571   2.730 -0.2916  1.0830 -0.1560
15252TIP3   OH267246   4.805   5.478   0.117 -0.0608  0.0183  0.2490
15252TIP3    H167247   4.737   5.521   0.064 -0.0597 -1.2064 -0.7936
15252TIP3    H267248   4.807   5.388   0.085  2.6861  0.2290 -0.3974
15253TIP3   OH267249   4.669   1.302   0.992 -0.3619  0.1612 -0.1639
15253TIP3    H167250   4.756   1.282   1.027  0.0105  1.6229 -0.1971
15253TIP3    H267251   4.625   1.218   0.989  1.2337 -0.7013 -0.6385
15254TIP3   OH267252   3.325   6.116   4.008  0.2861  0.7662  0.2684
15254TIP3    H167253   3.328   6.021   3.998 -0.1830  0.6981  0.6970
15254TIP3    H267254   3.414   6.146   3.992  0.4209  0.2593  0.0747
15255TIP3   OH267255   0.563   5.214  17.153  0.3136 -0.3546 -0.1359
15255TIP3    H167256   0.628   5.276  17.185  1.4483 -2.1985  1.3477
15255TIP3    H267257   0.600   5.128  17.173 -2.0696 -1.4936 -0.2795
15256TIP3   OH267258   0.564   3.391  16.402 -0.1118 -0.6759  0.4994
15256TIP3    H167259   0.473   3.376  16.429  0.4541 -2.6505  1.4597
15256TIP3    H267260   0.574   3.343  16.320  0.1493 -0.7374  0.5635
15257TIP3   OH267261   2.469   3.516  11.681  0.0688  0.2635  0.8765
15257TIP3    H167262   2.563   3.532  11.696 -0.2038  0.4498  2.6631
15257TIP3    H267263   2.449   3.441  11.738 -1.0910  0.9055  1.3315
15258TIP3   OH267264   1.318   4.689   1.752  0.2939 -0.1092  0.0363
15258TIP3    H167265   1.248   4.720   1.811  1.0302 -0.9145  1.4025
15258TIP3    H267266   1.399   4.722   1.791  0.9031 -1.7501  0.2382
15259TIP3   OH267267   3.253   3.644   6.048  0.4002 -1.1030 -0.3143
15259TIP3    H167268   3.177   3.609   6.001 -0.6642  0.1793  0.3911
15259TIP3    H267269   3.278   3.573   6.108 -3.4291 -0.0201  3.1060
15260TIP3   OH267270   3.934   0.665  16.141  0.1462 -0.9240 -0.0658
15260TIP3    H167271   3.926   0.714  16.223  1.9446  0.2715 -0.5489
15260TIP3    H267272   4.028   0.655  16.128  0.0235  0.4910 -2.8590
15261TIP3   OH267273   0.335   5.973  12.032  0.0478  0.0711 -0.2516
15261TIP3    H167274   0.390   5.925  11.971 -0.6619  0.3566 -1.1373
15261TIP3    H267275   0.362   6.064  12.023 -0.9522  0.2965 -1.1315
15262TIP3   OH267276   1.320   2.411   6.006  0.0206 -0.2756  0.2788
15262TIP3    H167277   1.364   2.484   6.049 -1.1801 -0.0355  1.1486
15262TIP3    H267278   1.391   2.354   5.976  0.9528  0.9005  0.1863
15263TIP3   OH267279   5.016   2.843   4.491  0.4339  0.1252  0.2880
15263TIP3    H167280   5.017   2.805   4.579  1.3887 -0.4428  0.0540
15263TIP3    H267281   4.925   2.833   4.461  0.3835 -0.8276  0.7275
15264TIP3   OH267282   0.572   6.573   5.424  0.1346 -0.1156  0.6477
15264TIP3    H167283   0.664   6.550   5.407  0.0294  0.9724 -1.9009
15264TIP3    H267284   0.522   6.507   5.376 -0.4670 -0.7404  2.0772
15265TIP3   OH267285   1.012   6.369  11.398  0.2768 -0.0873  0.3247
15265TIP3    H167286   1.038   6.452  11.438 -0.5401  0.0284  0.6329
15265TIP3    H267287   1.088   6.313  11.408  0.9340  0.7024 -0.1099
15266TIP3   OH267288   2.736   2.684  15.193 -0.5438 -0.0409  0.1522
15266TIP3    H167289   2.764   2.596  15.169 -1.2301 -0.2313  0.0210
15266TIP3    H267290   2.761   2.739  15.118 -0.9344 -0.2901 -0.1671
15267TIP3   OH267291   2.292   0.897   5.146  0.3496 -0.8394 -0.0984
15267TIP3    H167292   2.293   0.855   5.060  1.4507 -1.8913  0.4006
15267TIP3    H267293   2.213   0.864   5.189  1.2781 -2.5961  0.3458
15268TIP3   OH267294   5.931   5.551   5.580  0.3339  0.7220  0.1455
15268TIP3    H167295   5.857   5.519   5.529  0.0042  0.4196  0.7897
15268TIP3    H267296   5.969   5.473   5.620 -1.7046  1.1968  3.3573
15269TIP3   OH267297   3.100   4.674   0.288  0.0318  0.0696 -0.7015
15269TIP3    H167298   3.049   4.754   0.293  0.2160  0.1327  0.5497
15269TIP3    H267299   3.035   4.604   0.276 -0.7250 -0.1357  3.2145
15270TIP3   OH267300   1.908   2.926   1.333 -0.4866 -0.1083 -0.4329
15270TIP3    H167301   1.860   2.996   1.289 -0.5620  0.5179  0.6292
15270TIP3    H267302   2.000   2.943   1.312 -0.4347  0.7813  0.4726
15271TIP3   OH267303   5.797   6.071   2.485  0.3594 -0.1482 -0.3620
15271TIP3    H167304   5.848   6.024   2.419  0.1451 -0.3263 -0.4006
15271TIP3    H267305   5.861   6.128   2.528  0.7468 -0.9558  0.1393
15272TIP3   OH267306   1.093   1.744  12.666 -0.2299  0.2747  0.3516
15272TIP3    H167307   1.049   1.710  12.588 -2.6331 -0.3367  1.8631
15272TIP3    H267308   1.164   1.682  12.682  0.3055  0.4040 -1.3030
15273TIP3   OH267309   5.101   3.159  12.450 -0.7737 -0.2550  0.3354
15273TIP3    H167310   5.123   3.236  12.399 -0.0223 -0.2905  0.5956
15273TIP3    H267311   5.164   3.158  12.522 -0.3397 -1.4595 -0.0227
15274TIP3   OH267312   6.238   1.114  12.256  0.0886 -0.3611 -0.3388
15274TIP3    H167313   6.262   1.021  12.260 -1.6364 -0.8367 -0.3110
15274TIP3    H267314   6.150   1.118  12.293  0.1552  1.3068 -0.2895
15275TIP3   OH267315   2.369   6.539   2.096  0.1277 -0.3323  0.0651
15275TIP3    H167316   2.340   6.579   2.014  1.6190  0.4435 -0.1170
15275TIP3    H267317   2.293   6.546   2.154 -0.0584  1.7461 -0.3471
15276TIP3   OH267318   1.101   2.154   4.619  0.7834 -0.0729 -0.1831
15276TIP3    H167319   1.046   2.077   4.607  1.5579 -0.5013 -1.1267
15276TIP3    H267320   1.041   2.228   4.612  0.3300 -0.5285 -1.2579
15277TIP3   OH267321   1.514   2.702  15.840 -0.3550 -0.3270 -0.5261
15277TIP3    H167322   1.427   2.742  15.849  0.2234  0.7692  0.5221
15277TIP3    H267323   1.562   2.761  15.783 -0.2640 -0.8785 -1.0210
15278TIP3   OH267324   3.837   3.496   1.352 -0.0453 -0.1538  0.1496
15278TIP3    H167325   3.872   3.407   1.360  0.4173 -0.1080 -1.1308
15278TIP3    H267326   3.744   3.483   1.333  0.1852 -0.4184 -0.9048
15279TIP3   OH267327   6.517   2.306   5.259 -0.1081 -0.4867  0.4969
15279TIP3    H167328   6.551   2.251   5.188 -0.7187 -1.0992  0.6795
15279TIP3    H267329   6.592   2.318   5.317 -0.1674 -1.7873  0.8659
15280TIP3   OH267330   6.080   4.046  16.896  0.4565  0.8268  0.4352
15280TIP3    H167331   6.149   4.108  16.920  1.4030 -0.0078 -0.0952
15280TIP3    H267332   6.105   4.014  16.810 -0.5762  0.4751  0.2508
15281TIP3   OH267333   1.882   3.249   5.320  0.6071  0.0065  0.2527
15281TIP3    H167334   1.910   3.171   5.368  2.8208  0.0036 -0.8994
15281TIP3    H267335   1.825   3.216   5.251 -2.2682 -0.0310  2.4582
15282TIP3   OH267336   2.061   6.733  14.581  0.2710 -0.2220 -0.5203
15282TIP3    H167337   2.059   6.782  14.663 -1.6072  0.0911 -0.7037
15282TIP3    H267338   2.000   6.780  14.524 -0.8469 -2.2018 -1.0428
15283TIP3   OH267339   1.925   0.637  13.471  0.0311 -0.2454  0.6215
15283TIP3    H167340   1.847   0.581  13.469 -0.3986  0.3417  0.5267
15283TIP3    H267341   1.941   0.657  13.379  1.6960 -2.2284  0.4044
15284TIP3   OH267342   6.068   1.355   1.704  0.3014 -0.4375 -0.7329
15284TIP3    H167343   6.048   1.298   1.778 -1.6546  0.7587 -0.2528
15284TIP3    H267344   6.066   1.297   1.628  0.9995 -1.4449 -0.0149
15285TIP3   OH267345   6.488   6.755  16.357  0.0537 -0.3104  0.0223
15285TIP3    H167346   6.426   6.742  16.429  1.0890 -0.5593  0.8911
15285TIP3    H267347   6.468   6.842  16.323 -1.1135 -0.5915 -0.0736
15286TIP3   OH267348   2.392   5.385   2.845 -0.2376 -0.0035  0.2287
15286TIP3    H167349   2.444   5.465   2.857 -0.3358  0.3585 -1.4904
15286TIP3    H267350   2.453   5.322   2.808 -0.6061 -0.1320 -0.1667
15287TIP3   OH267351   6.482   2.274  13.150 -0.4215 -0.5068  0.3769
15287TIP3    H167352   6.514   2.352  13.105 -2.3263  0.3906  0.4681
15287TIP3    H267353   6.545   2.259  13.221  0.0370  0.8833  0.2837
15288TIP3   OH267354   6.372   3.511   5.569 -0.1757  0.0263  0.0278
15288TIP3    H167355   6.335   3.588   5.526  0.6823  0.5509  0.2041
15288TIP3    H267356   6.320   3.501   5.649 -2.2713 -1.3967 -1.4129
15289TIP3   OH267357   4.052   0.029   4.827  0.3646  0.1106  0.1302
15289TIP3    H167358   4.147   0.037   4.817  0.4965 -0.0628  1.1546
15289TIP3    H267359   4.039   0.003   4.918 -0.6417 -0.4126 -0.1420
15290TIP3   OH267360   4.550   4.363   4.979 -0.2628 -0.1730  0.1499
15290TIP3    H167361   4.485   4.393   4.916 -0.1853 -2.1093 -0.9404
15290TIP3    H267362   4.625   4.420   4.966 -0.6857  0.2084 -0.6752
15291TIP3   OH267363   5.016   0.960   0.290  0.3169  0.0022  0.3171
15291TIP3    H167364   4.956   0.920   0.227  0.1646 -0.3566  0.6881
15291TIP3    H267365   5.001   1.054   0.279  0.1288 -0.0630 -0.0245
15292TIP3   OH267366   5.477   6.706   5.322  0.0128 -0.1513 -0.4222
15292TIP3    H167367   5.538   6.758   5.268  0.8571 -1.8077 -1.1384
15292TIP3    H267368   5.470   6.755   5.404 -0.6953  2.0371 -1.7219
15293TIP3   OH267369   5.220   3.229  12.719  0.6288 -0.0646  0.5488
15293TIP3    H167370   5.151   3.258  12.780  0.0505 -0.2994  0.0156
15293TIP3    H267371   5.263   3.157  12.765 -1.2792 -1.7860 -0.1931
15294TIP3   OH267372   4.366   2.341   3.443  0.2975  0.1014  0.1567
15294TIP3    H167373   4.443   2.284   3.446 -0.1595 -0.5441 -0.0547
15294TIP3    H267374   4.308   2.306   3.511  0.8293  1.5478  1.4009
15295TIP3   OH267375   4.316   0.231  12.009  0.3207 -0.0164 -0.1912
15295TIP3    H167376   4.397   0.276  12.031 -0.7670  1.3871  1.2414
15295TIP3    H267377   4.257   0.302  11.981 -0.6835 -0.8865 -0.3200
15296TIP3   OH267378   5.004   3.280   0.751 -0.3491 -0.0524 -0.0036
15296TIP3    H167379   4.973   3.336   0.823  0.0963  0.9859 -0.5936
15296TIP3    H267380   5.044   3.205   0.795 -1.3856 -0.1599  0.8055
15297TIP3   OH267381   6.102   4.910   6.138  0.1436 -0.4806  0.2037
15297TIP3    H167382   6.097   5.006   6.130  0.6666 -0.5981 -2.6546
15297TIP3    H267383   6.050   4.890   6.215  1.4523  2.2262  1.9620
15298TIP3   OH267384   0.300   0.679  13.793  0.4368  0.1305  0.3455
15298TIP3    H167385   0.318   0.586  13.778 -0.4419 -0.2772  1.6215
15298TIP3    H267386   0.226   0.699  13.736 -1.2983 -0.7656  2.1577
15299TIP3   OH267387   6.761   0.362   0.585  0.2625  0.4551  0.5871
15299TIP3    H167388   6.671   0.339   0.605 -0.6159  1.6180 -1.6865
15299TIP3    H267389   6.797   0.284   0.543 -0.6970  0.9776 -1.2956
15300TIP3   OH267390   3.130   3.569  13.683 -0.6789 -0.1778  0.1792
15300TIP3    H167391   3.038   3.557  13.710 -0.4127  1.1053  1.8444
15300TIP3    H267392   3.180   3.553  13.763  0.3438  1.6074 -0.0530
15301TIP3   OH267393   2.337   4.812  14.848 -0.5300 -0.1418  0.0330
15301TIP3    H167394   2.350   4.902  14.880 -0.9609  0.6995 -2.0204
15301TIP3    H267395   2.254   4.785  14.887 -1.8548  1.4465 -1.5325
15302TIP3   OH267396   5.004   5.059   4.333 -0.4490  0.1193  0.4431
15302TIP3    H167397   4.917   5.068   4.372  0.1168 -0.6032  1.9271
15302TIP3    H267398   4.990   5.075   4.240 -2.3621 -1.0595  0.4828
15303TIP3   OH267399   1.026   3.982   0.850 -0.3881 -0.4987  0.5873
15303TIP3    H167400   0.983   4.035   0.782  0.1052  0.8922  1.3241
15303TIP3    H267401   1.059   4.046   0.913 -1.3918 -1.7729  2.5106
15304TIP3   OH267402   4.889   5.623  15.564 -0.0004  0.2943  0.4197
15304TIP3    H167403   4.915   5.534  15.588  0.0665  0.3775  0.6636
15304TIP3    H267404   4.889   5.624  15.468  3.6678  1.0330  0.2442
15305TIP3   OH267405   4.440   0.082  14.481 -0.4131  0.2320 -0.2091
15305TIP3    H167406   4.409  -0.008  14.485  0.5727 -0.0894  0.6457
15305TIP3    H267407   4.381   0.130  14.541 -0.5408  0.0328 -0.1729
15306TIP3   OH267408   4.231   4.575   0.516  0.1374  0.1812  0.2047
15306TIP3    H167409   4.145   4.563   0.476  0.2867 -2.8223  0.5267
15306TIP3    H267410   4.285   4.612   0.447 -1.1337  1.1022 -0.3257
15307TIP3   OH267411   1.825   4.082   0.931  0.2691 -0.2540 -0.2905
15307TIP3    H167412   1.880   4.134   0.871 -1.3315 -0.1453 -1.7405
15307TIP3    H267413   1.766   4.034   0.873 -0.9260 -0.6482  1.2099
15308TIP3   OH267414   2.522   5.933  12.954 -0.2408 -0.1773  0.3823
15308TIP3    H167415   2.585   5.911  12.886 -1.5811 -1.2009 -0.5914
15308TIP3    H267416   2.477   6.011  12.921  0.6454  0.6988  1.1887
15309TIP3   OH267417   6.641   5.987   1.055 -0.6185  0.0268 -0.0540
15309TIP3    H167418   6.615   6.059   1.112  1.8578  0.0238  1.2015
15309TIP3    H267419   6.669   5.918   1.115 -0.2240 -0.9007 -1.2697
15310TIP3   OH267420   3.305   1.373  13.869 -0.2372 -0.2871  0.3326
15310TIP3    H167421   3.288   1.329  13.953 -0.5547 -0.4959  0.1598
15310TIP3    H267422   3.231   1.434  13.859 -0.5325 -0.7103 -0.0943
15311TIP3   OH267423   1.853   3.890   4.441 -0.7985  0.4118  0.0190
15311TIP3    H167424   1.834   3.961   4.378  0.1489  0.9751  0.3447
15311TIP3    H267425   1.815   3.921   4.523 -1.1704  0.1213 -0.0392
15312TIP3   OH267426   6.206   4.625  11.382  0.0079 -0.1034  0.1580
15312TIP3    H167427   6.271   4.688  11.350  0.7072 -0.3197  1.0872
15312TIP3    H267428   6.191   4.651  11.473  1.8522 -2.4546  1.2271
15313TIP3   OH267429   2.883   2.551   5.848  0.0890  0.1726 -0.0058
15313TIP3    H167430   2.929   2.509   5.776 -0.8746  0.5960 -0.8853
15313TIP3    H267431   2.906   2.499   5.925  1.1484 -0.2662 -0.5980
15314TIP3   OH267432   3.067   6.729  15.627  0.3174 -0.2182  0.6734
15314TIP3    H167433   3.009   6.653  15.633 -0.3658  0.3136  0.9137
15314TIP3    H267434   3.076   6.746  15.533 -0.1999 -0.0885  0.6463
15315TIP3   OH267435   2.304   3.118   1.711 -0.4865  0.5004 -0.2762
15315TIP3    H167436   2.225   3.083   1.752  0.5380 -1.1987  0.3544
15315TIP3    H267437   2.374   3.099   1.774  0.3225  2.8973 -0.3312
15316TIP3   OH267438   0.116   0.142  11.704  0.5157  0.3435 -0.4521
15316TIP3    H167439   0.085   0.114  11.790  0.7491  0.7111 -0.2430
15316TIP3    H267440   0.037   0.164  11.656  0.4085  0.5997 -0.1630
15317TIP3   OH267441   6.402   2.036  12.434 -0.5017 -0.6738  0.5126
15317TIP3    H167442   6.405   2.102  12.504  0.3446 -0.5363  0.3491
15317TIP3    H267443   6.351   2.078  12.365 -1.0143 -0.6624  0.8898
15318TIP3   OH267444   1.710   2.775   6.845 -0.1701 -0.7046  0.5425
15318TIP3    H167445   1.694   2.858   6.801 -0.1760 -0.3223  1.2398
15318TIP3    H267446   1.646   2.773   6.917 -0.5506 -1.5763  0.1994
15319TIP3   OH267447   1.937   0.577  14.280 -0.3262  0.3505  0.3728
15319TIP3    H167448   1.966   0.486  14.272 -1.0613 -0.0248  1.6119
15319TIP3    H267449   2.018   0.628  14.285  0.0982 -0.3390  0.6430
15320TIP3   OH267450   0.262   4.567  13.826 -0.5554 -0.0525  0.2246
15320TIP3    H167451   0.312   4.642  13.791 -0.4797  0.8598  2.1643
15320TIP3    H267452   0.304   4.548  13.909 -1.6452 -1.1842  0.5316
15321TIP3   OH267453   6.431   1.170   2.577 -0.7712  0.0319 -0.2808
15321TIP3    H167454   6.342   1.190   2.607  0.0060 -0.5254  2.7053
15321TIP3    H267455   6.463   1.106   2.639  2.8618  2.5730  0.7723
15322TIP3   OH267456   3.263   6.470  13.006 -0.5862  0.0536 -0.2587
15322TIP3    H167457   3.353   6.483  13.036 -0.4345  0.0242 -0.6998
15322TIP3    H267458   3.214   6.448  13.086 -0.2572  0.3331  0.0202
15323TIP3   OH267459   5.285   5.403  14.673 -0.1052  0.1609  0.3519
15323TIP3    H167460   5.252   5.344  14.740  0.5664 -2.2793 -1.3415
15323TIP3    H267461   5.375   5.374  14.657 -0.2288  0.6820 -1.5634
15324TIP3   OH267462   0.498   5.200   2.626 -1.0669  0.0900  0.5809
15324TIP3    H167463   0.443   5.175   2.701 -1.1387 -0.0553  0.4788
15324TIP3    H267464   0.499   5.296   2.629 -0.5176  0.0719  1.1720
15325TIP3   OH267465   0.603   4.469  15.800 -1.0948  0.0584 -0.4507
15325TIP3    H167466   0.673   4.522  15.838 -0.3041 -1.5653  0.4922
15325TIP3    H267467   0.524   4.520  15.814 -0.3842  0.9391  0.5540
15326TIP3   OH267468   1.761   3.368  15.630 -0.6722 -0.5400 -0.0214
15326TIP3    H167469   1.777   3.318  15.711 -1.3693 -1.2183 -0.2857
15326TIP3    H267470   1.832   3.342  15.572  0.4193  0.7177  0.6944
15327TIP3   OH267471   1.226   2.360  12.487 -0.7397 -0.1681  0.0314
15327TIP3    H167472   1.179   2.290  12.532 -3.0936 -0.2443 -2.3117
15327TIP3    H267473   1.168   2.435  12.493 -0.1506  0.4002 -1.0556
15328TIP3   OH267474   0.917   5.135  11.104  0.2676  0.6359 -0.3367
15328TIP3    H167475   0.991   5.105  11.052 -0.3219 -2.7699  0.5528
15328TIP3    H267476   0.850   5.158  11.039  0.8294  0.1735 -1.0911
15329TIP3   OH267477   5.506   0.548   0.743  0.0815  0.1444  0.0706
15329TIP3    H167478   5.572   0.479   0.743  0.1245  0.1547  1.4168
15329TIP3    H267479   5.556   0.629   0.749 -0.0159  0.2133 -0.0491
15330TIP3   OH267480   5.370   0.891  13.767  0.2177 -0.2334 -0.0757
15330TIP3    H167481   5.440   0.894  13.703  0.6420 -1.0617  0.3359
15330TIP3    H267482   5.395   0.820  13.827 -0.1499  0.5467  1.0233
15331TIP3   OH267483   2.447   3.643  13.840  0.0559  0.0506  0.1025
15331TIP3    H167484   2.448   3.719  13.781 -1.1165 -0.4681 -0.6329
15331TIP3    H267485   2.361   3.647  13.882 -0.4397 -1.4072 -0.7058
15332TIP3   OH267486   6.626   3.652  15.281  0.4992 -0.0016  0.6933
15332TIP3    H167487   6.691   3.697  15.227 -1.2761 -0.3540 -1.9494
15332TIP3    H267488   6.602   3.715  15.348  3.3070  0.2234  1.5993
15333TIP3   OH267489   5.081   6.083  13.721 -0.2247 -0.0482 -0.3769
15333TIP3    H167490   5.166   6.050  13.693 -0.1629  1.1278 -1.7150
15333TIP3    H267491   5.097   6.176  13.740 -1.1345  0.1143 -0.3709
15334TIP3   OH267492   4.017   6.644  16.789  0.1295 -0.1370 -0.1829
15334TIP3    H167493   3.973   6.689  16.716  0.7847  0.7431 -0.0507
15334TIP3    H267494   3.961   6.568  16.807  0.3718 -0.8561 -2.1349
15335TIP3   OH267495   3.637   3.390   2.987  0.5022  0.7355  0.0309
15335TIP3    H167496   3.549   3.422   3.007 -0.3219 -0.9886 -0.6184
15335TIP3    H267497   3.678   3.376   3.073 -0.5927 -0.3159  0.4090
15336TIP3   OH267498   4.185   3.090  12.113  0.1875 -0.9910  0.0402
15336TIP3    H167499   4.244   3.020  12.141  0.1571 -1.0901 -0.1428
15336TIP3    H267500   4.233   3.171  12.130  0.1023 -1.0385  0.5459
15337TIP3   OH267501   1.255   1.037  15.482  0.1855 -0.6887  0.6294
15337TIP3    H167502   1.182   1.007  15.536  1.3017 -1.1895  1.9184
15337TIP3    H267503   1.235   1.129  15.465 -0.9423 -0.9189  0.5936
15338TIP3   OH267504   6.367   5.079   1.525 -0.0692 -1.0785  0.0317
15338TIP3    H167505   6.421   5.151   1.559  0.3017 -1.9455  1.3187
15338TIP3    H267506   6.281   5.093   1.564 -0.1553 -1.0060 -0.1825
15339TIP3   OH267507   0.293   6.705  17.121  0.0384  0.3041 -0.2960
15339TIP3    H167508   0.269   6.748  17.040 -0.4651 -0.4834 -0.5748
15339TIP3    H267509   0.242   6.750  17.188  1.0504  1.4894 -0.2786
15340TIP3   OH267510   4.415   2.703  16.449 -0.0932  0.2675 -0.3861
15340TIP3    H167511   4.341   2.759  16.427  1.2011  1.8197 -0.9679
15340TIP3    H267512   4.467   2.700  16.369  0.3101 -1.1010 -0.0981
15341TIP3   OH267513   6.680   1.318  16.900  0.1042 -0.5125  0.4419
15341TIP3    H167514   6.652   1.332  16.810  3.2619 -0.4173 -0.6617
15341TIP3    H267515   6.637   1.237  16.927 -3.1020  0.8830 -0.0549
15342TIP3   OH267516   4.985   5.815   5.840 -0.2637  0.4310  0.4731
15342TIP3    H167517   4.948   5.899   5.867 -1.4014  0.1293 -0.1074
15342TIP3    H267518   5.031   5.834   5.759 -1.5867  0.2770 -0.3401
15343TIP3   OH267519   3.177   4.902  13.657  0.4247 -0.2210 -0.3308
15343TIP3    H167520   3.244   4.950  13.705 -0.5364 -0.6447  1.5483
15343TIP3    H267521   3.169   4.819  13.704 -1.0621 -0.3761 -0.8078
15344TIP3   OH267522   5.964   5.661   3.698 -0.0567 -0.1069  0.3821
15344TIP3    H167523   6.050   5.625   3.719  0.4145  0.4573 -0.5487
15344TIP3    H267524   5.941   5.622   3.614 -1.1707 -1.0261  1.0865
15345TIP3   OH267525   4.637   1.105   2.025 -0.2957 -0.3539 -0.6367
15345TIP3    H167526   4.718   1.081   2.071  0.3434 -0.2355 -1.6665
15345TIP3    H267527   4.632   1.200   2.036 -1.0363 -0.5055  0.5707
15346TIP3   OH267528   3.294   5.288  15.813 -0.5129 -0.6763  0.0242
15346TIP3    H167529   3.243   5.247  15.883  0.1356 -0.4764  0.6144
15346TIP3    H267530   3.346   5.355  15.856  1.2450 -1.7405 -0.3535
15347TIP3   OH267531   0.639   3.664  15.099  0.5496  0.3774  0.3518
15347TIP3    H167532   0.655   3.708  15.016 -0.5506  0.4258  0.1485
15347TIP3    H267533   0.630   3.734  15.163  0.3226  0.3861  0.3109
15348TIP3   OH267534   3.308   0.695  15.542 -0.0979 -0.5560  0.0354
15348TIP3    H167535   3.297   0.660  15.631 -1.1178 -2.0936 -0.6445
15348TIP3    H267536   3.363   0.772  15.553 -0.4524 -0.5296  2.0407
15349TIP3   OH267537   3.831   4.112   3.088 -0.0482  0.0509  0.2020
15349TIP3    H167538   3.891   4.100   3.014 -1.4325  0.5510 -1.0574
15349TIP3    H267539   3.855   4.197   3.125  1.5177 -0.7863  1.2018
15350TIP3   OH267540   3.857   2.206  12.229  0.1204 -0.0323 -0.2259
15350TIP3    H167541   3.877   2.276  12.291 -0.3323  0.6791 -0.8668
15350TIP3    H267542   3.793   2.151  12.275  0.9327 -0.3806  0.5119
15351TIP3   OH267543   5.920   0.842  10.404 -0.3360  0.2792 -0.1260
15351TIP3    H167544   5.954   0.827  10.493 -0.6959  2.4429  0.4415
15351TIP3    H267545   5.825   0.847  10.415 -0.4959 -0.8294 -0.8862
15352TIP3   OH267546   6.348   3.270   3.115 -0.2257 -0.0099  0.7352
15352TIP3    H167547   6.404   3.193   3.127  0.2710  0.0769 -0.7830
15352TIP3    H267548   6.261   3.241   3.143 -0.4054 -1.7015 -1.3495
15353TIP3   OH267549   2.778   4.421  11.202 -0.0151  1.3508 -0.2104
15353TIP3    H167550   2.838   4.419  11.128 -0.6181 -1.8580 -0.7874
15353TIP3    H267551   2.835   4.427  11.279  1.1071 -0.8172 -0.7777
15354TIP3   OH267552   4.131   2.556   4.144  0.2531 -0.7450 -0.5251
15354TIP3    H167553   4.098   2.477   4.188 -3.0336  1.1195  0.7618
15354TIP3    H267554   4.205   2.584   4.197 -0.7447 -1.0980  1.1584
15355TIP3   OH267555   3.907   3.251   4.571 -0.0429 -0.1075 -0.0596
15355TIP3    H167556   3.894   3.162   4.538  1.2072 -0.1311 -0.5097
15355TIP3    H267557   4.001   3.266   4.565 -0.4626  2.2832 -2.7202
15356TIP3   OH267558   1.517   3.550  15.155 -0.1610  0.5350 -0.1254
15356TIP3    H167559   1.595   3.495  15.144  0.5542  0.9789  2.1509
15356TIP3    H267560   1.482   3.559  15.067  0.9143 -1.7768 -0.8900
15357TIP3   OH267561   2.723   5.059  14.036  0.4937 -0.7314  0.1854
15357TIP3    H167562   2.747   4.997  14.104  1.7993  0.1913  0.5985
15357TIP3    H267563   2.803   5.107  14.017 -0.3194  0.3825 -0.6034
15358TIP3   OH267564   4.955   2.539  14.712 -0.0733 -0.5201 -0.4356
15358TIP3    H167565   5.034   2.519  14.761  0.0115  0.3655 -0.1913
15358TIP3    H267566   4.883   2.518  14.772 -0.0386 -1.4251 -0.6951
15359TIP3   OH267567   0.549   0.393  16.257  0.9304  0.1237 -0.4872
15359TIP3    H167568   0.544   0.334  16.332 -1.5498  1.4247  0.4609
15359TIP3    H267569   0.536   0.336  16.181  0.1290 -0.7643  0.2993
15360TIP3   OH267570   4.987   5.349  12.599 -0.3626 -0.6336 -0.5370
15360TIP3    H167571   4.991   5.323  12.507 -0.7534 -0.9772 -0.4605
15360TIP3    H267572   5.074   5.329  12.633 -0.3480 -0.8992 -0.7271
15361TIP3   OH267573   4.037   5.228   2.588 -0.3395 -0.2498 -0.1950
15361TIP3    H167574   4.102   5.171   2.629 -0.5420  0.8820  1.8275
15361TIP3    H267575   4.085   5.309   2.570 -0.3008 -0.6694 -2.1283
15362TIP3   OH267576   2.674   5.487  15.233  0.4756 -0.0764  0.3963
15362TIP3    H167577   2.591   5.480  15.186  0.6848 -2.8057  0.2642
15362TIP3    H267578   2.734   5.431  15.185  1.3467 -1.0969  2.5205
15363TIP3   OH267579   4.131   1.177  16.341 -0.2044 -0.1921 -0.0724
15363TIP3    H167580   4.052   1.194  16.392 -0.6839  0.3475 -0.9722
15363TIP3    H267581   4.195   1.145  16.406 -0.9025  0.1202  0.7946
15364TIP3   OH267582   0.266   5.318  17.011 -0.1122 -0.1870  0.6897
15364TIP3    H167583   0.350   5.362  16.998 -0.0674 -0.2875  0.6329
15364TIP3    H267584   0.258   5.259  16.936 -0.1291 -0.3369  0.8063
15365TIP3   OH267585   6.435   2.439  16.862  0.1768 -0.0977  0.5062
15365TIP3    H167586   6.483   2.418  16.782 -1.6634 -0.4842 -0.5754
15365TIP3    H267587   6.453   2.366  16.920 -0.8461 -1.3985 -0.7299
15366TIP3   OH267588   4.989   4.678   6.416 -0.0735  0.4134 -0.4453
15366TIP3    H167589   4.997   4.731   6.336 -0.7825 -1.5157 -1.8816
15366TIP3    H267590   4.963   4.741   6.484  0.6117  2.1287 -1.7064
15367TIP3   OH267591   2.875   4.379  11.472  0.0310 -0.3247 -0.5087
15367TIP3    H167592   2.852   4.404  11.562 -0.1773 -0.4675 -0.5208
15367TIP3    H267593   2.966   4.351  11.478 -0.6108 -2.4817  0.1160
15368TIP3   OH267594   3.281   2.158   1.238  0.8618  0.2679  0.5415
15368TIP3    H167595   3.187   2.153   1.253  0.4367 -0.4652 -1.8666
15368TIP3    H267596   3.317   2.080   1.279 -0.1379 -1.3851 -1.5394
15369TIP3   OH267597   2.371   6.031  15.099  0.2219  0.1335 -0.3891
15369TIP3    H167598   2.333   6.116  15.079  0.3931  0.2268 -0.3175
15369TIP3    H267599   2.379   5.987  15.015  1.8617  0.9034 -0.6644
15370TIP3   OH267600   3.996   6.386   2.789  0.1385 -0.9107 -0.4077
15370TIP3    H167601   4.064   6.322   2.808  0.9422 -0.2461 -0.9915
15370TIP3    H267602   4.042   6.469   2.783 -0.8723 -0.2912  0.1810
15371TIP3   OH267603   5.305   6.602   5.076  0.1747 -0.1864 -0.6520
15371TIP3    H167604   5.341   6.576   5.161  1.5322  1.8576 -0.5424
15371TIP3    H267605   5.358   6.555   5.012 -0.9376 -1.8393 -0.4209
15372TIP3   OH267606   1.374   3.552  11.906  0.6116 -0.0544 -0.1195
15372TIP3    H167607   1.384   3.621  11.971 -1.5840  1.3404 -1.1638
15372TIP3    H267608   1.434   3.575  11.836 -0.2760  0.9815 -0.5656
15373TIP3   OH267609   5.944   0.021   4.624  0.1873 -0.8432 -0.3661
15373TIP3    H167610   5.975  -0.065   4.595  0.1250 -0.6837 -0.9176
15373TIP3    H267611   5.848   0.013   4.623  0.1843 -0.8291 -0.2238
15374TIP3   OH267612   4.292   4.669   0.791 -0.0895 -0.1253 -0.5093
15374TIP3    H167613   4.260   4.660   0.702  0.0720 -0.7451 -0.5100
15374TIP3    H267614   4.282   4.762   0.811 -1.4699 -0.2195 -0.6637
15375TIP3   OH267615   0.694   0.966   5.846 -0.3398  0.9748 -0.5452
15375TIP3    H167616   0.735   0.981   5.761 -2.6882 -0.0821 -1.9884
15375TIP3    H267617   0.703   1.049   5.893  1.6225  1.3651 -1.5113
15376TIP3   OH267618   5.200   1.961  17.119 -0.6182  0.0160  0.0229
15376TIP3    H167619   5.139   1.938  17.049 -0.6775  0.2636 -0.0088
15376TIP3    H267620   5.285   1.968  17.076 -0.8562  1.3980 -0.2638
15377TIP3   OH267621   4.896   2.765  12.308 -0.0538 -0.3268 -0.5963
15377TIP3    H167622   4.990   2.772  12.291  0.0140  0.7403  0.1478
15377TIP3    H267623   4.886   2.679  12.349  1.1072  0.8033  2.2915
15378TIP3   OH267624   4.261   4.635  17.210  0.5244 -0.1686  0.5118
15378TIP3    H167625   4.349   4.671  17.220  0.4820 -0.3913  1.8510
15378TIP3    H267626   4.204   4.712  17.213  0.6377 -0.0587  0.0130
15379TIP3   OH267627   3.965   1.955  14.681  0.4848 -0.8673  0.0446
15379TIP3    H167628   4.020   1.886  14.645  2.1467  0.3513  0.1693
15379TIP3    H267629   3.897   1.968  14.614  1.3984 -1.1508 -0.9630
15380TIP3   OH267630   4.921   4.853  16.139 -0.2536 -0.0165  0.4920
15380TIP3    H167631   4.868   4.779  16.110  0.7677 -1.0626  1.2246
15380TIP3    H267632   4.858   4.925  16.148 -1.3614 -0.9295  0.3033
15381TIP3   OH267633   0.554   3.426  15.215  0.4935  0.1847 -0.1677
15381TIP3    H167634   0.616   3.496  15.197  0.8271  0.0483  0.4109
15381TIP3    H267635   0.567   3.405  15.307  0.7179 -0.9331 -0.4305
15382TIP3   OH267636   3.379   0.846  16.981 -0.0445 -0.4545 -0.3241
15382TIP3    H167637   3.434   0.777  16.942  0.7444 -0.7683  1.2761
15382TIP3    H267638   3.440   0.902  17.028 -1.0250 -0.5869  1.1784
15383TIP3   OH267639   3.561   3.228  14.152  0.0506  0.4741  0.1264
15383TIP3    H167640   3.506   3.245  14.229  1.0575 -0.0142  0.9722
15383TIP3    H267641   3.642   3.192  14.188  0.1482 -0.7486 -1.2358
15384TIP3   OH267642   4.336   5.068   3.830 -0.2942 -0.2927  0.1568
15384TIP3    H167643   4.327   4.990   3.885 -0.6976  1.2369  2.4440
15384TIP3    H267644   4.308   5.140   3.887 -0.1956  1.5084 -1.9290
15385TIP3   OH267645   1.859   5.602   5.687  0.0851  0.0934  0.4698
15385TIP3    H167646   1.823   5.682   5.649 -1.2312 -1.0575 -0.8666
15385TIP3    H267647   1.808   5.588   5.767  1.8471  1.7241  1.9692
15386TIP3   OH267648   5.016   3.522  15.174 -0.3279  0.7382  0.0362
15386TIP3    H167649   5.019   3.476  15.258 -1.6122  0.2556 -0.1642
15386TIP3    H267650   5.094   3.492  15.128 -0.4591 -0.2449  0.4247
15387TIP3   OH267651   4.761   4.539   5.410  0.1708  0.3657 -0.3305
15387TIP3    H167652   4.765   4.542   5.506  0.8327 -1.8244 -0.2572
15387TIP3    H267653   4.852   4.528   5.382  0.0750  1.7310 -1.2875
15388TIP3   OH267654   6.660   0.961  14.498  0.1480 -0.0953  0.4290
15388TIP3    H167655   6.723   0.892  14.519  0.2054 -0.1942 -0.0660
15388TIP3    H267656   6.703   1.042  14.527  0.1997 -0.2337  0.7473
15389TIP3   OH267657   4.826   6.044  14.626 -0.1152  0.4372 -0.1231
15389TIP3    H167658   4.844   5.961  14.583 -0.4135  0.5109 -0.4026
15389TIP3    H267659   4.854   6.032  14.716 -0.7883 -0.1986  0.0098
15390TIP3   OH267660   3.343   4.405  11.272 -0.0603 -0.0127 -1.0405
15390TIP3    H167661   3.371   4.331  11.218  0.1189  0.8338 -2.1645
15390TIP3    H267662   3.393   4.396  11.353 -0.5664 -1.4943 -0.8601
15391TIP3   OH267663   1.239   4.353   6.171  0.1463 -0.4974 -0.1744
15391TIP3    H167664   1.313   4.391   6.218 -0.2534  1.5477 -1.0842
15391TIP3    H267665   1.169   4.418   6.179 -1.6710 -2.4582  0.8152
15392TIP3   OH267666   4.229   4.863  13.298  0.3580  0.2430  0.3092
15392TIP3    H167667   4.161   4.796  13.297 -1.5950  2.1211 -0.6070
15392TIP3    H267668   4.305   4.820  13.257 -0.8596 -1.3590 -0.3779
15393TIP3   OH267669   5.397   6.414   2.396  0.1495  0.3974 -0.0896
15393TIP3    H167670   5.414   6.322   2.416 -0.3940  0.3016 -0.0312
15393TIP3    H267671   5.465   6.439   2.334  1.9269  0.6944  1.8507
15394TIP3   OH267672   3.218   1.688  13.457  0.0029 -0.5135 -0.6537
15394TIP3    H167673   3.165   1.666  13.380  0.6836 -1.3607 -0.8907
15394TIP3    H267674   3.278   1.615  13.467 -0.3839 -0.6550  0.9784
15395TIP3   OH267675   4.817   6.673  14.349 -0.0104  0.0142  0.7428
15395TIP3    H167676   4.780   6.748  14.395 -1.2290 -0.8195  1.1649
15395TIP3    H267677   4.891   6.646  14.403 -0.5967 -0.1152  1.4883
15396TIP3   OH267678   3.578   4.201  15.571  0.8168  0.1692 -0.0150
15396TIP3    H167679   3.563   4.278  15.516 -0.4316  0.8804  1.2737
15396TIP3    H267680   3.543   4.224  15.657 -2.3576 -2.8282 -0.2885
15397TIP3   OH267681   5.763   3.562   5.948  0.2256  0.3107  0.1498
15397TIP3    H167682   5.747   3.469   5.967  3.2999 -0.6018 -0.9780
15397TIP3    H267683   5.767   3.604   6.034 -1.4080 -0.5165  0.6735
15398TIP3   OH267684   1.340   0.676  11.156  0.3025  0.0762 -0.0427
15398TIP3    H167685   1.409   0.609  11.157 -1.3058 -1.6871 -1.1925
15398TIP3    H267686   1.286   0.655  11.232 -0.7983 -0.6262 -0.9938
15399TIP3   OH267687   0.631   3.975  11.679  0.0127 -0.2987  0.4885
15399TIP3    H167688   0.657   3.893  11.637  0.3048 -0.1428  0.3598
15399TIP3    H267689   0.568   4.013  11.619 -0.1954 -0.4747  0.5938
15400TIP3   OH267690   3.198   5.167   0.490  0.3079 -0.5233  0.4659
15400TIP3    H167691   3.215   5.229   0.561 -0.5066  0.5879 -0.2614
15400TIP3    H267692   3.249   5.200   0.416 -1.4933  0.3747 -0.4549
15401TIP3   OH267693   5.395   4.123   2.271 -0.5183 -0.8502  0.3165
15401TIP3    H167694   5.485   4.151   2.290  0.5758 -2.5268 -1.9454
15401TIP3    H267695   5.371   4.070   2.346 -0.2418  0.8128  1.6556
15402TIP3   OH267696   0.438   5.354  14.563 -0.0196  0.1227 -0.1642
15402TIP3    H167697   0.346   5.335  14.545  0.3231 -1.8500 -0.0457
15402TIP3    H267698   0.466   5.410  14.490 -1.1908  0.3871 -0.4255
15403TIP3   OH267699   1.395   0.458  15.859 -0.3713  0.3520  0.1630
15403TIP3    H167700   1.354   0.464  15.773  0.6182 -0.8768 -0.4340
15403TIP3    H267701   1.327   0.487  15.920 -2.1407 -1.4881 -0.7867
15404TIP3   OH267702   2.852   6.603   3.319 -0.0141  0.0927  0.3924
15404TIP3    H167703   2.935   6.627   3.277  0.8749  0.1168  2.0651
15404TIP3    H267704   2.825   6.682   3.366 -0.6393 -0.1248  0.4089
15405TIP3   OH267705   0.691   3.613  14.311  0.6514  0.3692 -0.2367
15405TIP3    H167706   0.610   3.636  14.265 -0.1616  0.7744  1.3155
15405TIP3    H267707   0.681   3.520  14.332  0.2033  0.5969  0.6292
15406TIP3   OH267708   3.171   6.772  12.112 -0.4188 -0.1949  0.0173
15406TIP3    H167709   3.264   6.787  12.098 -0.2156  1.8772  2.6411
15406TIP3    H267710   3.127   6.839  12.060 -0.2149  0.9293  1.2410
15407TIP3   OH267711   0.631   2.469   1.474  0.7778 -0.9931  0.1357
15407TIP3    H167712   0.563   2.505   1.417 -1.0703 -0.2567  2.6290
15407TIP3    H267713   0.694   2.541   1.485  0.2212 -0.5425  0.4048
15408TIP3   OH267714   0.580   0.919   2.710 -0.1219 -0.6394  0.4716
15408TIP3    H167715   0.633   0.942   2.786 -0.0225 -1.2789  0.6019
15408TIP3    H267716   0.568   0.824   2.717 -2.1581 -0.3830  1.0234
15409TIP3   OH267717   6.110   1.339   0.537  0.4195  0.0953  1.0266
15409TIP3    H167718   6.110   1.263   0.596  0.8924 -0.7817 -0.0469
15409TIP3    H267719   6.146   1.304   0.455  0.7123  1.5139  0.5327
15410TIP3   OH267720   6.157   1.298  14.484 -0.0804 -0.1441  0.7546
15410TIP3    H167721   6.140   1.236  14.555 -0.0695 -0.0487  0.8403
15410TIP3    H267722   6.179   1.243  14.409 -1.9546 -0.3264  0.3044
15411TIP3   OH267723   4.251   6.631   1.062 -0.7110  0.1174  0.5268
15411TIP3    H167724   4.287   6.718   1.084  2.0079 -0.3041 -1.7708
15411TIP3    H267725   4.308   6.570   1.108  1.2293 -0.5450 -2.4895
15412TIP3   OH267726   2.443   1.625  11.477 -0.3879 -0.2146  0.5952
15412TIP3    H167727   2.534   1.632  11.506  0.0061 -3.5624  0.5200
15412TIP3    H267728   2.397   1.589  11.553 -1.7986  1.6742  0.7175
15413TIP3   OH267729   5.799   1.683  16.684 -0.2947  0.1217 -0.1805
15413TIP3    H167730   5.719   1.730  16.705 -0.8765 -0.8036 -0.2879
15413TIP3    H267731   5.796   1.603  16.737 -0.5000 -0.9543 -1.7256
15414TIP3   OH267732   6.249   1.165  11.715  0.2833  0.2682 -0.2163
15414TIP3    H167733   6.299   1.148  11.795  0.4268  0.4917 -0.2576
15414TIP3    H267734   6.185   1.093  11.711 -1.5207  1.6436  1.5091
15415TIP3   OH267735   4.367   5.487  15.969  0.2723 -0.2805  0.2536
15415TIP3    H167736   4.412   5.403  15.956  0.6390  0.1036 -1.0819
15415TIP3    H267737   4.302   5.469  16.038  1.8255 -1.0771  1.5734
15416TIP3   OH267738   0.784   2.636  13.118 -0.4620  0.4342 -0.6013
15416TIP3    H167739   0.705   2.594  13.086  0.8239 -1.4790 -1.4132
15416TIP3    H267740   0.778   2.726  13.084 -1.3824 -0.2049 -2.2489
15417TIP3   OH267741   2.988   5.112  10.971  0.2904 -0.4941  0.3659
15417TIP3    H167742   3.070   5.079  10.936 -0.0660 -0.2192 -0.7815
15417TIP3    H267743   3.014   5.182  11.032  1.0347 -2.7174  2.7614
15418TIP3   OH267744   1.357   1.543  14.434 -0.0816 -0.5896  0.5427
15418TIP3    H167745   1.299   1.557  14.359 -2.1098 -0.9188  1.9700
15418TIP3    H267746   1.326   1.604  14.501  2.0490  0.1161  0.9849
15419TIP3   OH267747   6.067   0.793   1.643  0.4165  0.1958 -0.2084
15419TIP3    H167748   6.160   0.775   1.633  0.8051  2.6056 -2.0296
15419TIP3    H267749   6.050   0.865   1.581 -2.4651  0.4297  0.6980
15420TIP3   OH267750   6.479   3.590   5.172  0.1322  0.5638  0.2116
15420TIP3    H167751   6.507   3.554   5.088  2.1292  0.0765  1.0271
15420TIP3    H267752   6.537   3.666   5.185 -0.4101  0.8541  0.9914
15421TIP3   OH267753   2.930   0.683  16.106  0.2378  0.5032 -0.2980
15421TIP3    H167754   2.872   0.747  16.146 -0.2050 -0.6911  1.0374
15421TIP3    H267755   2.920   0.697  16.011 -1.1311  1.2536 -0.0599
15422TIP3   OH267756   2.311   3.945   3.713 -0.0252 -0.0827 -0.5711
15422TIP3    H167757   2.258   3.949   3.632 -1.1533 -0.4878  0.1223
15422TIP3    H267758   2.383   3.887   3.692 -0.9866 -1.1916 -0.9347
15423TIP3   OH267759   2.732   5.017  13.106  0.5152 -0.0968  0.0614
15423TIP3    H167760   2.763   5.025  13.016  0.7675  0.7341  0.2198
15423TIP3    H267761   2.671   5.090  13.117 -0.7496 -1.1069  0.0787
15424TIP3   OH267762   5.024   5.923   1.014  0.2862  0.0785  0.0106
15424TIP3    H167763   5.080   5.950   0.941 -0.1558 -0.5202 -0.5572
15424TIP3    H267764   4.946   5.887   0.972  0.0998 -0.4255  0.7817
15425TIP3   OH267765   3.852   4.719   2.325  0.4987 -0.5311 -0.0553
15425TIP3    H167766   3.924   4.779   2.344  0.0531  0.1506 -0.4657
15425TIP3    H267767   3.859   4.651   2.392 -0.5510  1.3585  2.0990
15426TIP3   OH267768   3.997   2.255  11.288  0.5621  0.4690 -0.0135
15426TIP3    H167769   3.906   2.251  11.260  0.9984 -1.2771 -1.3691
15426TIP3    H267770   4.000   2.202  11.368  0.1545  1.7322  0.8708
15427TIP3   OH267771   2.247   3.690  12.291  0.0618  0.0350  0.4070
15427TIP3    H167772   2.279   3.608  12.328 -0.1936  1.0423  3.1170
15427TIP3    H267773   2.304   3.707  12.217  1.1538 -1.7777  0.7804
15428TIP3   OH267774   3.417   4.696  15.131  0.2271  0.0604  0.3529
15428TIP3    H167775   3.454   4.721  15.215 -1.4995 -0.2285  1.2444
15428TIP3    H267776   3.342   4.640  15.153  0.6706 -1.3414 -1.4158
15429TIP3   OH267777   2.890   3.328   3.786  0.3250  0.1001  0.0666
15429TIP3    H167778   2.875   3.377   3.867  0.6702  0.0921  0.1371
15429TIP3    H267779   2.812   3.273   3.777  0.6217 -0.4596  0.7949
15430TIP3   OH267780   1.189   5.923  17.018  0.1845  0.0615  0.0023
15430TIP3    H167781   1.253   5.909  16.947  0.5479  1.8461 -0.0658
15430TIP3    H267782   1.106   5.935  16.972 -0.1390 -1.7070  0.0643
15431TIP3   OH267783   6.201   2.092  11.669 -0.4967  0.4599 -0.3046
15431TIP3    H167784   6.174   2.118  11.581 -1.2601 -2.2690 -0.9456
15431TIP3    H267785   6.291   2.061  11.658 -1.5716 -2.8654 -0.8984
15432TIP3   OH267786   4.118   1.798   0.642  0.2826 -0.9561  0.0433
15432TIP3    H167787   4.207   1.775   0.669  0.9843 -0.2566 -1.5144
15432TIP3    H267788   4.130   1.862   0.572 -1.5161  0.8602  1.2811
15433TIP3   OH267789   1.096   0.549   5.688 -0.4706 -0.2817  0.4557
15433TIP3    H167790   1.172   0.498   5.659 -0.1143  0.6304 -0.2570
15433TIP3    H267791   1.020   0.496   5.662 -0.2166  0.7585 -2.9004
15434TIP3   OH267792   0.412   1.680  11.464  0.1704 -0.7047 -0.7539
15434TIP3    H167793   0.405   1.590  11.432  0.9608 -0.3829 -1.8772
15434TIP3    H267794   0.445   1.671  11.553  0.4557 -1.5247 -0.9304
15435TIP3   OH267795   5.346   5.369  10.699 -0.4179 -0.4135 -0.3968
15435TIP3    H167796   5.291   5.439  10.664 -0.6641  0.3304  1.3724
15435TIP3    H267797   5.332   5.373  10.794 -1.0402 -3.3789 -0.2795
15436TIP3   OH267798   1.340   3.783  13.976  0.1344  0.1477 -0.0202
15436TIP3    H167799   1.267   3.816  13.922  1.0667  0.7612 -0.9342
15436TIP3    H267800   1.388   3.862  14.001  1.5176 -0.3622 -0.9551
15437TIP3   OH267801   3.662   1.067  11.147 -0.0287  0.3145 -1.0581
15437TIP3    H167802   3.609   1.118  11.086  1.5139 -0.8487 -3.5512
15437TIP3    H267803   3.607   0.994  11.173 -0.3531  0.2273 -1.9769
15438TIP3   OH267804   6.398   6.330   0.516 -0.2981  0.0052 -0.1847
15438TIP3    H167805   6.350   6.400   0.472  0.4989 -0.8828 -2.6874
15438TIP3    H267806   6.489   6.344   0.490 -0.1648 -2.1241 -1.0870
15439TIP3   OH267807   0.449   0.526   2.492  0.5137 -0.1464 -0.1356
15439TIP3    H167808   0.478   0.586   2.560  0.8515  0.2542 -0.6279
15439TIP3    H267809   0.384   0.470   2.535 -2.0990  2.4852 -0.3570
15440TIP3   OH267810   6.004   0.991   0.597  0.6780 -0.3743  0.7713
15440TIP3    H167811   5.968   1.065   0.646  0.2567  0.1916 -0.3495
15440TIP3    H267812   6.088   0.973   0.639 -1.4390 -2.7411  4.4865
15441TIP3   OH267813   3.943   0.183  11.586  0.5014  0.4232  0.2959
15441TIP3    H167814   3.871   0.190  11.524 -0.0367 -0.2342  0.8256
15441TIP3    H267815   4.022   0.179  11.532  0.1149  0.8292 -0.3023
15442TIP3   OH267816   2.099   6.816  15.135 -0.6007 -0.2798  0.1594
15442TIP3    H167817   2.108   6.836  15.042 -0.4746  0.0807  0.2457
15442TIP3    H267818   2.092   6.902  15.177 -1.2196 -0.4510  0.4244
15443TIP3   OH267819   3.121   0.685  17.011 -0.0828 -0.2852 -0.6383
15443TIP3    H167820   3.210   0.710  17.033 -0.4455  0.3565  0.1349
15443TIP3    H267821   3.097   0.741  16.938 -0.9681  1.9154  1.2163
15444TIP3   OH267822   0.615   5.455   0.706  0.7506 -0.7074 -0.0795
15444TIP3    H167823   0.625   5.501   0.623 -1.5080 -0.5564 -0.3434
15444TIP3    H267824   0.585   5.523   0.767 -2.7287 -1.6588 -0.4988
15445TIP3   OH267825   0.961   3.452   0.476 -0.1264 -0.3291 -0.2076
15445TIP3    H167826   0.956   3.357   0.486 -0.8471 -0.1742  1.3228
15445TIP3    H267827   0.870   3.482   0.481  0.1405  0.4842  0.1322
15446TIP3   OH267828   0.946   3.547   4.639 -0.5909 -0.5731  0.3825
15446TIP3    H167829   0.909   3.600   4.568  0.0754  0.9820  1.1643
15446TIP3    H267830   1.010   3.491   4.595 -1.4626 -0.9154 -0.4915
15447TIP3   OH267831   3.441   5.552   6.074 -0.0198  0.0204  0.1928
15447TIP3    H167832   3.405   5.506   6.149  0.3832 -0.6793 -0.0412
15447TIP3    H267833   3.504   5.613   6.112 -0.1173 -0.0371  0.4512
15448TIP3   OH267834   6.788   2.318  15.982  0.3419  0.6757  0.0758
15448TIP3    H167835   6.842   2.335  15.905  3.0303  1.1295  1.8945
15448TIP3    H267836   6.798   2.224  15.998 -0.1401  0.5971 -0.0886
15449TIP3   OH267837   5.064   4.140  16.556 -0.1687  0.0399  0.1285
15449TIP3    H167838   5.004   4.068  16.536  0.7528 -0.1019 -2.6406
15449TIP3    H267839   5.146   4.096  16.579 -0.4007  0.2297  1.3471
15450TIP3   OH267840   6.262   3.688   5.852  0.6493 -0.4586  0.5012
15450TIP3    H167841   6.222   3.620   5.797  2.4032 -0.9682 -0.2125
15450TIP3    H267842   6.286   3.642   5.932 -0.1441 -0.1587  0.9191
15451TIP3   OH267843   3.789   2.865  16.555 -0.2429  0.3047 -0.1879
15451TIP3    H167844   3.786   2.959  16.538 -1.4998  0.2259 -0.5057
15451TIP3    H267845   3.698   2.838  16.557  0.0412 -0.6820  1.2577
15452TIP3   OH267846   6.730   4.692   4.670  0.1960  0.0183 -0.0395
15452TIP3    H167847   6.745   4.786   4.667  1.0641 -0.0280  1.6783
15452TIP3    H267848   6.794   4.659   4.734 -2.3755 -1.2673  2.0608
15453TIP3   OH267849   0.280   5.170  13.232 -0.0251  0.0850  0.0692
15453TIP3    H167850   0.362   5.161  13.183 -0.6869 -1.9772 -0.7643
15453TIP3    H267851   0.295   5.124  13.314 -0.9577 -2.2298 -0.9718
15454TIP3   OH267852   3.573   0.287  13.341  0.5222  0.0535 -0.3181
15454TIP3    H167853   3.611   0.365  13.300  0.9132 -0.0474 -0.1516
15454TIP3    H267854   3.482   0.286  13.311  0.7682  0.0450 -1.0873
15455TIP3   OH267855   2.941   5.111  12.337  0.0224  0.2000  0.0474
15455TIP3    H167856   2.924   5.120  12.243 -0.2028  0.0686  0.0751
15455TIP3    H267857   2.856   5.125  12.378  0.1139  0.2174  0.2299
15456TIP3   OH267858   2.059   5.797  12.725  0.5216 -0.2488  0.0290
15456TIP3    H167859   2.045   5.869  12.663  0.9191 -0.3168 -0.1450
15456TIP3    H267860   2.114   5.835  12.793  2.0200 -0.7685 -0.8322
15457TIP3   OH267861   5.060   1.856  13.065  0.3600 -0.1371 -0.0237
15457TIP3    H167862   5.100   1.786  13.116 -0.6606 -0.3489  0.5071
15457TIP3    H267863   5.011   1.811  12.996  0.9806  0.1195 -0.6476
15458TIP3   OH267864   0.717   0.109  15.585 -0.2757 -0.4252  0.5051
15458TIP3    H167865   0.716   0.046  15.514 -0.6044 -1.8430  1.7257
15458TIP3    H267866   0.758   0.187  15.547 -1.3362 -0.7843 -1.4903
15459TIP3   OH267867   1.164   6.082  12.995 -0.1324  0.1123 -0.2708
15459TIP3    H167868   1.105   6.153  12.970 -0.3921 -0.5375 -1.5828
15459TIP3    H267869   1.225   6.122  13.057 -1.0037  1.1713 -0.0622
15460TIP3   OH267870   0.541   3.147  13.550  0.1423  0.1556  0.3125
15460TIP3    H167871   0.490   3.220  13.585 -0.8799 -0.1123 -0.5477
15460TIP3    H267872   0.552   3.168  13.457 -1.0776 -1.2540 -0.1914
15461TIP3   OH267873   6.105   5.607  10.421 -0.1470  0.0061 -0.5946
15461TIP3    H167874   6.097   5.694  10.460  1.3306 -0.5475  1.0596
15461TIP3    H267875   6.019   5.567  10.434  0.0276  0.1589  1.4190
15462TIP3   OH267876   0.580   0.850  14.595 -0.2268 -0.3985 -0.0946
15462TIP3    H167877   0.618   0.791  14.661  0.5832 -1.6833 -1.6264
15462TIP3    H267878   0.655   0.897  14.559 -0.8720  1.6790  1.1197
15463TIP3   OH267879   0.080   3.217  15.974 -0.1972  0.0535  0.0919
15463TIP3    H167880   0.107   3.164  15.900 -0.0110  1.7930 -1.1639
15463TIP3    H267881  -0.008   3.247  15.952 -0.2450  0.3835  0.6884
15464TIP3   OH267882   4.798   5.751   2.637  0.3021  0.3563  0.2708
15464TIP3    H167883   4.737   5.815   2.674 -0.0581  0.2935 -0.1931
15464TIP3    H267884   4.877   5.801   2.616  0.8211  0.2436  1.8480
15465TIP3   OH267885   5.880   0.554   3.922 -0.1719 -0.7418 -0.3358
15465TIP3    H167886   5.917   0.642   3.926 -0.9091 -0.2838 -2.3475
15465TIP3    H267887   5.861   0.531   4.013  3.8983 -0.5691  0.7701
15466TIP3   OH267888   4.033   3.460  10.467  0.2028 -0.6946 -0.4363
15466TIP3    H167889   3.972   3.442  10.396 -0.3189 -0.0727 -0.1668
15466TIP3    H267890   4.043   3.377  10.513  0.6447 -1.1306 -1.3044
15467TIP3   OH267891   6.273   6.750  14.615 -0.0295 -0.3148 -0.1434
15467TIP3    H167892   6.200   6.687  14.616  0.2831 -0.6803  0.0618
15467TIP3    H267893   6.231   6.835  14.626 -0.4088 -0.5414  0.2290
15468TIP3   OH267894   6.088   5.526  15.833  0.8530 -0.3863 -0.6625
15468TIP3    H167895   6.014   5.529  15.892  1.1432  2.1080 -0.3471
15468TIP3    H267896   6.050   5.527  15.745  0.5089 -1.1799 -0.5346
15469TIP3   OH267897   2.994   2.228  14.291  0.5380 -0.1844 -0.0584
15469TIP3    H167898   2.961   2.249  14.204  0.9226 -0.0597 -0.1782
15469TIP3    H267899   2.968   2.137  14.305 -0.6365  0.1836  0.2256
15470TIP3   OH267900   0.928   0.115   1.086  0.5367  0.7852  0.6009
15470TIP3    H167901   0.984   0.182   1.047  1.5994 -0.4987 -0.1777
15470TIP3    H267902   0.839   0.148   1.076  0.7301  0.6701 -2.7954
15471TIP3   OH267903   0.114   0.533   4.250  0.0407 -0.5420  0.3289
15471TIP3    H167904   0.207   0.511   4.240 -0.3510 -2.2320  0.0870
15471TIP3    H267905   0.073   0.450   4.277 -1.1998  0.4799  1.7077
15472TIP3   OH267906   5.760   1.696   5.402 -0.3378 -0.7843  0.0119
15472TIP3    H167907   5.670   1.668   5.414 -0.9346 -0.3252 -2.8795
15472TIP3    H267908   5.779   1.681   5.310  2.2027  0.1430  0.2961
15473TIP3   OH267909   1.386   5.201  15.099  0.4514  0.0297 -0.1510
15473TIP3    H167910   1.441   5.196  15.177  0.6599  0.5831 -0.2559
15473TIP3    H267911   1.414   5.281  15.055  0.2042 -0.1764 -0.6968
15474TIP3   OH267912   6.463   4.552   4.604 -0.2685 -0.6326 -0.1373
15474TIP3    H167913   6.530   4.608   4.643 -0.3730 -0.7294  0.1799
15474TIP3    H267914   6.483   4.465   4.636  0.4654 -0.9565 -1.3771
15475TIP3   OH267915   1.313   6.345   1.518 -0.1559 -0.6701  0.4334
15475TIP3    H167916   1.378   6.322   1.584  0.5698 -0.6301 -0.2432
15475TIP3    H267917   1.302   6.440   1.528  0.0786 -0.6373  0.3882
15476TIP3   OH267918   3.124   0.823  14.762  0.0507 -0.1337  0.0981
15476TIP3    H167919   3.064   0.782  14.700  0.8842  0.4028 -1.0815
15476TIP3    H267920   3.070   0.836  14.841 -0.6678 -1.9990 -0.0160
15477TIP3   OH267921   6.492   0.276   0.553 -0.9261 -0.0919  0.9396
15477TIP3    H167922   6.481   0.313   0.465 -0.6845 -0.0967  0.9062
15477TIP3    H267923   6.410   0.229   0.570 -1.8404  1.6425  1.5656
15478TIP3   OH267924   1.206   4.916   3.939  0.2953 -0.3066  0.5047
15478TIP3    H167925   1.224   4.824   3.957 -0.6563 -0.4744  0.6567
15478TIP3    H267926   1.110   4.922   3.939  0.2701  0.1834 -1.9177
15479TIP3   OH267927   4.199   0.136   4.565 -0.3127 -0.2688  0.6683
15479TIP3    H167928   4.119   0.132   4.512  1.6474  0.3687 -2.6985
15479TIP3    H267929   4.233   0.047   4.563 -0.3612 -0.2970  1.1061
15480TIP3   OH267930   0.749   3.750  14.824  0.0654  0.5647 -0.6555
15480TIP3    H167931   0.808   3.733  14.751  0.1837 -0.6886 -0.2902
15480TIP3    H267932   0.662   3.727  14.791  0.2084 -0.7109 -0.2038
15481TIP3   OH267933   2.638   6.499  13.622  0.0085 -0.2884 -0.5944
15481TIP3    H167934   2.679   6.424  13.666 -2.6698 -1.5797 -0.1236
15481TIP3    H267935   2.577   6.461  13.560 -1.5541  1.4602 -0.2370
15482TIP3   OH267936   2.918   2.151  15.283  0.1807  0.1029 -0.0730
15482TIP3    H167937   3.013   2.142  15.274  0.5885  4.1932 -1.8754
15482TIP3    H267938   2.906   2.235  15.327 -2.5973  0.2801 -0.9892
15483TIP3   OH267939   3.064   4.087   6.021  0.0624  0.4078 -0.1431
15483TIP3    H167940   3.053   4.128   6.107 -0.7887  0.3435 -0.2074
15483TIP3    H267941   3.131   4.021   6.034  0.4523  0.8813  0.2986
15484TIP3   OH267942   1.704   6.358   1.214  0.0110 -0.2340 -0.2707
15484TIP3    H167943   1.636   6.294   1.233 -0.6398  0.6773  0.5983
15484TIP3    H267944   1.670   6.408   1.140  0.2556 -0.5077 -0.5709
15485TIP3   OH267945   6.347   2.654  17.020 -0.2387 -0.0743  0.0445
15485TIP3    H167946   6.395   2.626  17.098 -0.3834 -0.3500  0.0340
15485TIP3    H267947   6.363   2.585  16.956 -0.7472 -0.2311  0.0794
15486TIP3   OH267948   3.002   4.809  11.983 -0.2770  0.1930  0.6293
15486TIP3    H167949   3.082   4.762  12.005 -0.0674 -0.0298 -0.5413
15486TIP3    H267950   3.031   4.899  11.964 -0.3101  0.1431  0.3274
15487TIP3   OH267951   2.130   6.611   2.226  0.4904  0.1158 -0.2020
15487TIP3    H167952   2.080   6.656   2.158  2.2349  0.8095 -1.0914
15487TIP3    H267953   2.167   6.682   2.279  0.2245 -0.3929  0.6897
15488TIP3   OH267954   0.990   2.941   3.909  0.2110 -0.4830  0.2780
15488TIP3    H167955   0.921   2.954   3.974  0.6621 -0.4455  0.7531
15488TIP3    H267956   1.071   2.962   3.955  0.4930  0.0506 -0.4509
15489TIP3   OH267957   4.219   6.011  12.914  0.0865  0.5294 -0.4471
15489TIP3    H167958   4.274   5.933  12.922  0.7288  0.8996 -1.1033
15489TIP3    H267959   4.134   5.985  12.950  1.0038  0.2926  1.7548
15490TIP3   OH267960   4.264   4.534   1.532  0.1567 -0.3174 -0.3121
15490TIP3    H167961   4.173   4.507   1.546  0.1406  0.2132  0.6684
15490TIP3    H267962   4.266   4.564   1.441 -1.4940  2.8466  0.5306
15491TIP3   OH267963   2.127   1.103   5.513  0.1064 -0.1247  0.0787
15491TIP3    H167964   2.097   1.024   5.558 -1.2068 -0.1104 -0.7416
15491TIP3    H267965   2.052   1.162   5.515  1.1680  1.2650  0.9783
15492TIP3   OH267966   4.808   6.156   1.204 -0.1481 -0.7454  0.3405
15492TIP3    H167967   4.898   6.185   1.193 -0.2419  0.5390  2.3752
15492TIP3    H267968   4.807   6.108   1.287 -1.5701  0.6300  1.1948
15493TIP3   OH267969   1.177   2.552  15.815 -0.4342  1.0393 -0.1054
15493TIP3    H167970   1.236   2.565  15.740 -0.4573 -0.8421 -0.5080
15493TIP3    H267971   1.112   2.622  15.807  0.3083  1.6529 -1.0877
15494TIP3   OH267972   4.811   2.070   2.644 -0.3494 -0.0315  0.2437
15494TIP3    H167973   4.894   2.101   2.608 -0.7565  0.4732 -0.2858
15494TIP3    H267974   4.834   2.032   2.728  0.3854  0.3425  0.2203
15495TIP3   OH267975   6.678   0.008   2.490 -0.2918  0.2203 -0.1678
15495TIP3    H167976   6.756  -0.047   2.497 -0.4392 -0.1677 -1.3337
15495TIP3    H267977   6.696   0.083   2.546  1.3532  0.6275 -1.1730
15496TIP3   OH267978   0.204   0.308  11.479  0.3298  0.0396  0.0760
15496TIP3    H167979   0.238   0.293  11.391  0.7736  0.2219  0.2095
15496TIP3    H267980   0.169   0.224  11.506 -2.0645  0.5391 -1.1974
15497TIP3   OH267981   3.556   0.147  14.372 -0.1511 -0.4743  0.0911
15497TIP3    H167982   3.536   0.069  14.321 -2.6628  0.1600 -0.0645
15497TIP3    H267983   3.569   0.115  14.461 -0.1790 -1.1640 -0.1514
15498TIP3   OH267984   3.754   2.549   2.808 -0.3900 -0.2935 -0.3073
15498TIP3    H167985   3.659   2.544   2.817 -0.4848 -1.0486 -1.4593
15498TIP3    H267986   3.781   2.615   2.871 -1.6263 -0.4127  0.3813
15499TIP3   OH267987   3.480   1.525  16.130 -0.3461 -0.4187  0.0676
15499TIP3    H167988   3.499   1.507  16.038 -0.5977  2.0508 -0.5517
15499TIP3    H267989   3.536   1.465  16.178  0.4939 -1.1390 -1.6977
15500TIP3   OH267990   0.368   3.967   0.748 -0.1310 -0.1500  0.0498
15500TIP3    H167991   0.388   4.014   0.667 -0.5854 -2.0370 -1.2267
15500TIP3    H267992   0.292   3.913   0.725 -2.0087  1.2018  2.5433
15501TIP3   OH267993   6.612   2.816   1.198 -0.0346 -0.2986  0.2430
15501TIP3    H167994   6.672   2.857   1.136 -0.2439 -0.7294 -0.2538
15501TIP3    H267995   6.559   2.888   1.232 -1.3165 -0.2936 -1.6342
15502TIP3   OH267996   4.689   0.662  15.731  0.2355  0.2459  0.4771
15502TIP3    H167997   4.706   0.586  15.674 -1.4769 -0.3055  0.6318
15502TIP3    H267998   4.726   0.736  15.684  0.5728 -0.4683 -0.4200
15503TIP3   OH267999   0.141   2.195   4.060 -0.5067 -0.1444  0.0360
15503TIP3    H168000   0.064   2.239   4.097 -0.7478  0.3112 -0.9700
15503TIP3    H268001   0.137   2.106   4.094  0.0388  0.6016  2.2004
15504TIP3   OH268002   5.929   0.857   4.975  0.5052  0.3145  1.4402
15504TIP3    H168003   5.959   0.948   4.970 -0.4097  0.5857  0.3660
15504TIP3    H268004   5.837   0.864   5.001 -0.5119 -0.0455 -1.5941
15505TIP3   OH268005   2.958   6.235   3.312 -0.1427 -0.3487 -0.1334
15505TIP3    H168006   2.946   6.306   3.249  1.1609  0.7766  0.8284
15505TIP3    H268007   2.876   6.186   3.309 -0.3710  0.0913 -2.1676
15506TIP3   OH268008   3.349   4.708   5.261  0.1529  0.4763  0.3731
15506TIP3    H168009   3.349   4.657   5.341  0.6661  0.9091  0.6595
15506TIP3    H268010   3.321   4.647   5.193  1.8452 -0.5067  0.5146
15507TIP3   OH268011   2.055   5.561   0.622  0.1580 -0.1860 -0.6383
15507TIP3    H168012   2.071   5.630   0.687 -0.0588  0.4638 -1.2665
15507TIP3    H268013   1.984   5.508   0.660  0.5537 -0.2729 -0.0021
15508TIP3   OH268014   6.081   2.146   5.284 -0.3271  0.6199  0.0197
15508TIP3    H168015   6.048   2.153   5.373 -1.8204  0.3008 -0.4766
15508TIP3    H268016   6.128   2.228   5.269  0.7887  0.2590  1.4127
15509TIP3   OH268017   1.880   0.796   6.265 -0.5470 -0.2708 -0.2199
15509TIP3    H168018   1.818   0.823   6.198  0.4242  0.8209 -0.7355
15509TIP3    H268019   1.838   0.819   6.348 -0.1606  2.1796 -0.6094
15510TIP3   OH268020   3.632   2.705   4.346 -0.1177  0.1590 -0.0804
15510TIP3    H168021   3.711   2.729   4.298 -0.1069 -0.0668 -0.1748
15510TIP3    H268022   3.663   2.677   4.432 -0.2514  2.0814  0.6308
15511TIP3   OH268023   3.004   4.357   2.759 -0.2903 -0.3470  0.2081
15511TIP3    H168024   3.019   4.451   2.750 -0.1105 -0.5361 -2.5936
15511TIP3    H268025   3.076   4.326   2.813  0.3928  0.9664  0.1028
15512TIP3   OH268026   6.283   6.765   0.818  0.0433  0.1973  0.4470
15512TIP3    H168027   6.372   6.758   0.783 -0.8242  2.4170 -2.6513
15512TIP3    H268028   6.292   6.815   0.899  1.5491  1.2249 -0.3169
15513TIP3   OH268029   0.834   3.735  17.184 -0.6771  0.2029  0.4422
15513TIP3    H168030   0.868   3.706  17.268  0.0316  0.1792  0.1567
15513TIP3    H268031   0.912   3.757  17.133 -1.1204  0.6831 -0.0362
15514TIP3   OH268032   2.412   1.144   5.151 -0.0798  0.7013 -0.4601
15514TIP3    H168033   2.392   1.054   5.123 -0.2734  0.8084 -0.6772
15514TIP3    H268034   2.435   1.136   5.243  1.7897  0.1659 -0.9235
15515TIP3   OH268035   4.790   1.079  16.640  0.4237 -0.1289 -0.5839
15515TIP3    H168036   4.745   1.154  16.601 -0.4022 -0.9511 -1.2834
15515TIP3    H268037   4.877   1.080  16.602  1.1123  1.5895  0.9153
15516TIP3   OH268038   5.817   6.601  13.835  0.5360 -0.5576 -0.4877
15516TIP3    H168039   5.785   6.612  13.745  0.1751  0.5975 -0.2384
15516TIP3    H268040   5.835   6.508  13.843  0.4801 -0.6929 -1.7326
15517TIP3   OH268041   1.661   3.864  15.039 -0.1107 -0.0312  0.2024
15517TIP3    H168042   1.625   3.831  15.122 -0.2838  0.6073  0.3818
15517TIP3    H268043   1.610   3.942  15.020 -0.0784 -0.1761 -0.5178
15518TIP3   OH268044   2.191   2.695   6.033 -0.3651 -0.4385  0.4802
15518TIP3    H168045   2.180   2.613   5.985  1.2166 -0.7939  0.6721
15518TIP3    H268046   2.273   2.684   6.081  0.5777  1.7100 -0.4674
15519TIP3   OH268047   6.406   2.679   5.835 -1.0277 -0.3438 -0.3734
15519TIP3    H168048   6.476   2.740   5.856  0.7058 -1.9568 -1.2220
15519TIP3    H268049   6.417   2.660   5.742 -1.4661 -1.9656 -0.1276
15520TIP3   OH268050   2.892   2.364   3.780 -0.1924 -0.4603 -0.1700
15520TIP3    H168051   2.970   2.355   3.834 -0.3758 -1.5508 -0.0564
15520TIP3    H268052   2.908   2.307   3.705 -0.6389 -0.2636 -0.4175
15521TIP3   OH268053   6.237   4.859   1.946  0.2371 -0.5131  0.1313
15521TIP3    H168054   6.183   4.885   2.020  0.7619  0.7927  0.0802
15521TIP3    H268055   6.244   4.764   1.954 -2.7023 -0.8568 -0.3329
15522TIP3   OH268056   5.180   4.604   1.136  0.3266 -0.4373 -0.6252
15522TIP3    H168057   5.217   4.665   1.200  1.0087 -0.8027 -0.6641
15522TIP3    H268058   5.253   4.582   1.079 -0.1728 -0.4722 -1.2534
15523TIP3   OH268059   4.783   5.926   4.250 -0.6805 -0.2725 -0.0865
15523TIP3    H168060   4.792   6.019   4.228 -1.1059 -0.3978 -0.7925
15523TIP3    H268061   4.873   5.893   4.251 -0.2373  0.7161  2.8257
15524TIP3   OH268062   5.924   3.695  11.887 -0.0868  0.5364 -0.0066
15524TIP3    H168063   5.978   3.771  11.908 -0.3004  0.1514  2.2319
15524TIP3    H268064   5.979   3.640  11.832  1.6369  0.4119  1.7466
15525TIP3   OH268065   2.076   4.167   5.199 -0.0455 -0.0501  0.5203
15525TIP3    H168066   2.007   4.206   5.146  1.3827  1.0375 -0.6071
15525TIP3    H268067   2.047   4.076   5.213 -1.2527  0.1146 -0.6878
15526TIP3   OH268068   0.916   6.818  14.100  0.4296  0.0360 -0.0911
15526TIP3    H168069   0.910   6.724  14.082  0.3634  0.5989 -3.9940
15526TIP3    H268070   0.999   6.844  14.060 -0.2694  1.8472 -0.4533
15527TIP3   OH268071   6.003   4.785  16.866  0.4631  0.0977 -0.2143
15527TIP3    H168072   5.914   4.818  16.859  0.3421  0.1312  1.2650
15527TIP3    H268073   6.043   4.839  16.934  1.1465 -0.9183  0.2062
15528TIP3   OH268074   1.998   6.306   0.127  0.5470 -0.1229 -0.2974
15528TIP3    H168075   1.935   6.321   0.056 -1.0442  0.5031  1.1637
15528TIP3    H268076   1.974   6.220   0.163  0.4485  0.1462  0.3059
15529TIP3   OH268077   6.511   5.538   4.871 -0.2279 -0.2791  0.2004
15529TIP3    H168078   6.437   5.525   4.812 -0.4682  0.3386  0.3564
15529TIP3    H268079   6.526   5.632   4.871 -0.2301 -0.2693  1.1244
15530TIP3   OH268080   0.282   2.265   6.351 -0.2931 -0.0528  0.0132
15530TIP3    H168081   0.350   2.330   6.336  0.1974 -0.4313  0.5373
15530TIP3    H268082   0.199   2.313   6.341  0.0311  0.2633 -1.2806
15531TIP3   OH268083   2.413   4.520   3.402 -0.0200  0.3512 -0.2798
15531TIP3    H168084   2.504   4.547   3.413  0.7513 -1.6640 -1.1983
15531TIP3    H268085   2.382   4.571   3.328  1.1003 -0.4779 -1.3718
15532TIP3   OH268086   5.704   4.846  13.202 -0.4008  0.0474 -0.5917
15532TIP3    H168087   5.662   4.863  13.118 -2.2010 -0.1882  0.2180
15532TIP3    H268088   5.635   4.860  13.267  0.5481 -1.1826  0.7509
15533TIP3   OH268089   6.361   1.725   0.291  0.1344  0.0164  1.1857
15533TIP3    H168090   6.405   1.674   0.223 -1.7367 -1.1068  0.7417
15533TIP3    H268091   6.328   1.659   0.353 -0.7459  0.7973  1.5806
15534TIP3   OH268092   1.377   2.718  14.813  0.0269  0.1153  0.1653
15534TIP3    H168093   1.414   2.630  14.813  0.9516  0.4546  1.6209
15534TIP3    H268094   1.441   2.771  14.766  0.2645  0.2859  0.6738
15535TIP3   OH268095   1.843   4.460   0.349  0.5253  0.1452 -0.4922
15535TIP3    H168096   1.923   4.496   0.311 -0.0947  2.4175  0.1708
15535TIP3    H268097   1.832   4.508   0.432 -0.9063 -0.9420 -0.0098
15536TIP3   OH268098   0.389   1.341   5.055 -0.5625 -0.3556  0.1066
15536TIP3    H168099   0.309   1.393   5.051 -1.3925 -1.5626  0.3466
15536TIP3    H268100   0.449   1.393   5.108 -1.7685 -0.1737  1.3473
15537TIP3   OH268101   4.834   4.867   0.016 -0.8128 -0.0436 -0.4774
15537TIP3    H168102   4.841   4.782   0.059  0.8450  0.4057  0.2116
15537TIP3    H268103   4.816   4.846  -0.076 -0.1115 -1.1542 -0.3760
15538TIP3   OH268104   1.016   2.154  12.581  0.4796  0.1829  0.3744
15538TIP3    H168105   0.988   2.075  12.534  1.8290 -1.3931  2.0743
15538TIP3    H268106   1.052   2.121  12.663  0.5272  2.6495  1.4158
15539TIP3   OH268107   3.524   5.529   4.411 -0.5930  0.3016 -0.0768
15539TIP3    H168108   3.572   5.517   4.492  2.0747 -0.6053 -1.6704
15539TIP3    H268109   3.551   5.456   4.356 -0.8466  1.8603 -2.4350
15540TIP3   OH268110   6.024   4.645   5.420 -0.1542  0.4440  0.7441
15540TIP3    H168111   6.023   4.615   5.511  0.3096  2.3944  1.4444
15540TIP3    H268112   6.016   4.565   5.368 -2.7315 -0.5638  2.4856
15541TIP3   OH268113   0.054   2.711  11.788 -0.1383 -0.5081 -0.6089
15541TIP3    H168114   0.053   2.626  11.745 -2.6511  0.3103 -2.3372
15541TIP3    H268115   0.104   2.767  11.729  1.4304 -0.6529  0.4830
15542TIP3   OH268116   3.933   5.585   2.875 -0.3209 -0.3942  0.4902
15542TIP3    H168117   3.967   5.643   2.943 -3.2919  4.3468 -1.5183
15542TIP3    H268118   3.838   5.587   2.887 -0.7827 -1.4968 -2.1714
15543TIP3   OH268119   0.405   0.172   0.784 -0.1300  0.0958 -0.1107
15543TIP3    H168120   0.428   0.110   0.715 -0.0723  0.3324 -0.3030
15543TIP3    H268121   0.309   0.168   0.788 -0.2303  1.0561 -1.1159
15544TIP3   OH268122   4.474   2.568   0.868 -0.2302  0.1230 -0.0753
15544TIP3    H168123   4.535   2.630   0.907  0.4142 -1.0106  0.7921
15544TIP3    H268124   4.397   2.571   0.925 -0.1304  0.0165  0.0677
15545TIP3   OH268125   4.729   5.566  14.546  0.1151  0.0577 -0.5062
15545TIP3    H168126   4.736   5.510  14.468  2.4070 -0.1234 -0.2561
15545TIP3    H268127   4.779   5.520  14.613 -0.0795  1.2051  0.4520
15546TIP3   OH268128   0.851   0.370   2.035  0.1037  0.0823  0.5043
15546TIP3    H168129   0.834   0.448   1.982 -0.7416 -1.5062 -1.6770
15546TIP3    H268130   0.923   0.396   2.093  1.9730  1.5398 -2.2835
15547TIP3   OH268131   0.352   2.519   1.957 -0.2025 -0.4894  0.4688
15547TIP3    H168132   0.301   2.593   1.987  0.5311  0.1659  0.1233
15547TIP3    H268133   0.400   2.488   2.034  1.9372  1.3949 -0.0063
15548TIP3   OH268134   4.853   3.339  12.173 -0.6020  0.2059 -0.5667
15548TIP3    H168135   4.776   3.284  12.161 -0.1780 -0.3417 -0.8426
15548TIP3    H268136   4.923   3.294  12.125  0.4019 -0.3983  1.3586
15549TIP3   OH268137   6.808   5.142   3.673 -0.1280 -0.4395 -0.2196
15549TIP3    H168138   6.844   5.215   3.724 -0.0409 -0.2395 -0.5690
15549TIP3    H268139   6.752   5.096   3.735  0.0013 -0.2119  0.0687
15550TIP3   OH268140   3.473   5.580  13.973  0.0612  0.1221  0.0290
15550TIP3    H168141   3.440   5.616  14.055 -0.6696  0.3501 -0.3551
15550TIP3    H268142   3.510   5.495  13.997  0.0088  0.2615  0.6187
15551TIP3   OH268143   1.111   2.298   3.804 -0.3726 -0.1250  0.7229
15551TIP3    H168144   1.093   2.270   3.714  0.6450  1.3561  0.0005
15551TIP3    H268145   1.058   2.378   3.815 -1.0111 -0.6648  1.6967
15552TIP3   OH268146   5.127   4.826  13.398 -0.2418  0.0519  0.6298
15552TIP3    H168147   5.117   4.731  13.383 -0.5840 -0.1438  2.0214
15552TIP3    H268148   5.038   4.857  13.416 -0.1964  0.7359 -0.2467
15553TIP3   OH268149   3.256   2.119  12.356  0.0540  0.7228  0.3652
15553TIP3    H168150   3.223   2.079  12.437 -1.1442 -2.5557 -1.5748
15553TIP3    H268151   3.304   2.049  12.312 -0.9644  1.7569 -2.6513
15554TIP3   OH268152   1.396   6.267  11.153 -0.1121  0.4739 -0.3504
15554TIP3    H168153   1.431   6.234  11.070  1.5724 -0.4022  0.6433
15554TIP3    H268154   1.453   6.228  11.219 -1.1810  1.4610  1.2019
15555TIP3   OH268155   3.959   6.676  11.401 -0.2435  0.1359  0.2673
15555TIP3    H168156   4.012   6.689  11.323  1.0454 -1.3402  0.8404
15555TIP3    H268157   4.023   6.663  11.471 -1.3708  1.0944  1.5240
15556TIP3   OH268158   4.266   4.508  14.261 -0.0331  0.1951 -0.3668
15556TIP3    H168159   4.295   4.546  14.177  1.0164  0.9772  0.3163
15556TIP3    H268160   4.268   4.414  14.247 -2.3679  0.2995 -2.0160
15557TIP3   OH268161   3.358   1.268   5.207  0.1599  0.4978 -0.2111
15557TIP3    H168162   3.439   1.218   5.204  0.0808  0.3940 -2.5166
15557TIP3    H268163   3.385   1.358   5.187 -0.3649  0.2758 -2.1046
15558TIP3   OH268164   3.604   0.685  13.085  1.0874  0.3625 -0.1671
15558TIP3    H168165   3.558   0.769  13.084 -0.3432 -0.3882 -0.3550
15558TIP3    H268166   3.675   0.697  13.148 -0.4458  1.0495  1.5114
15559TIP3   OH268167   1.059   4.196  16.063 -0.1294  0.4221  0.4900
15559TIP3    H168168   1.013   4.116  16.091 -1.7958  1.2697  0.3182
15559TIP3    H268169   0.989   4.254  16.032  1.0955  1.7537  0.1119
15560TIP3   OH268170   4.522   6.714   2.487  0.2570  0.6999  0.5826
15560TIP3    H168171   4.460   6.663   2.434  1.0737  1.2023 -0.9181
15560TIP3    H268172   4.496   6.696   2.578 -0.9886 -0.4536  0.0415
15561TIP3   OH268173   2.042   0.401   3.382 -0.2655 -0.3225  0.7501
15561TIP3    H168174   2.107   0.467   3.405  0.8091 -1.4460  1.0235
15561TIP3    H268175   2.038   0.343   3.458  0.0956 -1.5549 -0.1294
15562TIP3   OH268176   2.713   5.792  14.495  0.3910  0.3431  0.4843
15562TIP3    H168177   2.679   5.777  14.407  3.2231  0.9577 -0.8472
15562TIP3    H268178   2.684   5.881  14.517  1.1245  0.9015 -0.6643
15563TIP3   OH268179   3.584   0.674  15.909  0.5279 -0.4628  0.3796
15563TIP3    H168180   3.591   0.770  15.905  1.3545 -0.4936  0.9755
15563TIP3    H268181   3.641   0.648  15.981  2.5308 -1.6349 -1.5171
15564TIP3   OH268182   5.424   0.031   4.720 -0.3561  0.0689 -0.8526
15564TIP3    H168183   5.382  -0.040   4.673 -2.2077  0.5325  0.0237
15564TIP3    H268184   5.375   0.109   4.696  0.0334  0.6503  0.1531
15565TIP3   OH268185   2.816   3.308  11.353  0.3850  0.0076 -0.2743
15565TIP3    H168186   2.728   3.312  11.316  0.0874 -2.0538  0.1268
15565TIP3    H268187   2.872   3.350  11.287 -0.6027 -0.5561 -1.5104
15566TIP3   OH268188   4.313   0.963  11.605 -0.0757 -0.2420  0.5921
15566TIP3    H168189   4.407   0.982  11.602  0.3645 -2.2588  0.1195
15566TIP3    H268190   4.305   0.875  11.569 -2.1539 -0.1718  0.7445
15567TIP3   OH268191   5.827   1.059  14.967  0.3379  0.2640  0.1342
15567TIP3    H168192   5.742   1.025  14.994  0.6199 -0.4604  0.1159
15567TIP3    H268193   5.848   1.013  14.886  0.4092  0.9895 -0.2689
15568TIP3   OH268194   4.985   4.129  15.070 -0.9341  0.4904  0.2300
15568TIP3    H168195   4.988   4.063  15.001 -1.6140  0.3449  0.3402
15568TIP3    H268196   5.060   4.186  15.051 -0.8547  0.1945 -0.3685
15569TIP3   OH268197   4.990   0.447   5.556 -0.5327  0.4321 -0.2359
15569TIP3    H168198   5.053   0.398   5.504 -0.6913 -0.5574  0.4657
15569TIP3    H268199   5.043   0.499   5.616 -0.3727  0.5626 -0.4900
15570TIP3   OH268200   4.477   0.799   4.758 -0.3120  0.1334  0.4997
15570TIP3    H168201   4.527   0.759   4.829  1.1299  1.2875  0.1653
15570TIP3    H268202   4.445   0.882   4.794  0.3979  0.7102 -0.1700
15571TIP3   OH268203   6.704   6.444  16.897 -0.1812 -0.8335  0.2205
15571TIP3    H168204   6.799   6.439  16.885  0.0390  0.5246  1.1981
15571TIP3    H268205   6.690   6.426  16.990 -1.0296 -2.3250 -0.1602
15572TIP3   OH268206   1.751   0.579   0.980 -0.3095 -0.0257 -0.1431
15572TIP3    H168207   1.803   0.658   0.998 -1.2906  1.3320 -2.7235
15572TIP3    H268208   1.747   0.574   0.884 -2.2256 -1.9206 -0.0425
15573TIP3   OH268209   3.453   0.099   2.247 -0.2341 -0.0300 -0.2528
15573TIP3    H168210   3.414   0.049   2.319 -0.4922 -2.1276 -1.7563
15573TIP3    H268211   3.543   0.066   2.241 -0.4267 -0.3950 -1.3106
15574TIP3   OH268212   6.304   0.234  16.980  0.4968 -0.9606 -0.1323
15574TIP3    H168213   6.235   0.248  17.046  0.1956 -1.3119 -0.3718
15574TIP3    H268214   6.339   0.147  17.000  1.9173 -0.1881  0.9358
15575TIP3   OH268215   5.573   4.008   5.298 -0.7093 -0.0112 -0.0810
15575TIP3    H168216   5.595   3.917   5.319 -1.9519 -0.2584  0.2459
15575TIP3    H268217   5.495   4.026   5.351 -1.0627  0.9248 -0.8904
15576TIP3   OH268218   3.543   5.559   5.302  0.4878  0.2006  0.2800
15576TIP3    H168219   3.468   5.604   5.341  1.0851  0.8492  0.7102
15576TIP3    H268220   3.567   5.492   5.365 -0.3269 -0.6669 -0.3065
15577TIP3   OH268221   5.379   4.781  15.967 -0.0270 -0.1050 -0.0616
15577TIP3    H168222   5.295   4.742  15.944 -0.8218  1.6269 -0.2297
15577TIP3    H268223   5.420   4.716  16.024 -1.8536 -0.6322  0.7406
15578TIP3   OH268224   4.760   4.363  13.714  0.5127 -0.0494  0.1549
15578TIP3    H168225   4.685   4.409  13.677  0.8206  1.0069  0.7927
15578TIP3    H268226   4.746   4.366  13.808  1.6810  0.7765  0.3261
15579TIP3   OH268227   5.253   0.711   3.559  0.3112 -0.4904 -0.2240
15579TIP3    H168228   5.327   0.771   3.548 -0.1273 -0.2605 -2.0737
15579TIP3    H268229   5.288   0.626   3.531 -0.3725 -0.1988 -2.0426
15580TIP3   OH268230   0.229   2.345  14.149 -0.5495  0.3462  0.6762
15580TIP3    H168231   0.146   2.383  14.179  0.1291  1.2868  1.4223
15580TIP3    H268232   0.294   2.414  14.164  0.4873 -0.6172  0.7423
15581TIP3   OH268233   6.455   4.494   0.434  0.5814 -0.4145  1.1505
15581TIP3    H168234   6.373   4.535   0.459  0.0847 -0.6388 -0.0649
15581TIP3    H268235   6.498   4.475   0.517 -0.9765 -1.0628  1.8499
15582TIP3   OH268236   3.921   6.607   3.241  0.3168  0.6233 -0.0862
15582TIP3    H168237   3.883   6.689   3.209  0.3531  0.4494 -0.5771
15582TIP3    H268238   3.882   6.595   3.327 -1.6120 -0.1393 -1.0349
15583TIP3   OH268239   4.387   4.667  15.200 -0.3524  0.1668 -0.7639
15583TIP3    H168240   4.409   4.757  15.226 -2.2538  0.8888 -1.4599
15583TIP3    H268241   4.380   4.671  15.104 -2.0043 -0.3207 -0.6811
15584TIP3   OH268242   6.306   2.533  12.409 -0.2717 -0.6465 -0.2761
15584TIP3    H168243   6.382   2.477  12.392 -0.0796 -0.2497 -0.7656
15584TIP3    H268244   6.239   2.501  12.349 -0.5682 -1.1420  0.3155
15585TIP3   OH268245   6.574   4.633  16.835 -0.1620 -0.6046  0.2028
15585TIP3    H168246   6.606   4.723  16.834  1.2257 -1.0689  0.3348
15585TIP3    H268247   6.553   4.613  16.744  2.9847 -1.2756 -0.4896
15586TIP3   OH268248   3.942   0.032   0.947  0.0034 -0.0199 -0.0505
15586TIP3    H168249   3.973  -0.059   0.944  1.4419  0.4146  0.5390
15586TIP3    H268250   4.008   0.078   0.999 -1.8976  0.9168  1.6524
15587TIP3   OH268251   5.634   2.321  12.352  0.1004  0.4623  0.2212
15587TIP3    H168252   5.569   2.381  12.315  1.2066  1.9743  0.6289
15587TIP3    H268253   5.627   2.333  12.446 -0.4927 -0.9837  0.3848
15588TIP3   OH268254   3.206   3.742  16.063 -0.2229  0.3270  0.0826
15588TIP3    H168255   3.166   3.698  15.987  0.8161  1.3748 -1.1158
15588TIP3    H268256   3.189   3.835  16.049  1.8561  0.7389 -0.0472
15589TIP3   OH268257   5.692   5.847  14.237 -0.1796  0.6519  0.5637
15589TIP3    H168258   5.715   5.867  14.328  0.5311  0.4882  0.4293
15589TIP3    H268259   5.648   5.926  14.206 -1.6961  0.1927  1.4572
15590TIP3   OH268260   2.193   5.805  15.685  0.1255  0.2491  0.5913
15590TIP3    H168261   2.129   5.828  15.618  0.8069  0.3277 -0.0423
15590TIP3    H268262   2.245   5.885  15.697  1.9526 -0.6183 -1.0047
15591TIP3   OH268263   2.891   2.668   3.825 -0.0579 -0.5807  0.2150
15591TIP3    H168264   2.958   2.705   3.766  2.1266  1.0407  3.3837
15591TIP3    H268265   2.810   2.672   3.774  1.3701  2.0456 -2.1998
15592TIP3   OH268266   2.250   3.431   2.737  0.3087 -0.1174 -0.6508
15592TIP3    H168267   2.229   3.449   2.829 -0.5276 -0.0778 -0.8454
15592TIP3    H268268   2.256   3.336   2.733 -0.8121 -0.1973 -0.7866
15593TIP3   OH268269   5.059   3.438  13.554  0.3549 -0.2548  0.3810
15593TIP3    H168270   5.032   3.351  13.526 -0.0346 -0.1561  0.4535
15593TIP3    H268271   4.987   3.495  13.529  1.0916  0.2294 -0.6872
15594TIP3   OH268272   2.638   4.381   0.825  0.4612  0.4836 -0.1980
15594TIP3    H168273   2.601   4.295   0.804 -1.0918  0.8825  0.7385
15594TIP3    H268274   2.595   4.441   0.765  0.1549  0.8485  0.3743
15595TIP3   OH268275   2.724   2.094   1.074 -0.3442 -0.2657  0.3212
15595TIP3    H168276   2.809   2.097   1.030 -0.7497  2.1048 -0.4685
15595TIP3    H268277   2.738   2.040   1.151  2.1439  0.7876  0.6883
15596TIP3   OH268278   3.884   4.550   2.624 -0.4976  0.3360 -0.4224
15596TIP3    H168279   3.904   4.461   2.595 -0.9461  0.0417  0.1664
15596TIP3    H268280   3.792   4.548   2.649 -0.3355  0.7919  0.2437
15597TIP3   OH268281   2.732   2.196  15.050 -0.7155  0.6111  0.2195
15597TIP3    H168282   2.777   2.241  15.121  0.3213  0.5494 -0.3867
15597TIP3    H268283   2.721   2.106  15.082  0.5103  0.3614 -0.0086
15598TIP3   OH268284   5.625   5.026  10.614  0.4381  0.7634  0.3045
15598TIP3    H168285   5.531   5.042  10.619  0.4875  2.0709 -1.8488
15598TIP3    H268286   5.647   5.038  10.522  3.1044  2.8639  1.0741
15599TIP3   OH268287   3.077   2.662  15.140 -0.1579  0.4685  0.3485
15599TIP3    H168288   3.017   2.608  15.089  0.6905  1.5555 -1.9127
15599TIP3    H268289   3.164   2.640  15.105  0.3298  2.2173  0.4006
15600TIP3   OH268290   0.017   5.226  12.188 -0.8852  0.3290 -0.5079
15600TIP3    H168291  -0.026   5.293  12.240  1.0600  0.8885  0.5078
15600TIP3    H268292   0.093   5.270  12.151 -0.9120 -0.7048 -1.8474
15601TIP3   OH268293   0.406   6.717   2.918 -0.1918  0.3124  0.2481
15601TIP3    H168294   0.343   6.748   2.852 -0.8373 -0.8243  0.3158
15601TIP3    H268295   0.374   6.753   3.001 -0.0280  0.7762  0.1184
15602TIP3   OH268296   6.021   3.044   0.279  0.1385  0.5813 -0.3877
15602TIP3    H168297   5.977   3.125   0.252  0.1855  0.5858 -0.4505
15602TIP3    H268298   5.956   2.976   0.263  0.1254  0.5979 -0.4047
15603TIP3   OH268299   0.610   4.863  15.796  0.3834 -0.1674 -0.2556
15603TIP3    H168300   0.574   4.820  15.718  1.1814 -1.3305 -0.0138
15603TIP3    H268301   0.699   4.888  15.770 -0.5379  2.7470 -0.8791
15604TIP3   OH268302   1.821   2.118   1.690  0.0258  0.3795 -0.0971
15604TIP3    H168303   1.817   2.067   1.771  0.8032 -1.5510 -1.2243
15604TIP3    H268304   1.835   2.208   1.720  2.5500 -0.5545  1.8708
15605TIP3   OH268305   5.747   1.093   1.175  0.8128 -0.2655 -0.1500
15605TIP3    H168306   5.744   1.034   1.100 -1.1015 -0.7016  0.2172
15605TIP3    H268307   5.834   1.133   1.171  1.8928 -2.5331 -0.8387
15606TIP3   OH268308   5.725   3.807  14.026 -0.1417 -0.4118 -0.2077
15606TIP3    H168309   5.779   3.808  14.105 -0.5931 -1.0424  0.1176
15606TIP3    H268310   5.732   3.717  13.993 -2.7550 -1.2182  1.1047
15607TIP3   OH268311   3.945   2.510  13.490  0.3971  0.0445  0.4380
15607TIP3    H168312   3.999   2.586  13.472  1.1248 -0.1284  1.7536
15607TIP3    H268313   3.857   2.546  13.503  0.3507  0.4278 -0.8078
15608TIP3   OH268314   2.786   1.305   3.494  0.0011 -0.0383  0.9138
15608TIP3    H168315   2.763   1.285   3.403 -1.0896  0.7129  1.0095
15608TIP3    H268316   2.797   1.219   3.535  1.4429 -0.3880 -0.1354
15609TIP3   OH268317   0.912   2.925   6.119  0.0990  0.2307 -0.4889
15609TIP3    H168318   0.905   2.830   6.122 -2.4876  0.3575 -0.1623
15609TIP3    H268319   0.929   2.951   6.209  1.7677  0.0657 -0.7311
15610TIP3   OH268320   2.084   4.235   6.764  0.3923  0.4220  0.3234
15610TIP3    H168321   2.084   4.217   6.858  0.5465  1.8025  0.6087
15610TIP3    H268322   1.994   4.219   6.736  0.1234  0.9276  0.8947
15611TIP3   OH268323   1.208   0.540  15.200 -0.1020 -0.3446 -0.5927
15611TIP3    H168324   1.234   0.481  15.270  2.6968  1.9367  0.5086
15611TIP3    H268325   1.272   0.612  15.204 -3.8903  3.4512 -0.9913
15612TIP3   OH268326   2.434   0.949  16.823  0.2848  0.0046 -0.3992
15612TIP3    H168327   2.481   0.941  16.741  1.9251 -0.4556  0.5487
15612TIP3    H268328   2.358   0.892  16.813  0.0087  0.6009 -1.8794
15613TIP3   OH268329   4.089   1.644   2.219 -0.0502  0.1496  0.0084
15613TIP3    H168330   4.038   1.628   2.140 -0.6464  0.2976  0.3584
15613TIP3    H268331   4.056   1.581   2.283 -0.5958  0.9786  0.5839
15614TIP3   OH268332   1.138   3.524   3.352  0.3475 -0.6507 -0.2106
15614TIP3    H168333   1.135   3.438   3.394  1.5841 -0.4836  0.2589
15614TIP3    H268334   1.224   3.528   3.312  0.4348  0.5073  0.0593
15615TIP3   OH268335   1.345   3.856  14.939 -0.6047  0.3715  0.0709
15615TIP3    H168336   1.324   3.816  15.023 -2.0034  0.7035 -0.0890
15615TIP3    H268337   1.427   3.903  14.954 -0.5072 -0.0831  1.0637
15616TIP3   OH268338   3.058   3.587  17.063 -0.5443  0.2058 -0.2776
15616TIP3    H168339   3.129   3.529  17.091 -0.0358  0.4601 -1.0181
15616TIP3    H268340   2.982   3.557  17.112  0.6254  1.6832  2.7162
15617TIP3   OH268341   5.422   0.578  12.894 -0.2322  0.0571 -0.7033
15617TIP3    H168342   5.357   0.613  12.834 -0.4236  3.5716  1.2869
15617TIP3    H268343   5.372   0.539  12.965 -0.1099  0.1757 -0.5501
15618TIP3   OH268344   1.259   5.961   2.625  0.1485  0.2166 -0.5584
15618TIP3    H168345   1.267   5.917   2.709  2.3834 -0.9745 -1.3166
15618TIP3    H268346   1.177   5.929   2.588  0.9755 -2.2328 -0.4216
15619TIP3   OH268347   0.580   4.357   6.339 -0.5043 -0.5320  0.7843
15619TIP3    H168348   0.496   4.390   6.371 -1.9225 -2.1657 -0.9762
15619TIP3    H268349   0.637   4.433   6.338 -1.7156  0.4928  2.7086
15620TIP3   OH268350   0.112   5.113   3.435 -0.8825 -0.0154  0.5465
15620TIP3    H168351   0.063   5.118   3.517 -1.7793 -0.4253  0.0508
15620TIP3    H268352   0.200   5.144   3.457 -1.3699  0.7531  1.4464
15621TIP3   OH268353   4.638   6.645  11.226 -0.2464 -0.3423 -0.0745
15621TIP3    H168354   4.725   6.609  11.212 -0.5763 -1.5168  0.6532
15621TIP3    H268355   4.604   6.596  11.302 -1.6822 -0.2006 -0.5879
15622TIP3   OH268356   6.721   2.451  12.184  0.1109 -0.3651 -0.1554
15622TIP3    H168357   6.689   2.539  12.205  2.9113  0.6795  0.3125
15622TIP3    H268358   6.693   2.436  12.093 -3.2044 -0.4801  0.7592
15623TIP3   OH268359   3.708   1.511  14.578  0.4470 -0.5551 -0.0326
15623TIP3    H168360   3.644   1.571  14.615  1.0161  0.0429  0.0033
15623TIP3    H268361   3.706   1.435  14.637 -1.2008 -1.1646 -0.8012
15624TIP3   OH268362   2.740   3.470   1.760  0.3243  0.5809 -0.3897
15624TIP3    H168363   2.647   3.452   1.746  0.1952 -0.8257  1.8031
15624TIP3    H268364   2.785   3.395   1.722  0.5975  1.2264 -1.3843
15625TIP3   OH268365   4.763   2.393   2.858  0.1238 -0.4656 -0.3483
15625TIP3    H168366   4.724   2.480   2.867  0.2032 -0.3652 -0.9122
15625TIP3    H268367   4.708   2.336   2.910 -0.8815 -0.3602 -1.2630
15626TIP3   OH268368   1.690   4.192  14.066 -0.1203  0.2701 -0.4608
15626TIP3    H168369   1.770   4.179  14.117  0.5966 -0.0156 -1.6161
15626TIP3    H268370   1.628   4.229  14.129  1.3915  2.0165  0.1229
15627TIP3   OH268371   4.508   4.998  13.732  0.4963  0.0076  0.1433
15627TIP3    H168372   4.454   5.074  13.754  0.4892  0.0819 -0.1224
15627TIP3    H268373   4.445   4.932  13.703  0.4771 -0.2051  0.6546
15628TIP3   OH268374   0.830   2.867  11.329 -0.0043 -0.0731  0.2438
15628TIP3    H168375   0.779   2.788  11.312  0.8681 -0.7495  0.7327
15628TIP3    H268376   0.906   2.859  11.273  0.7366 -0.2271  1.2416
15629TIP3   OH268377   4.036   6.758   1.499 -0.3300 -0.0965 -0.0357
15629TIP3    H168378   3.948   6.756   1.461  0.1936  1.6722 -1.4661
15629TIP3    H268379   4.039   6.839   1.549  0.4314 -0.2353  0.1527
15630TIP3   OH268380   2.421   3.181  16.831 -0.0773 -0.0661  0.2364
15630TIP3    H168381   2.419   3.191  16.926 -0.4473  1.5340  0.0910
15630TIP3    H268382   2.330   3.163  16.807 -0.1772  0.5781  0.1062
15631TIP3   OH268383   1.101   5.325  16.106  0.0373  0.6482  1.1163
15631TIP3    H168384   1.031   5.385  16.132 -0.3724  0.0016  1.5073
15631TIP3    H268385   1.172   5.383  16.078 -0.3373  1.3169  1.5268
15632TIP3   OH268386   6.022   2.821  11.241  0.3301  0.5186  0.3117
15632TIP3    H168387   6.109   2.782  11.227  0.0833 -0.1251  0.5506
15632TIP3    H268388   5.970   2.791  11.167 -0.5850 -1.7544  1.7814
15633TIP3   OH268389   0.320   5.183  12.549 -0.1038  0.0928  0.1977
15633TIP3    H168390   0.354   5.237  12.620  0.5713  1.0041 -0.7789
15633TIP3    H268391   0.236   5.222  12.526  0.9534  1.5775 -1.3515
15634TIP3   OH268392   6.443   3.322   2.737 -1.1072 -0.6943  0.3460
15634TIP3    H168393   6.513   3.310   2.802 -0.2895  0.5782 -0.2541
15634TIP3    H268394   6.370   3.270   2.770 -0.8140  0.1186  2.4398
15635TIP3   OH268395   6.176   6.063   2.631  0.1606  0.2553 -0.3450
15635TIP3    H168396   6.244   5.996   2.636 -0.7467 -0.6291  0.5004
15635TIP3    H268397   6.177   6.090   2.539  0.8830 -0.5528 -0.5915
15636TIP3   OH268398   5.807   4.290   2.844  0.2969  0.3692 -0.0897
15636TIP3    H168399   5.860   4.231   2.792  1.4906  0.7965  0.5999
15636TIP3    H268400   5.786   4.362   2.785 -0.2086 -0.1828 -0.5979
15637TIP3   OH268401   5.844   1.493   0.409  0.5422  0.1354 -0.3412
15637TIP3    H168402   5.865   1.569   0.353 -0.6046  0.8804  0.2041
15637TIP3    H268403   5.917   1.489   0.471  1.9299 -0.8203 -1.9776
15638TIP3   OH268404   5.511   4.380   5.787  0.3521  0.3993  0.2333
15638TIP3    H168405   5.532   4.357   5.878  3.9492 -2.4041 -1.0587
15638TIP3    H268406   5.552   4.466   5.774 -1.7512  1.7014  1.6141
15639TIP3   OH268407   1.650   4.258   4.239  0.2609  0.0446 -0.2719
15639TIP3    H168408   1.728   4.251   4.294 -1.3960 -2.2105  2.0737
15639TIP3    H268409   1.615   4.345   4.256  1.7039  0.7398 -0.6672
15640TIP3   OH268410   3.962   3.525  13.246 -0.4885 -0.5542 -0.4997
15640TIP3    H168411   3.944   3.433  13.226 -2.6203 -0.5279  0.9999
15640TIP3    H268412   3.882   3.572  13.221 -0.4730  0.4731  1.2366
15641TIP3   OH268413   2.536   5.869   0.928  0.3311 -0.9370 -0.3503
15641TIP3    H168414   2.554   5.792   0.982 -0.7956 -1.1496 -0.2539
15641TIP3    H268415   2.444   5.889   0.944  1.3288  2.5257  2.3121
15642TIP3   OH268416   4.824   4.335   5.674 -0.1264 -0.1647 -0.1100
15642TIP3    H168417   4.785   4.389   5.743  1.7664  0.2264  0.7462
15642TIP3    H268418   4.891   4.284   5.719  0.3225 -0.8262 -1.4678
15643TIP3   OH268419   2.397   5.124  13.989 -0.4338 -0.1624 -0.0458
15643TIP3    H168420   2.487   5.122  14.021 -0.5577 -0.3773  0.2964
15643TIP3    H268421   2.367   5.033  13.994 -0.7786 -0.0391  0.1619
15644TIP3   OH268422   6.772   0.053   4.535  0.0102 -0.2424  0.1907
15644TIP3    H168423   6.734  -0.032   4.555 -0.1770 -0.2767 -0.2969
15644TIP3    H268424   6.720   0.086   4.461  1.3800 -0.6027 -0.9706
15645TIP3   OH268425   6.244   4.802   5.018 -0.1411 -0.3725  0.6699
15645TIP3    H168426   6.322   4.754   4.992 -1.3108 -1.9707 -0.1023
15645TIP3    H268427   6.174   4.764   4.965 -0.9942  3.0740 -0.9541
15646TIP3   OH268428   0.211   1.408   1.933  0.0920  0.6523  0.3719
15646TIP3    H168429   0.283   1.370   1.983 -1.6073 -0.4399  2.1132
15646TIP3    H268430   0.139   1.416   1.996 -1.6200  0.8454 -1.4931
15647TIP3   OH268431   5.153   3.559  14.053  0.0688  0.3100  0.5180
15647TIP3    H168432   5.066   3.530  14.027 -0.4015  2.1300 -0.1446
15647TIP3    H268433   5.157   3.544  14.147  0.1215 -2.3238  0.1648
15648TIP3   OH268434   6.601   6.448   3.845 -0.5832  0.5937  0.8143
15648TIP3    H168435   6.587   6.540   3.868 -0.6876  0.9010 -0.4139
15648TIP3    H268436   6.527   6.425   3.789 -0.7009 -0.3320  1.3181
15649TIP3   OH268437   0.921   6.215  14.310 -0.0242  0.2100  0.1966
15649TIP3    H168438   1.009   6.202  14.347 -0.3128  1.5344  1.4524
15649TIP3    H268439   0.899   6.130  14.271  1.5763 -0.3162  0.3444
15650TIP3   OH268440   0.137   4.613  14.313 -0.4068 -0.2932 -0.2299
15650TIP3    H168441   0.074   4.560  14.362  0.7928 -2.2345 -0.6805
15650TIP3    H268442   0.121   4.589  14.221 -0.0968  0.4115 -0.4706
15651TIP3   OH268443   1.673   3.346  12.123  0.3525  0.5852  0.5324
15651TIP3    H168444   1.731   3.348  12.048 -0.1210 -0.0559  0.1368
15651TIP3    H268445   1.705   3.273  12.177  0.1138  0.4315  0.4690
15652TIP3   OH268446   4.792   5.018  14.940  0.2589 -0.8459 -0.0792
15652TIP3    H168447   4.766   5.078  14.870 -0.0923 -0.5046  0.3322
15652TIP3    H268448   4.780   4.931  14.903  1.7330 -0.6809 -1.0338
15653TIP3   OH268449   2.264   6.292  15.178 -0.5704 -0.5374  0.5373
15653TIP3    H168450   2.252   6.381  15.212  0.6150 -0.9093  2.0594
15653TIP3    H268451   2.278   6.304  15.084 -1.3886  0.7884  0.5625
15654TIP3   OH268452   1.594   4.782   2.844  0.1314  0.4335  0.3108
15654TIP3    H168453   1.502   4.798   2.824 -0.1437 -2.0791 -0.8017
15654TIP3    H268454   1.638   4.787   2.759  0.4447 -1.5262  0.3158
15655TIP3   OH268455   4.821   3.468  17.129 -0.0150 -0.5835 -0.8720
15655TIP3    H168456   4.765   3.534  17.169  0.4575 -0.4817 -0.3632
15655TIP3    H268457   4.783   3.384  17.157  1.1100 -0.5263  0.9983
15656TIP3   OH268458   1.338   2.448  12.223 -0.3515  1.2348  0.6396
15656TIP3    H168459   1.329   2.414  12.312  0.5787  0.5304  0.4840
15656TIP3    H268460   1.392   2.383  12.178 -0.6030  1.7054 -0.3762
15657TIP3   OH268461   2.947   3.960  11.972 -0.1007  0.6677  0.1577
15657TIP3    H168462   2.865   3.935  11.930  0.3368  0.4258 -0.5662
15657TIP3    H268463   2.997   3.879  11.978  0.3136  0.9154  0.0807
15658TIP3   OH268464   4.846   3.874   2.170 -0.4612 -0.6395  0.1961
15658TIP3    H168465   4.879   3.879   2.259 -0.3393  2.2915  0.0835
15658TIP3    H268466   4.924   3.874   2.115 -0.5557 -0.9483  0.0595
15659TIP3   OH268467   3.923   1.823  13.376  0.7335  0.5646  0.1119
15659TIP3    H168468   3.970   1.894  13.332  0.8442  0.4429  0.0329
15659TIP3    H268469   3.846   1.865  13.415  0.9961  0.7908  0.3834
15660TIP3   OH268470   5.403   0.223   3.901 -0.2195 -0.2608 -0.1073
15660TIP3    H168471   5.455   0.179   3.834  0.3322  1.6425 -1.0035
15660TIP3    H268472   5.394   0.313   3.869 -3.0035 -0.1851  0.6373
15661TIP3   OH268473   3.443   6.658   2.434  0.5379  0.2565  0.0856
15661TIP3    H168474   3.518   6.704   2.396  0.7079  1.0964  1.3513
15661TIP3    H268475   3.481   6.604   2.503  0.1909 -0.8846 -0.6058
15662TIP3   OH268476   4.499   0.752  12.524 -0.5336 -0.2984 -0.1727
15662TIP3    H168477   4.585   0.791  12.514 -0.5070 -0.0740  0.8381
15662TIP3    H268478   4.442   0.803  12.466 -0.0135 -0.4079 -0.7947
15663TIP3   OH268479   6.551   3.522  15.038 -0.2233 -0.3859  0.0141
15663TIP3    H168480   6.583   3.433  15.028  0.2460 -0.1512 -0.6982
15663TIP3    H268481   6.601   3.558  15.111 -0.8375 -0.8775  0.6985
15664TIP3   OH268482   4.249   3.792   3.862 -0.0813  0.6243 -0.8315
15664TIP3    H168483   4.312   3.822   3.797  0.7926  2.2360  0.6631
15664TIP3    H268484   4.179   3.858   3.859 -0.5376  0.1421 -0.8443
15665TIP3   OH268485   1.236   5.537   4.191 -0.1850  0.2842  0.6627
15665TIP3    H168486   1.218   5.624   4.155 -0.4899  1.3474  3.1749
15665TIP3    H268487   1.324   5.543   4.227  0.0981 -0.7252  0.1925
15666TIP3   OH268488   4.520   2.048  13.358  0.4329 -0.4853  0.5753
15666TIP3    H168489   4.459   2.053  13.431 -0.3419  0.8312 -0.1480
15666TIP3    H268490   4.605   2.032  13.400 -0.3124 -2.0393  1.6041
15667TIP3   OH268491   3.817   2.957  11.084 -0.3269  0.1911 -0.1760
15667TIP3    H168492   3.905   2.933  11.115  0.0952  1.7494 -0.1091
15667TIP3    H268493   3.766   2.968  11.164 -1.2284 -2.7512 -0.2144
15668TIP3   OH268494   2.485   2.424  13.265 -0.0569  0.2279  0.0492
15668TIP3    H168495   2.493   2.388  13.354 -0.2903  0.2448  0.0780
15668TIP3    H268496   2.420   2.494  13.274  0.9370  1.1712  0.1514
15669TIP3   OH268497   6.012   1.203  13.397 -0.4851 -0.5815 -0.4313
15669TIP3    H168498   5.968   1.160  13.470  0.8672  0.6674  1.1998
15669TIP3    H268499   6.067   1.135  13.358 -1.9354 -1.5015 -0.9363
15670TIP3   OH268500   0.263   5.325  12.079  0.1964 -0.9021 -0.4022
15670TIP3    H168501   0.317   5.248  12.100  1.3656  0.4140  1.6955
15670TIP3    H268502   0.292   5.392  12.140 -1.5168  0.9262 -1.4960
15671TIP3   OH268503   2.952   0.994  14.897 -0.2464 -0.5998  0.2438
15671TIP3    H168504   2.887   0.957  14.957 -1.3324  2.1660  0.9187
15671TIP3    H268505   2.905   1.008  14.815 -0.1052  0.0514  0.2692
15672TIP3   OH268506   2.355   5.166   3.357 -0.8990  0.3431 -0.6189
15672TIP3    H168507   2.409   5.245   3.357  0.1621 -0.3718 -0.4216
15672TIP3    H268508   2.325   5.158   3.266  0.2199  0.1524 -0.9865
15673TIP3   OH268509   4.924   3.904  17.166 -0.4267  0.5185 -0.0294
15673TIP3    H168510   4.970   3.973  17.214  0.6690  0.9973 -1.6673
15673TIP3    H268511   4.930   3.932  17.074  0.4568 -1.9753 -0.7967
15674TIP3   OH268512   2.404   5.972   0.659 -0.4340  0.2922  0.0701
15674TIP3    H168513   2.496   5.955   0.638 -0.7414  0.0182 -1.1570
15674TIP3    H268514   2.406   6.033   0.733  0.7889  3.0858 -2.0800
15675TIP3   OH268515   2.621   4.743  13.160  0.1647  0.2477  0.5073
15675TIP3    H168516   2.615   4.743  13.256  3.0180  1.1041  0.7798
15675TIP3    H268517   2.628   4.836  13.137 -0.2373  0.0312 -0.5348
15676TIP3   OH268518   4.863   2.044  15.579 -0.1408 -0.4324 -0.1078
15676TIP3    H168519   4.848   1.981  15.509  0.8565 -0.2786 -0.4707
15676TIP3    H268520   4.913   1.995  15.645 -1.3083 -0.6621  0.6526
15677TIP3   OH268521   3.810   3.547  12.153 -0.4452 -0.2652 -0.0047
15677TIP3    H168522   3.821   3.641  12.141 -0.8355 -0.0934  0.9014
15677TIP3    H268523   3.889   3.509  12.115  0.3030  0.5151  0.7185
15678TIP3   OH268524   1.708   5.355  13.282 -0.3042 -0.2053 -0.1866
15678TIP3    H168525   1.701   5.272  13.330 -0.4836 -0.1692 -0.1505
15678TIP3    H268526   1.646   5.346  13.209  1.5646 -1.1626 -1.7463
15679TIP3   OH268527   5.783   6.125  13.954 -0.0914  0.2040 -0.1817
15679TIP3    H168528   5.837   6.147  14.030 -0.2637 -1.1697  0.3535
15679TIP3    H268529   5.796   6.199  13.894  1.3029  0.5447  0.5010
15680TIP3   OH268530   0.010   3.475   0.895 -0.0277 -0.1221 -0.3396
15680TIP3    H168531  -0.046   3.502   0.822 -0.8898 -1.7975 -0.3423
15680TIP3    H268532  -0.048   3.424   0.952  0.7118  0.8280  1.3562
15681TIP3   OH268533   3.072   2.402  11.788 -0.1969  0.1606 -0.0610
15681TIP3    H168534   3.016   2.416  11.864  1.5089  0.9225  1.1265
15681TIP3    H268535   3.148   2.459  11.803  0.2445  0.2749 -2.3070
15682TIP3   OH268536   2.168   4.802  16.698  0.4137  0.2772  0.1902
15682TIP3    H168537   2.252   4.812  16.653  0.0499  3.7013 -0.0250
15682TIP3    H268538   2.102   4.817  16.630 -0.4569 -1.9008  0.4558
15683TIP3   OH268539   5.101   4.834   2.007 -0.4657  0.3432 -0.1215
15683TIP3    H168540   5.063   4.772   1.945  1.5107 -0.8135 -0.2343
15683TIP3    H268541   5.144   4.780   2.072 -2.1448  1.5410  2.1266
15684TIP3   OH268542   1.567   0.668  15.610 -0.5653 -0.0707  0.0615
15684TIP3    H168543   1.497   0.629  15.558 -0.0613 -0.9926  0.0469
15684TIP3    H268544   1.559   0.762  15.594 -1.5854 -0.1876 -0.1947
15685TIP3   OH268545   2.575   4.616  14.484  0.1796 -0.4934 -0.4620
15685TIP3    H168546   2.599   4.686  14.545 -0.3037  0.8186 -1.7063
15685TIP3    H268547   2.481   4.604  14.497  0.3658 -1.3737  0.1737
15686TIP3   OH268548   5.183   5.225   4.470 -0.3304 -0.9177  0.3780
15686TIP3    H168549   5.140   5.310   4.471  0.0647 -0.7046 -0.3365
15686TIP3    H268550   5.111   5.162   4.474 -0.7119 -0.5589 -0.6818
15687TIP3   OH268551   2.660   3.942   1.240  0.0990  0.9176 -0.8252
15687TIP3    H168552   2.584   3.912   1.290 -0.2936  2.7603 -0.2522
15687TIP3    H268553   2.731   3.943   1.304  0.0170  1.5810 -0.7456
15688TIP3   OH268554   4.242   5.668  16.393 -0.1783  0.1022 -0.1866
15688TIP3    H168555   4.155   5.658  16.432 -1.6745  0.6073 -3.1517
15688TIP3    H268556   4.243   5.605  16.321  1.6942  0.5946 -0.6377
15689TIP3   OH268557   5.669   5.388   5.678 -0.5671 -0.4523  0.3659
15689TIP3    H168558   5.648   5.312   5.623 -1.1142  0.4383 -0.6798
15689TIP3    H268559   5.710   5.350   5.756  1.0975 -1.7152 -1.0270
15690TIP3   OH268560   6.090   0.531  17.253  0.1472 -0.1311  0.4497
15690TIP3    H168561   5.998   0.538  17.277 -0.4432  0.2148 -1.7016
15690TIP3    H268562   6.099   0.443  17.215  0.6051 -0.0257  0.2982
15691TIP3   OH268563   1.906   6.753   4.893 -0.4632  0.2222  0.1446
15691TIP3    H168564   1.966   6.682   4.916 -0.8260 -0.4422 -0.8922
15691TIP3    H268565   1.881   6.736   4.803 -0.6527  1.6182 -0.0940
15692TIP3   OH268566   0.664   3.082  17.209 -0.2781  0.5234  0.4144
15692TIP3    H168567   0.689   2.991  17.192  1.5934  1.0190  0.2673
15692TIP3    H268568   0.615   3.080  17.291  1.5368 -0.4022  1.5413
15693TIP3   OH268569   6.690   1.429   2.203  0.0463 -0.1981  0.1241
15693TIP3    H168570   6.747   1.354   2.188  1.1981  0.4704  0.9798
15693TIP3    H268571   6.656   1.416   2.291  1.6648  1.1236  1.0048
15694TIP3   OH268572   1.288   5.769   0.735  0.2076 -0.2250  0.2485
15694TIP3    H168573   1.277   5.863   0.718 -0.6145 -0.2092  0.8003
15694TIP3    H268574   1.345   5.764   0.812  0.4333 -0.1872  0.0848
15695TIP3   OH268575   6.780   3.139   4.528  0.4145  0.2146  0.1338
15695TIP3    H168576   6.802   3.093   4.447  0.4644 -0.0114  0.2745
15695TIP3    H268577   6.688   3.115   4.544  0.7612 -0.7322  0.7954
15696TIP3   OH268578   0.782   5.425  11.828 -0.1509 -0.5413 -0.6138
15696TIP3    H168579   0.750   5.472  11.905  1.5864  0.2039 -0.2943
15696TIP3    H268580   0.746   5.337  11.836  1.7647 -1.2121  2.3155
15697TIP3   OH268581   5.352   2.616   1.765  0.7004 -0.3023  0.1228
15697TIP3    H168582   5.344   2.572   1.681 -2.0267  2.5182 -1.2948
15697TIP3    H268583   5.295   2.565   1.824 -0.5158 -0.1101 -0.8438
15698TIP3   OH268584   5.600   4.387  12.378  0.3849 -0.5453  0.3058
15698TIP3    H168585   5.538   4.316  12.397 -0.1970  0.1451  1.0588
15698TIP3    H268586   5.684   4.342  12.368 -0.2133 -1.4932 -0.7234
15699TIP3   OH268587   5.882   5.059  10.710  0.6268 -0.2666 -0.1897
15699TIP3    H168588   5.956   5.023  10.662  1.4715 -1.7733  2.0681
15699TIP3    H268589   5.805   5.023  10.666  1.3701 -1.7510 -0.3557
15700TIP3   OH268590   5.344   3.218  16.550  0.0732 -0.4446 -0.2150
15700TIP3    H168591   5.257   3.193  16.583  0.0939 -0.0010  0.1914
15700TIP3    H268592   5.338   3.207  16.455 -0.0493 -1.5811 -0.0947
15701TIP3   OH268593   2.389   5.378  13.857  0.0649 -0.9183 -0.3778
15701TIP3    H168594   2.446   5.404  13.929  0.4877 -0.7508 -0.7671
15701TIP3    H268595   2.365   5.288  13.876  0.3244 -0.9320 -0.1214
15702TIP3   OH268596   6.580   5.609   1.707  0.2537 -0.7944 -0.0633
15702TIP3    H168597   6.599   5.660   1.786 -3.1983 -0.5426  0.7411
15702TIP3    H268598   6.666   5.583   1.675  1.8539 -0.2100  3.3039
15703TIP3   OH268599   0.102   3.089   2.834  0.2899  0.2205 -0.5368
15703TIP3    H168600   0.192   3.115   2.814  0.6589 -0.3972  0.2507
15703TIP3    H268601   0.078   3.143   2.909  0.2488 -0.0847 -0.3285
15704TIP3   OH268602   1.226   5.348   2.394 -0.2513  0.1940 -0.3542
15704TIP3    H168603   1.301   5.367   2.338 -1.5214  0.2680 -2.1115
15704TIP3    H268604   1.251   5.380   2.480  1.2828  1.2712 -1.1658
15705TIP3   OH268605   2.599   2.157  15.785 -0.4510  0.2836 -0.2341
15705TIP3    H168606   2.522   2.101  15.783 -0.1227 -0.3455  1.7266
15705TIP3    H268607   2.568   2.239  15.823  0.0684 -0.5344  2.1600
15706TIP3   OH268608   2.357   6.753  13.384  0.6005  0.5781  0.2276
15706TIP3    H168609   2.344   6.818  13.453  0.2223  1.0064 -0.2360
15706TIP3    H268610   2.438   6.780  13.341  0.1536  1.0823 -0.3195
15707TIP3   OH268611   4.851   3.705   5.054 -0.8639  0.2109  1.0815
15707TIP3    H168612   4.889   3.789   5.028 -1.4273  0.7080  1.8190
15707TIP3    H268613   4.798   3.678   4.979  0.2409 -0.0652  0.3816
15708TIP3   OH268614   0.430   0.413  12.845 -0.5231 -0.2814  0.0665
15708TIP3    H168615   0.444   0.347  12.778 -1.8505  0.8814 -1.4507
15708TIP3    H268616   0.497   0.395  12.911  0.0265 -2.2512 -0.9423
15709TIP3   OH268617   6.090   6.005   4.045 -0.6293 -0.0518 -0.5400
15709TIP3    H168618   6.169   5.955   4.065  1.0308  2.1298 -1.3249
15709TIP3    H268619   6.035   5.943   3.997  1.4637 -1.0770 -1.7523
15710TIP3   OH268620   4.898   6.346   0.639 -0.3204 -0.2478 -0.2625
15710TIP3    H168621   4.979   6.386   0.608 -0.6403  0.1746 -0.5542
15710TIP3    H268622   4.923   6.304   0.721 -0.0813  0.9373  0.2922
15711TIP3   OH268623   1.129   0.746  16.902 -0.0892 -0.4451 -0.0896
15711TIP3    H168624   1.034   0.746  16.909 -0.0259  0.1953  0.9567
15711TIP3    H268625   1.159   0.701  16.981  0.5147  0.9043  0.4787
15712TIP3   OH268626   6.523   6.074   5.754 -0.4927  0.1727 -0.3951
15712TIP3    H168627   6.518   5.979   5.744  0.7695 -0.1261  1.2191
15712TIP3    H268628   6.432   6.103   5.756 -1.1478 -1.5420  2.9792
15713TIP3   OH268629   5.901   0.936  15.255  0.0331 -0.6642 -0.7086
15713TIP3    H168630   5.835   0.954  15.322  1.1245 -3.1962  1.1946
15713TIP3    H268631   5.853   0.942  15.172 -2.1903 -0.8640  0.4839
15714TIP3   OH268632   1.171   6.012   1.892 -0.2841 -0.6912  0.1458
15714TIP3    H168633   1.230   5.955   1.941  0.3745 -1.6811 -1.6814
15714TIP3    H268634   1.091   5.961   1.883  0.1307 -1.1733 -1.0596
15715TIP3   OH268635   0.006   1.157   0.874 -0.2201  0.2357  0.0873
15715TIP3    H168636   0.100   1.173   0.887 -0.2073  0.5102 -0.3085
15715TIP3    H268637  -0.021   1.225   0.812 -0.5978 -0.0778 -0.0944
15716TIP3   OH268638   5.657   1.190  13.531 -0.3673  0.0793  0.1512
15716TIP3    H168639   5.584   1.236  13.574 -1.1463 -0.0503 -1.0065
15716TIP3    H268640   5.628   1.099  13.525 -0.4602  0.1779 -1.0380
15717TIP3   OH268641   0.668   0.075  12.789 -0.2869  0.4653 -0.3293
15717TIP3    H168642   0.671   0.148  12.851  1.4197  0.2590 -0.1269
15717TIP3    H268643   0.632   0.002  12.839  0.2955  0.5274  0.1886
15718TIP3   OH268644   5.280   0.414  11.885 -0.1054  0.1323 -0.1099
15718TIP3    H168645   5.263   0.484  11.822  1.5146 -0.7392 -1.6103
15718TIP3    H268646   5.310   0.459  11.964  1.9462  1.1930 -1.3925
15719TIP3   OH268647   3.819   4.867   3.047 -0.0664 -0.0293 -0.0582
15719TIP3    H168648   3.850   4.870   2.956 -2.2873 -0.0460 -0.8538
15719TIP3    H268649   3.799   4.959   3.068 -2.1345 -0.3161 -0.5703
15720TIP3   OH268650   5.952   0.201   0.978 -0.1346 -0.0402  0.5607
15720TIP3    H168651   5.963   0.117   0.934  0.6302 -0.2453  1.1345
15720TIP3    H268652   6.018   0.258   0.940 -3.0351  1.5563 -2.6634
15721TIP3   OH268653   5.525   2.748  12.856  0.2098  0.4928 -0.2631
15721TIP3    H168654   5.541   2.795  12.938 -0.6897  0.4279 -0.0457
15721TIP3    H268655   5.543   2.813  12.788  2.3414  0.1547 -0.0923
15722TIP3   OH268656   0.303   3.817   4.987 -0.7425  0.3146 -0.1865
15722TIP3    H168657   0.353   3.760   5.045  2.4003 -0.0477 -2.9386
15722TIP3    H268658   0.265   3.758   4.922 -0.7800  1.0090 -0.8182
15723TIP3   OH268659   6.196   4.259   5.062  0.0376 -0.2281 -0.2522
15723TIP3    H168660   6.186   4.196   4.991  1.3546  0.2249 -0.8544
15723TIP3    H268661   6.289   4.261   5.080 -0.1798  0.3215  0.9025
15724TIP3   OH268662   5.367   5.386   1.506  0.6450  0.4990 -0.3399
15724TIP3    H168663   5.439   5.358   1.449  1.1612  0.0653  0.4952
15724TIP3    H268664   5.307   5.311   1.507  0.2328  0.8179 -0.9469
15725TIP3   OH268665   1.706   4.076   5.749  0.1822 -0.3714  0.2846
15725TIP3    H168666   1.610   4.080   5.750  0.1286 -1.1481 -0.4312
15725TIP3    H268667   1.732   4.084   5.841 -0.5311  0.4994  0.4226
15726TIP3   OH268668   5.425   2.996   5.238 -0.1494 -0.3947 -0.6736
15726TIP3    H168669   5.501   2.988   5.180  0.9442  0.6216  0.5546
15726TIP3    H268670   5.451   3.062   5.303 -1.5856 -0.9889  0.5679
15727TIP3   OH268671   2.960   2.279   1.420 -0.0815  0.3026 -0.2592
15727TIP3    H168672   2.953   2.224   1.342 -0.7149 -0.3687  0.2492
15727TIP3    H268673   3.005   2.225   1.485 -3.0504 -0.7656  1.1519
15728TIP3   OH268674   2.220   3.751  15.358 -0.7132 -0.5228  0.7210
15728TIP3    H168675   2.126   3.733  15.366 -0.5962 -0.7983  1.6668
15728TIP3    H268676   2.225   3.842  15.328 -1.2862 -0.1002  1.8436
15729TIP3   OH268677   5.668   1.792   1.586 -0.3912 -0.3682 -0.3829
15729TIP3    H168678   5.578   1.791   1.617 -0.6237 -0.8480 -1.0471
15729TIP3    H268679   5.677   1.876   1.541  0.0295  0.4534  1.1483
15730TIP3   OH268680   6.351   0.642   1.958  0.1415 -0.6912  0.0890
15730TIP3    H168681   6.309   0.596   2.031 -1.7994 -1.8889 -1.6953
15730TIP3    H268682   6.330   0.734   1.973  1.3770 -0.6592  1.9984
15731TIP3   OH268683   4.319   0.687   1.771  0.3782  0.3177 -0.2314
15731TIP3    H168684   4.406   0.703   1.810  1.4360 -0.2405 -2.2117
15731TIP3    H268685   4.338   0.669   1.679 -1.7555 -1.1009 -0.4458
15732TIP3   OH268686   5.752   3.047  12.268 -0.2712 -0.3524 -0.4218
15732TIP3    H168687   5.818   3.061  12.199  0.2056 -0.9300 -0.0918
15732TIP3    H268688   5.762   3.123  12.325 -0.4692 -0.0159 -0.8292
15733TIP3   OH268689   1.043   1.225   3.317 -0.1139 -0.2239  0.2723
15733TIP3    H168690   0.981   1.292   3.345 -1.9840 -1.0281 -1.7208
15733TIP3    H268691   1.111   1.272   3.270  1.0794  0.7057  2.7563
15734TIP3   OH268692   1.850   6.156   1.805  0.1067  0.4950  0.0024
15734TIP3    H168693   1.787   6.164   1.877 -0.3513  1.6346 -0.4894
15734TIP3    H268694   1.912   6.228   1.819  0.3096  0.4131 -0.4530
15735TIP3   OH268695   5.779   6.359  11.929  0.5575 -1.0351 -0.5710
15735TIP3    H168696   5.733   6.361  11.845  1.3773  1.5701 -1.0429
15735TIP3    H268697   5.797   6.450  11.949  0.0338 -1.5308  2.7093
15736TIP3   OH268698   5.426   1.175  12.317  0.3380 -0.4374  0.3587
15736TIP3    H168699   5.347   1.216  12.350  0.2221  0.3055 -0.7902
15736TIP3    H268700   5.493   1.196  12.383 -0.1162  0.0778  0.6662
15737TIP3   OH268701   5.028   3.968   4.610  0.0358  0.1205  0.2305
15737TIP3    H168702   5.041   3.902   4.678 -0.3234  1.1429  1.3318
15737TIP3    H268703   4.969   3.926   4.547  2.2904 -1.7372 -0.8028
15738TIP3   OH268704   1.216   6.430  14.098  0.1713 -0.0312 -0.2038
15738TIP3    H168705   1.252   6.500  14.153  0.7556  0.1994 -0.8706
15738TIP3    H268706   1.288   6.368  14.089 -0.1967 -0.4918 -0.0078
15739TIP3   OH268707   5.511   3.206   0.166 -0.4995  0.1469 -0.2219
15739TIP3    H168708   5.501   3.296   0.198 -1.6883 -0.0176 -0.0813
15739TIP3    H268709   5.453   3.201   0.090 -1.4167 -0.8308  0.4968
15740TIP3   OH268710   0.684   5.603  15.296  0.4619 -0.4852 -0.0470
15740TIP3    H168711   0.679   5.671  15.362 -1.2728 -0.2186 -0.4220
15740TIP3    H268712   0.776   5.604  15.268  1.6214 -1.5364  3.2384
15741TIP3   OH268713   2.405   2.535   4.241 -0.2362 -0.4336 -0.2997
15741TIP3    H168714   2.371   2.460   4.192  0.3444 -0.3857 -0.7883
15741TIP3    H268715   2.456   2.496   4.312  1.3015 -0.5280 -1.4170
15742TIP3   OH268716   1.450   1.598  11.331 -0.3287  0.3208  0.8529
15742TIP3    H168717   1.497   1.639  11.258 -0.7102 -0.5995  0.0845
15742TIP3    H268718   1.377   1.551  11.291 -1.1279  0.5978  1.9148
15743TIP3   OH268719   3.172   0.753   3.139  0.9109  0.0158 -0.3795
15743TIP3    H168720   3.201   0.683   3.081  2.9398 -0.5092  1.1979
15743TIP3    H268721   3.247   0.812   3.145  0.7019  0.1312  1.5806
15744TIP3   OH268722   2.044   1.830   0.276  0.1826  0.5646 -0.0996
15744TIP3    H168723   2.127   1.828   0.229  0.6611 -0.4334  0.7523
15744TIP3    H268724   2.043   1.914   0.321  0.6279  0.6783 -0.2987
15745TIP3   OH268725   0.555   2.906   1.942  0.2985 -0.6252 -0.2768
15745TIP3    H168726   0.521   2.987   1.981 -1.2966 -0.6397 -1.5278
15745TIP3    H268727   0.605   2.865   2.013 -1.4018 -0.0381  1.3807
15746TIP3   OH268728   3.770   4.315  12.825 -0.0781 -0.0106 -0.0884
15746TIP3    H168729   3.712   4.239  12.824  0.7779 -0.7441  1.7112
15746TIP3    H268730   3.725   4.379  12.880  0.4447 -0.2979  0.6943
15747TIP3   OH268731   5.908   5.781  12.343 -0.4102  0.6081  0.4492
15747TIP3    H168732   5.862   5.816  12.266 -2.1423  1.2644  1.7236
15747TIP3    H268733   5.840   5.769  12.408  1.0995  0.6250  2.1042
15748TIP3   OH268734   1.388   4.383  13.170 -0.0864 -0.3037 -0.2144
15748TIP3    H168735   1.293   4.384  13.183  0.0537 -1.7998  1.3055
15748TIP3    H268736   1.400   4.356  13.079 -1.1182  0.4514 -0.5839
15749TIP3   OH268737   1.504   2.306  16.551 -0.3948 -0.2645  0.8556
15749TIP3    H168738   1.486   2.364  16.478 -0.0229 -1.3385 -0.1275
15749TIP3    H268739   1.558   2.357  16.611  0.2349  0.2727 -0.1601
15750TIP3   OH268740   0.960   6.146  13.375 -0.5049 -0.8440  0.3144
15750TIP3    H168741   0.986   6.064  13.416 -0.6201  0.0280  2.2300
15750TIP3    H268742   0.980   6.213  13.440  2.7088  1.1370 -2.3777
15751TIP3   OH268743   4.212   0.285   0.070 -0.1337  0.6320  0.4903
15751TIP3    H168744   4.187   0.372   0.037 -0.6422  0.6995  1.0330
15751TIP3    H268745   4.161   0.224   0.017 -1.4674  0.7677  1.5703
15752TIP3   OH268746   2.919   2.207   2.498 -0.3135  0.3174  0.3011
15752TIP3    H168747   2.880   2.259   2.427 -0.3895 -0.2870 -0.1022
15752TIP3    H268748   2.845   2.161   2.537  0.0147 -1.0867 -0.6719
15753TIP3   OH268749   0.672   3.845   5.850  0.3026 -0.1180  0.2546
15753TIP3    H168750   0.632   3.870   5.934  0.6882  0.1224  0.3712
15753TIP3    H268751   0.730   3.772   5.873  0.9720  0.4371  0.3256
15754TIP3   OH268752   3.861   1.719   0.756 -0.7150 -0.6845  0.1474
15754TIP3    H168753   3.834   1.806   0.784 -0.2706 -1.0190  1.7108
15754TIP3    H268754   3.951   1.730   0.724  0.7760 -1.0579  3.6977
15755TIP3   OH268755   3.175   5.411   1.795 -0.5229  0.1028 -0.1185
15755TIP3    H168756   3.168   5.452   1.881  0.3762 -0.2555  0.1321
15755TIP3    H268757   3.109   5.341   1.796 -0.3953 -0.0148  0.3501
15756TIP3   OH268758   6.199   0.125   3.378  0.8948  0.1294  0.4677
15756TIP3    H168759   6.219   0.192   3.314  1.8795 -0.7971 -0.2350
15756TIP3    H268760   6.113   0.091   3.352  1.6547 -0.8198 -0.9064
15757TIP3   OH268761   3.949   5.120   4.815  0.7656 -0.4954 -0.0997
15757TIP3    H168762   3.872   5.145   4.765  1.1904  0.8357 -0.1130
15757TIP3    H268763   3.985   5.044   4.768 -0.2897 -0.8800 -0.3148
15758TIP3   OH268764   5.070   6.627   0.445  0.9449 -0.1325  0.4213
15758TIP3    H168765   4.975   6.618   0.450  0.8103  0.7507 -0.3350
15758TIP3    H268766   5.099   6.624   0.536  0.4485 -2.7900  0.5758
15759TIP3   OH268767   5.376   3.064  14.107 -0.2597 -0.1018  0.0811
15759TIP3    H168768   5.451   3.057  14.048 -0.1533 -0.3050  0.2405
15759TIP3    H268769   5.415   3.078  14.193 -0.3716 -1.2514  0.3342
15760TIP3   OH268770   4.729   3.703  14.906  0.1046 -0.2255 -0.3954
15760TIP3    H168771   4.702   3.627  14.854 -1.0975  1.0721 -1.7705
15760TIP3    H268772   4.820   3.719  14.879 -0.1741 -0.1988 -1.3842
15761TIP3   OH268773   3.637   1.721   6.575 -0.7886  0.4270 -0.6696
15761TIP3    H168774   3.627   1.642   6.628  0.1769  0.7526  0.0277
15761TIP3    H268775   3.605   1.696   6.488 -1.6573 -0.3539 -0.1437
15762TIP3   OH268776   6.686   4.121  16.480 -0.6031 -0.6358 -0.4266
15762TIP3    H168777   6.631   4.199  16.473 -0.2988 -0.4628 -1.0184
15762TIP3    H268778   6.764   4.143  16.428 -0.1085 -0.9833  0.1611
15763TIP3   OH268779   4.717   3.889   3.915 -0.2426 -0.0210 -0.0629
15763TIP3    H168780   4.764   3.806   3.905  1.1987  0.6786  0.7286
15763TIP3    H268781   4.664   3.877   3.994 -2.7966 -1.4094 -1.8455
15764TIP3   OH268782   4.780   1.145   5.786  0.3753  0.1774 -0.3488
15764TIP3    H168783   4.807   1.121   5.875  0.5084  0.8936 -0.1917
15764TIP3    H268784   4.808   1.236   5.776 -1.9262  0.9499 -0.2058
15765TIP3   OH268785   4.687   5.139   2.244 -0.2463  0.0374  0.4494
15765TIP3    H168786   4.616   5.158   2.182  1.6352  2.1080 -1.2210
15765TIP3    H268787   4.694   5.043   2.242  0.2498 -0.0032 -3.2968
15766TIP3   OH268788   1.595   4.962   5.438  0.5430 -0.1981  0.1101
15766TIP3    H168789   1.554   4.878   5.458 -1.0020  0.4323 -0.2421
15766TIP3    H268790   1.675   4.939   5.391 -0.4171 -1.4730 -0.9878
15767TIP3   OH268791   3.203   3.197   4.577 -0.2127  0.1851  0.2212
15767TIP3    H168792   3.292   3.185   4.545 -0.2384  0.3274  0.0966
15767TIP3    H268793   3.209   3.178   4.671  0.0111  0.4911  0.2705
15768TIP3   OH268794   4.423   5.400  11.193 -0.0558  0.3252  0.6282
15768TIP3    H168795   4.371   5.358  11.124  1.1179 -1.1825  0.5898
15768TIP3    H268796   4.437   5.490  11.162  1.1318 -0.5412 -1.5646
15769TIP3   OH268797   3.641   1.505  14.285  0.7777  0.4462  0.6426
15769TIP3    H168798   3.654   1.504  14.380  0.6984 -0.5169  0.6558
15769TIP3    H268799   3.564   1.450  14.271  0.5462  0.9151  0.0487
15770TIP3   OH268800   3.059   0.626   3.831  0.5991 -0.3401 -0.6703
15770TIP3    H168801   3.061   0.571   3.753 -0.6818  0.8308 -1.5726
15770TIP3    H268802   3.049   0.715   3.798  3.2460  0.5731  0.7233
15771TIP3   OH268803   3.384   1.529   5.166 -0.1096  0.1034 -0.4358
15771TIP3    H168804   3.295   1.536   5.200 -0.3840  1.1226 -1.3076
15771TIP3    H268805   3.379   1.564   5.077  1.4881  1.8948  0.0949
15772TIP3   OH268806   2.620   1.931   0.862 -0.5083  0.1074  0.3555
15772TIP3    H168807   2.696   1.912   0.807 -0.6936  0.2316  0.0550
15772TIP3    H268808   2.657   1.948   0.949 -0.2639 -0.6462  0.4009
15773TIP3   OH268809   2.220   2.269   2.099  0.8516  0.0128  0.3033
15773TIP3    H168810   2.168   2.235   2.026  1.4869  1.0786 -0.6750
15773TIP3    H268811   2.161   2.329   2.145  1.1514  1.0869 -0.7004
15774TIP3   OH268812   6.249   3.311   0.353 -0.2469  0.6153 -0.3041
15774TIP3    H168813   6.336   3.345   0.371 -0.0722  1.4337 -2.4145
15774TIP3    H268814   6.230   3.339   0.263 -2.1629 -0.6220 -0.3504
15775TIP3   OH268815   6.169   2.561   1.323  0.1427  0.4110 -0.1158
15775TIP3    H168816   6.253   2.557   1.277  0.6390 -0.0318  0.8180
15775TIP3    H268817   6.163   2.651   1.354  0.0841  0.5495 -0.5187
15776TIP3   OH268818   1.907   4.519  12.411 -0.2657  0.7204  0.1095
15776TIP3    H168819   1.871   4.602  12.379  1.6534  2.2104  1.5078
15776TIP3    H268820   1.862   4.504  12.494  0.1033  0.9395  0.3550
15777TIP3   OH268821   1.638   0.112  16.130 -0.3603 -0.3162 -0.1805
15777TIP3    H168822   1.715   0.068  16.166 -1.1519 -3.0751 -1.6255
15777TIP3    H268823   1.633   0.083  16.039 -3.4024 -0.6711 -0.0011
15778TIP3   OH268824   3.208   1.240   2.931  0.0831 -0.0839  0.9469
15778TIP3    H168825   3.229   1.312   2.989 -0.2750  3.1730 -2.5721
15778TIP3    H268826   3.115   1.252   2.911 -0.1166 -1.8607  0.6660
15779TIP3   OH268827   6.823   6.713   2.877  0.0622 -0.4814  0.1320
15779TIP3    H168828   6.817   6.677   2.966  0.1902  1.2032  0.8613
15779TIP3    H268829   6.789   6.802   2.886 -1.8621 -0.9280 -1.9365
15780TIP3   OH268830   2.574   5.084  14.594 -0.2593  0.7710 -0.4161
15780TIP3    H168831   2.488   5.086  14.636 -0.8827 -0.9734 -1.4719
15780TIP3    H268832   2.612   5.001  14.623  0.8721  1.2954 -0.3581
15781TIP3   OH268833   3.831   0.572  14.305 -0.0519  0.1053  0.6727
15781TIP3    H168834   3.878   0.492  14.283  1.2493  1.0104  0.0224
15781TIP3    H268835   3.898   0.629  14.343 -0.6005  1.4560 -0.3227
15782TIP3   OH268836   0.944   4.776   2.799  0.2996  0.2023  0.4168
15782TIP3    H168837   1.012   4.723   2.839  0.7918  0.1252 -0.4858
15782TIP3    H268838   0.976   4.793   2.710 -1.1980 -0.5216 -0.3149
15783TIP3   OH268839   2.869   6.752  14.116 -0.2794 -0.5258 -0.4749
15783TIP3    H168840   2.814   6.776  14.042 -1.8158  0.7585  0.9943
15783TIP3    H268841   2.924   6.681  14.084  0.6162  1.3344 -3.4640
15784TIP3   OH268842   1.857   5.335   0.422  0.1151 -0.2496  0.0220
15784TIP3    H168843   1.790   5.314   0.358  0.1671  1.3526 -0.6202
15784TIP3    H268844   1.932   5.281   0.398 -0.6711 -1.4711  0.2630
15785TIP3   OH268845   5.966   4.522  11.950 -0.2289 -0.2047  0.2574
15785TIP3    H168846   6.023   4.556  11.880 -0.4636 -1.6333 -0.6690
15785TIP3    H268847   5.882   4.567  11.936 -0.2739 -0.4818 -0.3936
15786TIP3   OH268848   3.121   6.033  13.442 -0.3289 -0.8341  0.2667
15786TIP3    H168849   3.069   6.052  13.364 -0.6663 -3.7084 -0.3218
15786TIP3    H268850   3.211   6.027  13.410 -0.2293 -0.3246  0.4403
15787TIP3   OH268851   3.795   3.279   1.895 -0.0354 -1.0212 -0.3514
15787TIP3    H168852   3.767   3.337   1.824  0.9165  0.6236  0.5513
15787TIP3    H268853   3.727   3.288   1.962  0.4510 -0.3499  0.0756
15788TIP3   OH268854   0.648   3.635   5.295 -0.5568  0.4026  0.2632
15788TIP3    H168855   0.715   3.581   5.337 -2.7217  0.3841  4.1644
15788TIP3    H268856   0.696   3.684   5.228  3.2980  0.2144  2.5581
15789TIP3   OH268857   3.546   5.859  16.465  0.2442 -0.3833 -1.0950
15789TIP3    H168858   3.479   5.793  16.483  0.5328 -0.4246 -0.0582
15789TIP3    H268859   3.620   5.810  16.431 -0.4269 -0.2714 -2.8030
15790TIP3   OH268860   1.847   4.755   2.951  0.8374 -0.2128 -0.5026
15790TIP3    H168861   1.829   4.767   3.044 -0.6802 -1.6331 -0.5641
15790TIP3    H268862   1.761   4.740   2.912  1.5842 -1.0676 -1.8949
15791TIP3   OH268863   0.110   1.895   5.813 -0.1958 -0.3148  0.2372
15791TIP3    H168864   0.118   1.800   5.818  0.4066 -0.2443  1.0352
15791TIP3    H268865   0.197   1.927   5.840  0.0818  0.4464 -1.4255
15792TIP3   OH268866   2.098   2.746  13.144 -0.1580  0.1760  0.0640
15792TIP3    H168867   2.101   2.725  13.051 -1.9566  0.2413 -0.0408
15792TIP3    H268868   2.064   2.835  13.148 -1.9579 -0.5047  0.8177
15793TIP3   OH268869   0.778   6.704   2.552 -0.0209  0.6776 -0.6042
15793TIP3    H168870   0.776   6.791   2.513  2.3300  0.6130 -1.0126
15793TIP3    H268871   0.739   6.716   2.639 -1.5529  1.6814 -1.3914
15794TIP3   OH268872   1.960   4.856  16.531 -0.5971  0.0954 -0.0870
15794TIP3    H168873   1.942   4.948  16.514 -2.2830  0.1144  1.3824
15794TIP3    H268874   1.876   4.821  16.561  0.2229 -1.7073  0.2443
15795TIP3   OH268875   2.246   6.627   3.272 -0.0333 -0.4651  0.3802
15795TIP3    H168876   2.278   6.665   3.191  1.4034  0.1847  1.1972
15795TIP3    H268877   2.302   6.550   3.286 -0.5261 -0.7953  0.5493
15796TIP3   OH268878   0.933   5.507  11.625  0.2934  0.7871 -0.0504
15796TIP3    H168879   0.876   5.496  11.549 -0.4462  1.9807  0.3019
15796TIP3    H268880   0.876   5.489  11.700  1.1535 -0.9550  0.2518
15797TIP3   OH268881   6.667   0.094  16.514  0.1655  0.5091 -0.1898
15797TIP3    H168882   6.635   0.170  16.464 -0.1780  0.7694  0.4183
15797TIP3    H268883   6.638   0.018  16.462 -0.8761  0.7547  0.0031
15798TIP3   OH268884   5.531   5.813  11.310  0.2940  0.4475  0.0156
15798TIP3    H168885   5.481   5.894  11.296  0.2642  0.1775 -1.6086
15798TIP3    H268886   5.608   5.841  11.360 -0.1987  1.3055  0.3248
15799TIP3   OH268887   3.120   5.965   1.902 -0.1900 -0.2313 -0.2298
15799TIP3    H168888   3.149   5.924   1.984  0.3757 -0.7829 -0.6985
15799TIP3    H268889   3.141   6.058   1.913  0.6760 -0.4369 -0.0844
15800TIP3   OH268890   5.627   5.634  14.004 -0.3140 -0.1588 -0.3709
15800TIP3    H168891   5.572   5.660  13.931 -0.6317 -0.0647 -0.0961
15800TIP3    H268892   5.582   5.666  14.082  0.4963  0.5640 -0.1902
15801TIP3   OH268893   2.864   2.999   1.294 -0.0077 -0.0961 -0.0323
15801TIP3    H168894   2.885   2.908   1.314  0.8975  0.0828 -0.1125
15801TIP3    H268895   2.864   3.043   1.380 -2.9085 -0.5965  0.3476
15802TIP3   OH268896   5.478   3.645  13.742 -0.3563 -0.7347 -0.5148
15802TIP3    H168897   5.464   3.683  13.829  1.3486 -0.1281 -0.4706
15802TIP3    H268898   5.393   3.653  13.698 -1.8015 -2.7542  1.6918
15803TIP3   OH268899   0.623   0.791   3.706 -0.4953 -0.4860  0.0916
15803TIP3    H168900   0.531   0.814   3.715 -0.1950  0.0751  2.1775
15803TIP3    H268901   0.658   0.856   3.645 -1.4250 -0.6379 -0.6338
15804TIP3   OH268902   1.971   5.252   5.072  0.6295 -0.2315 -0.4472
15804TIP3    H168903   1.974   5.158   5.091 -0.0524 -0.5346 -1.7375
15804TIP3    H268904   1.877   5.271   5.063  0.8096  0.3621 -1.1547
15805TIP3   OH268905   6.007   3.465  12.507  0.1248  0.0911  0.2780
15805TIP3    H168906   6.046   3.415  12.578 -0.9678  1.0758  1.6110
15805TIP3    H268907   6.046   3.552  12.514 -0.5171  0.3938  0.1071
15806TIP3   OH268908   5.996   0.903  15.608  0.3833  0.2026  0.2704
15806TIP3    H168909   5.962   0.941  15.689 -1.0076 -1.5134  0.5376
15806TIP3    H268910   5.930   0.927  15.542  1.1259  0.9348 -0.2261
15807TIP3   OH268911   0.181   1.749  14.623 -0.6022 -0.4720  0.0195
15807TIP3    H168912   0.103   1.761  14.569  0.4238 -0.0522 -1.4460
15807TIP3    H268913   0.250   1.795  14.575  1.3048 -3.6139 -0.5837
15808TIP3   OH268914   2.552   2.876  13.891 -0.5724 -0.0878 -0.6012
15808TIP3    H168915   2.488   2.824  13.940  0.5513 -0.8091  0.1626
15808TIP3    H268916   2.577   2.946  13.950 -0.1905 -0.1827 -0.6459
15809TIP3   OH268917   2.793   3.494   3.977  0.3822  0.2760  0.0281
15809TIP3    H168918   2.845   3.537   4.045  0.5304  1.3078 -0.7154
15809TIP3    H268919   2.739   3.564   3.941 -2.6193 -0.9946  1.7125
15810TIP3   OH268920   5.231   4.949   1.778  0.8262  0.0392 -0.2279
15810TIP3    H168921   5.180   4.908   1.848  0.2981  0.3144 -0.4501
15810TIP3    H268922   5.276   5.022   1.821  0.6744  0.0741 -0.1291
15811TIP3   OH268923   0.973   6.823  15.954 -0.0892  0.1544  0.2273
15811TIP3    H168924   0.909   6.894  15.948 -1.0166 -0.5794  1.0627
15811TIP3    H268925   0.951   6.778  16.036  0.1855 -1.3694 -0.4895
15812TIP3   OH268926   3.928   5.125   1.383 -0.1792 -0.8373  0.5090
15812TIP3    H168927   4.022   5.133   1.401 -0.0766 -0.1161 -0.2619
15812TIP3    H268928   3.920   5.042   1.335  0.3533  0.0059 -1.0933
15813TIP3   OH268929   0.240   1.755  11.222  0.6157  0.4591  0.2350
15813TIP3    H168930   0.290   1.763  11.303  0.4423 -0.5727  0.4512
15813TIP3    H268931   0.305   1.767  11.153  0.6048  2.3349  0.4971
15814TIP3   OH268932   3.232   3.643   1.635 -0.3910  0.2485  0.5546
15814TIP3    H168933   3.173   3.709   1.672 -3.2259 -0.3624 -2.3489
15814TIP3    H268934   3.238   3.576   1.703 -2.9831  0.4589  1.1220
15815TIP3   OH268935   3.465   5.667   0.268  0.2554  0.1557 -0.5549
15815TIP3    H168936   3.556   5.645   0.288 -0.2893 -0.5434  1.4024
15815TIP3    H268937   3.440   5.731   0.334 -1.2806 -1.2806  0.3504
15816TIP3   OH268938   5.363   6.345   5.896 -0.0132  0.4210  0.3480
15816TIP3    H168939   5.306   6.351   5.973 -0.1349  0.6804  0.2362
15816TIP3    H268940   5.439   6.295   5.927 -0.2243  0.2112  0.5405
15817TIP3   OH268941   1.008   2.828   2.004 -0.3596 -0.4451  0.2453
15817TIP3    H168942   1.076   2.870   2.057 -0.2729 -1.1335  0.7005
15817TIP3    H268943   1.045   2.743   1.981  0.5586  0.6961 -2.9423
15818TIP3   OH268944   3.486   1.401   6.255 -0.1308 -0.1847  0.2261
15818TIP3    H168945   3.444   1.364   6.177 -0.3076  0.0207  0.2221
15818TIP3    H268946   3.570   1.356   6.260 -0.8000 -1.4260  0.8709
15819TIP3   OH268947   6.074   4.069  13.122  0.3271  0.2127 -0.7071
15819TIP3    H168948   5.982   4.096  13.113  0.1110 -0.2595 -0.0700
15819TIP3    H268949   6.085   4.001  13.056  0.1976  0.2191 -0.7363
15820TIP3   OH268950   3.347   4.788   0.074  0.3573  0.7163  0.6107
15820TIP3    H168951   3.298   4.718   0.118  1.8033  0.2271  1.5106
15820TIP3    H268952   3.319   4.868   0.118  0.3485  0.4483  1.1022
15821TIP3   OH268953   0.344   2.042   0.043 -0.0490  0.1480 -0.9642
15821TIP3    H168954   0.324   2.104   0.113 -0.1481 -0.6284 -0.2985
15821TIP3    H268955   0.397   2.092  -0.019  0.3773  0.7292 -0.1366
15822TIP3   OH268956   1.828   0.906  14.654 -0.1392  0.9977 -0.2682
15822TIP3    H168957   1.823   0.899  14.750  2.2031 -1.2723 -0.1794
15822TIP3    H268958   1.916   0.875  14.633 -1.2500 -0.5078 -3.2861
15823TIP3   OH268959   2.443   3.355  17.103  0.0939 -0.0407  0.6051
15823TIP3    H168960   2.517   3.402  17.065 -0.8400  0.4567 -0.6724
15823TIP3    H268961   2.385   3.423  17.135 -0.6483 -0.3533 -0.0524
15824TIP3   OH268962   3.664   4.057   0.882 -0.0431 -0.1391  0.0091
15824TIP3    H168963   3.684   4.037   0.791  1.4184 -0.6605  0.4078
15824TIP3    H268964   3.676   3.974   0.928 -1.5733 -0.0749  0.5789
15825TIP3   OH268965   6.500   4.701   4.976 -0.4488  0.3883 -0.6375
15825TIP3    H168966   6.539   4.765   5.036  0.7669 -1.1847  0.3323
15825TIP3    H268967   6.565   4.631   4.972 -2.0131 -1.0658 -1.1722
15826TIP3   OH268968   2.469   2.614  13.722 -0.4683 -0.9225  0.5501
15826TIP3    H168969   2.431   2.678  13.662 -1.0028 -1.2512  0.5245
15826TIP3    H268970   2.557   2.647  13.741 -1.0349  0.2531  1.1939
15827TIP3   OH268971   4.268   2.412  13.581 -0.7648  0.4032 -0.3324
15827TIP3    H168972   4.321   2.382  13.507 -1.1950 -0.8518 -0.1552
15827TIP3    H268973   4.279   2.344  13.648 -1.0390  1.1093  0.4440
15828TIP3   OH268974   0.666   2.167   1.956 -0.3135  0.0527 -0.3820
15828TIP3    H168975   0.749   2.200   1.921 -1.9611  3.1649 -1.7616
15828TIP3    H268976   0.651   2.220   2.035 -0.9724 -0.5060 -0.1268
15829TIP3   OH268977   4.997   1.115   1.777 -0.1833  0.4203 -0.2081
15829TIP3    H168978   4.998   1.184   1.710  0.0173  1.0857  0.4798
15829TIP3    H268979   5.087   1.083   1.780 -0.0934  0.7025  0.0700
15830TIP3   OH268980   4.995   4.030  14.794 -0.6076 -0.3342  1.0436
15830TIP3    H168981   4.903   4.056  14.802  0.1608  2.8717  0.6263
15830TIP3    H268982   5.036   4.102  14.747  2.4099 -1.0275  2.4203
15831TIP3   OH268983   4.780   0.476  15.538 -0.3056  0.3576  0.2671
15831TIP3    H168984   4.865   0.448  15.506 -1.0162  1.1922 -2.6194
15831TIP3    H268985   4.739   0.396  15.572  0.9595 -0.3574  0.1459
15832TIP3   OH268986   0.321   4.646   0.464  1.0893 -0.4914 -0.0026
15832TIP3    H168987   0.302   4.736   0.492  1.3634 -0.1991 -0.7240
15832TIP3    H268988   0.242   4.597   0.488  0.8193  0.0018  0.1442
15833TIP3   OH268989   1.342   0.673   2.400 -0.0257  0.2299 -0.4072
15833TIP3    H168990   1.283   0.633   2.336 -1.3351 -0.7358  1.3298
15833TIP3    H268991   1.297   0.752   2.428 -0.2699 -0.2231  0.5220
15834TIP3   OH268992   5.975   6.483   0.969 -0.4166  0.0752  0.1922
15834TIP3    H168993   6.036   6.489   0.896 -0.9457 -0.5572 -0.3113
15834TIP3    H268994   5.917   6.410   0.947 -0.3104 -0.4209  1.4515
15835TIP3   OH268995   5.615   5.873  15.790  0.1656 -0.4272  0.1433
15835TIP3    H168996   5.519   5.876  15.786  0.1765  0.4009  0.4017
15835TIP3    H268997   5.643   5.950  15.740  0.7175 -0.9987 -0.4466
15836TIP3   OH268998   0.749   4.599   1.174 -0.0100 -0.1028  0.0628
15836TIP3    H168999   0.691   4.671   1.199 -1.1950 -0.8836 -0.3457
15836TIP3    H269000   0.755   4.606   1.079  1.4980  0.6412  0.1922
15837TIP3   OH269001   0.339   1.392   2.863 -0.0687 -0.1251 -0.2668
15837TIP3    H169002   0.423   1.399   2.818  0.0267 -1.2184 -0.2999
15837TIP3    H269003   0.295   1.319   2.819 -0.6317 -0.1853  0.3876
15838TIP3   OH269004   6.402   0.814  12.523 -0.0493 -0.1719  0.0995
15838TIP3    H169005   6.336   0.848  12.582 -1.8405 -1.6949 -0.8830
15838TIP3    H269006   6.356   0.804  12.439  1.2922 -1.6383 -0.5255
15839TIP3   OH269007   2.719   1.089   4.668 -0.1480  0.1620  0.0825
15839TIP3    H169008   2.675   1.116   4.748  1.8799 -0.2303  1.3849
15839TIP3    H269009   2.808   1.067   4.695  0.5757 -0.0771 -2.2632
15840TIP3   OH269010   0.409   5.657  14.444  0.1034  0.0227 -0.6993
15840TIP3    H169011   0.436   5.702  14.524  1.5938  1.2028 -1.8199
15840TIP3    H269012   0.316   5.680  14.435 -0.2016 -0.4430  0.8537
15841TIP3   OH269013   1.994   4.346  14.620 -0.1250 -0.0496  0.1717
15841TIP3    H169014   2.039   4.267  14.649  1.5130  1.2553  1.3992
15841TIP3    H269015   1.901   4.323  14.623  0.3202 -2.6688 -1.9013
15842TIP3   OH269016   1.104   1.500  15.783  0.4541 -0.5244 -0.3059
15842TIP3    H169017   1.158   1.532  15.711 -1.9076 -2.6020 -3.2516
15842TIP3    H269018   1.105   1.572  15.847  0.3702  2.8072 -3.6730
15843TIP3   OH269019   1.322   0.408   5.620 -0.1916 -0.2719  0.6723
15843TIP3    H169020   1.338   0.392   5.713  0.2075 -0.1987  0.6185
15843TIP3    H269021   1.303   0.322   5.584  0.4319 -0.4097  0.6721
15844TIP3   OH269022   3.839   0.003   4.634  0.0808  0.1304  0.0615
15844TIP3    H169023   3.890   0.019   4.714  0.6625 -2.2608  0.2417
15844TIP3    H269024   3.783  -0.071   4.655 -1.0633  0.5816 -1.2238
15845TIP3   OH269025   0.526   6.225   0.978 -0.4715 -0.1696 -0.1617
15845TIP3    H169026   0.530   6.215   1.073 -2.9257  0.4728  0.0597
15845TIP3    H269027   0.558   6.314   0.962 -1.8794  0.4304  0.2758
15846TIP3   OH269028   4.264   2.695  13.968  0.2922  0.2529 -0.0109
15846TIP3    H169029   4.208   2.772  13.980  1.0206  0.6445  0.9512
15846TIP3    H269030   4.210   2.634  13.917 -1.0579  0.5580  0.9958
15847TIP3   OH269031   6.261   4.280  13.391  0.3602 -0.3468  0.1262
15847TIP3    H169032   6.216   4.364  13.390 -0.2645 -0.6831 -0.3987
15847TIP3    H269033   6.209   4.225  13.450  0.8597 -0.3212  0.5993
15848TIP3   OH269034   4.060   6.641  12.980 -0.4897  0.2951 -0.2138
15848TIP3    H169035   3.990   6.700  13.007 -1.2910 -0.9652  0.5723
15848TIP3    H269036   4.020   6.585  12.913 -0.0632 -0.0520 -0.1890
15849TIP3   OH269037   4.194   0.461   1.976 -0.2632  0.0602 -0.2055
15849TIP3    H169038   4.224   0.500   1.894 -0.5418  2.2176  0.6599
15849TIP3    H269039   4.248   0.501   2.043 -0.3837 -1.2890  0.7363
15850TIP3   OH269040   2.914   5.631  16.092 -0.0016 -0.0633  0.0262
15850TIP3    H169041   2.961   5.554  16.123 -0.5216 -0.2447  0.3684
15850TIP3    H269042   2.961   5.705  16.132  0.7251 -0.1720 -0.6048
15851TIP3   OH269043   1.774   4.735   1.114  0.6720 -0.1824 -0.0930
15851TIP3    H169044   1.706   4.755   1.049  1.6848 -1.3473 -1.5840
15851TIP3    H269045   1.725   4.713   1.193 -0.5959  1.7274 -0.2630
15852TIP3   OH269046   5.862   0.375  17.246  0.4524 -0.4787 -0.9615
15852TIP3    H169047   5.823   0.305  17.194 -3.0758  0.7881 -0.2648
15852TIP3    H269048   5.855   0.345  17.336 -0.4149  0.3863 -0.7146
15853TIP3   OH269049   3.204   4.748  13.124  1.0263 -0.1870  0.8854
15853TIP3    H169050   3.183   4.662  13.087  1.8603  0.1528 -0.4760
15853TIP3    H269051   3.285   4.774  13.079  1.2433  0.9525  1.8763
15854TIP3   OH269052   3.088   5.328  12.300 -0.1848 -0.0055 -0.6552
15854TIP3    H169053   3.148   5.291  12.235  1.1056 -1.4053  1.2151
15854TIP3    H269054   3.037   5.254  12.331 -0.5205  0.5605  0.1829
15855TIP3   OH269055   5.281   4.247  16.896 -0.7915 -0.6283 -0.5889
15855TIP3    H169056   5.360   4.284  16.934 -0.6790 -1.0257 -0.4362
15855TIP3    H269057   5.307   4.161  16.864 -1.2211 -0.8619 -0.3131
15856TIP3   OH269058   5.460   5.378  12.485 -0.2382 -0.1017  0.1417
15856TIP3    H169059   5.433   5.290  12.460  0.1806  0.0849 -1.0248
15856TIP3    H269060   5.544   5.391  12.441  1.4001 -0.3325  2.9183
15857TIP3   OH269061   4.179   0.240   2.810 -0.2889  0.3608  0.4017
15857TIP3    H169062   4.200   0.316   2.756  0.1288  1.2241  1.7343
15857TIP3    H269063   4.253   0.232   2.871 -0.9152 -0.3437  1.1019
15858TIP3   OH269064   4.478   4.449  12.482 -0.4334  0.2574  0.8459
15858TIP3    H169065   4.527   4.524  12.451  0.3754 -0.2924  0.7569
15858TIP3    H269066   4.538   4.375  12.473 -1.2974 -0.4540  0.6733
15859TIP3   OH269067   1.619   4.300   2.528  0.3055 -0.5109 -0.2148
15859TIP3    H169068   1.682   4.322   2.460  0.3344  0.8707  0.2359
15859TIP3    H269069   1.537   4.284   2.482  0.2016  0.9189 -0.5430
15860TIP3   OH269070   6.474   2.411   4.375 -0.1917  0.6261 -1.0085
15860TIP3    H169071   6.557   2.417   4.422 -1.0737 -1.4754  1.0727
15860TIP3    H269072   6.442   2.501   4.370  1.7208  1.3510 -0.9637
15861TIP3   OH269073   6.730   4.718   1.398  0.0647 -0.1981  0.4960
15861TIP3    H169074   6.762   4.805   1.421  0.8378 -0.1852 -0.5779
15861TIP3    H269075   6.641   4.733   1.366  0.4669  0.2944 -0.4029
15862TIP3   OH269076   6.100   5.060   3.273 -0.4719 -0.6968  0.4943
15862TIP3    H169077   6.140   5.147   3.270 -1.6393 -0.1647 -0.7141
15862TIP3    H269078   6.080   5.040   3.181 -0.8319 -1.9609  0.8321
15863TIP3   OH269079   1.254   5.988   2.170  0.4524  0.2541  0.5569
15863TIP3    H169080   1.169   5.946   2.159 -0.5848  0.6328  5.0302
15863TIP3    H269081   1.235   6.081   2.172  1.2962  0.4529 -0.2228
15864TIP3   OH269082   3.145   1.320  11.587  0.8780  0.5039 -0.0880
15864TIP3    H169083   3.204   1.350  11.518  3.0336  0.1386  1.4713
15864TIP3    H269084   3.122   1.399  11.636  1.3331  0.4558  0.2077
15865TIP3   OH269085   1.304   4.964   4.260  0.4746 -0.0106  0.0733
15865TIP3    H169086   1.348   4.997   4.182  0.1560  2.2367  0.7488
15865TIP3    H269087   1.214   4.999   4.252  0.5448  0.5968  1.5806
15866TIP3   OH269088   0.329   2.014  13.697 -0.2686  0.3597  0.6223
15866TIP3    H169089   0.253   2.072  13.692 -0.0941  0.5047 -1.6166
15866TIP3    H269090   0.404   2.074  13.704 -0.2511  0.2813  1.1397
15867TIP3   OH269091   6.041   1.357   1.384 -0.0767 -0.1278 -0.4231
15867TIP3    H169092   5.997   1.418   1.443  0.1231 -0.4821  0.1019
15867TIP3    H269093   6.104   1.411   1.337 -0.0840  0.1221 -0.1510
15868TIP3   OH269094   5.654   4.214   3.726 -0.1908 -0.6835 -0.2841
15868TIP3    H169095   5.688   4.227   3.637 -2.5461  0.7818 -1.0489
15868TIP3    H269096   5.578   4.156   3.714 -0.7196 -0.2211  0.7146
15869TIP3   OH269097   6.099   5.843  16.460 -0.3969  0.0877  0.2469
15869TIP3    H169098   6.084   5.875  16.549 -0.0724  1.5373 -0.1911
15869TIP3    H269099   6.129   5.920  16.412 -2.3115 -0.2305 -1.5873
15870TIP3   OH269100   2.619   3.596  12.110 -0.2200 -0.0079  0.2545
15870TIP3    H169101   2.688   3.583  12.045  0.9423 -0.6456  1.5637
15870TIP3    H269102   2.611   3.691  12.117 -1.5562  0.1344 -1.9649
15871TIP3   OH269103   6.108   1.615   1.264 -0.5256 -0.7094  0.2959
15871TIP3    H169104   6.077   1.614   1.174 -0.1282 -0.8412  0.1599
15871TIP3    H269105   6.122   1.708   1.284  1.4352 -0.7873 -0.4968
15872TIP3   OH269106   4.367   0.132   4.846 -0.7391  0.5605 -0.0089
15872TIP3    H169107   4.329   0.194   4.784 -0.0462  0.9030 -0.0939
15872TIP3    H269108   4.411   0.186   4.911  0.6234  0.1494 -0.5624
15873TIP3   OH269109   5.684   3.722   0.238 -0.0598  0.8005 -0.2543
15873TIP3    H169110   5.639   3.789   0.188 -0.7659  0.0027 -0.7145
15873TIP3    H269111   5.734   3.770   0.304 -2.5132  1.7241  1.0939
15874TIP3   OH269112   2.367   3.180   1.181 -0.3261 -0.0718 -0.8258
15874TIP3    H169113   2.439   3.226   1.137 -1.0675  2.1189  0.0831
15874TIP3    H269114   2.291   3.197   1.126 -0.8533  0.9078  0.1785
15875TIP3   OH269115   4.081   4.194  11.773  0.2218  0.3494 -0.1015
15875TIP3    H169116   4.018   4.130  11.740 -0.7970  1.1650  0.2275
15875TIP3    H269117   4.105   4.161  11.860 -0.0818  0.2629 -0.0500
15876TIP3   OH269118   2.170   1.330  16.183 -0.1372 -0.2226  0.3427
15876TIP3    H169119   2.167   1.417  16.223  1.1108 -0.3516  0.7525
15876TIP3    H269120   2.261   1.301  16.193  0.1017 -0.5356 -2.0400
15877TIP3   OH269121   2.762   2.681  16.054  0.9065 -0.1409  0.3257
15877TIP3    H169122   2.757   2.754  15.993 -1.7030  0.1351  0.7420
15877TIP3    H269123   2.696   2.700  16.120  1.7981 -1.7429  1.7696
15878TIP3   OH269124   6.359   4.156  16.486 -0.4666  0.0906  0.6190
15878TIP3    H169125   6.270   4.148  16.453 -1.1084  1.7946  1.7771
15878TIP3    H269126   6.374   4.074  16.534 -0.1108 -1.6844 -2.3077
15879TIP3   OH269127   2.122   1.842  16.318 -0.2815 -0.5352  0.9557
15879TIP3    H169128   2.149   1.932  16.298  2.6136 -1.9017 -2.2904
15879TIP3    H269129   2.046   1.827  16.262 -1.4430  0.1303  2.2967
15880TIP3   OH269130   2.133   0.605   2.090  0.0628  0.6232 -0.6086
15880TIP3    H169131   2.155   0.641   2.176  1.2455 -0.9387 -0.2105
15880TIP3    H269132   2.045   0.569   2.101 -1.2157  3.3337 -1.0517
15881TIP3   OH269133   3.167   0.181  13.522 -0.6646  0.3414 -0.1441
15881TIP3    H169134   3.249   0.221  13.551 -0.1318 -0.9386  0.1962
15881TIP3    H269135   3.119   0.252  13.479 -0.2132  1.5924  1.3190
15882TIP3   OH269136   1.530   1.889  13.964 -0.0128 -0.6464 -0.0726
15882TIP3    H169137   1.569   1.958  13.911  1.2055 -0.0066  1.5556
15882TIP3    H269138   1.597   1.820  13.965 -0.1939 -0.8166  0.2881
15883TIP3   OH269139   2.737   2.753   1.982  0.5495  0.1254  0.5021
15883TIP3    H169140   2.744   2.833   2.034  1.2938  0.1203  0.4213
15883TIP3    H269141   2.734   2.783   1.891 -0.1268  0.1041  0.5145
15884TIP3   OH269142   1.670   5.908  13.227  0.7009  0.2435  0.1722
15884TIP3    H169143   1.731   5.836  13.210  0.3206 -0.1214  0.3404
15884TIP3    H269144   1.604   5.901  13.157  1.0029  0.8092 -0.1771
15885TIP3   OH269145   4.812   3.416  11.195  0.1963  0.3746 -0.2110
15885TIP3    H169146   4.902   3.382  11.189  0.1442  0.3184 -0.7884
15885TIP3    H269147   4.768   3.356  11.254  0.7898  0.9651  0.8525
15886TIP3   OH269148   2.807   3.155   5.758 -0.5041  0.5120  0.3345
15886TIP3    H169149   2.821   3.099   5.681  1.8820  0.6168  0.5904
15886TIP3    H269150   2.745   3.106   5.812 -0.0635 -0.9235 -0.3850
15887TIP3   OH269151   4.637   4.660  16.764 -0.1123 -0.3530 -0.1598
15887TIP3    H169152   4.587   4.694  16.837 -0.1658  0.0323 -0.3741
15887TIP3    H269153   4.728   4.685  16.783 -0.1196 -0.2951 -0.2029
15888TIP3   OH269154   2.069   4.592  13.271 -0.0997 -0.0431  0.5663
15888TIP3    H169155   2.108   4.594  13.183 -1.5371  1.4677 -0.0778
15888TIP3    H269156   2.120   4.654  13.322 -0.1799  0.1636  0.3928
15889TIP3   OH269157   5.468   1.480  16.421  0.5143  0.2173  0.1676
15889TIP3    H169158   5.464   1.488  16.326  1.8474  0.2772  0.0985
15889TIP3    H269159   5.425   1.560  16.454 -3.0404 -1.3169 -0.2854
15890TIP3   OH269160   5.202   5.414  12.382 -0.2939  0.4092 -0.4252
15890TIP3    H169161   5.230   5.415  12.291  0.9900 -2.1962 -0.1569
15890TIP3    H269162   5.280   5.437  12.432 -0.8423  1.2748  0.0649
15891TIP3   OH269163   0.389   4.046   3.201 -0.5341  0.5508  0.1591
15891TIP3    H169164   0.397   4.134   3.239 -1.2709 -0.4754  2.9195
15891TIP3    H269165   0.452   3.993   3.250 -0.7001 -0.6805 -0.9000
15892TIP3   OH269166   6.149   1.844  14.188  0.3997  0.0018  0.4729
15892TIP3    H169167   6.170   1.825  14.279 -2.1797 -0.0237  1.1622
15892TIP3    H269168   6.226   1.815  14.138  0.8670 -2.4436  2.4034
15893TIP3   OH269169   6.686   4.361  12.274  0.6230 -0.0397 -0.4230
15893TIP3    H169170   6.714   4.436  12.326  0.9192 -0.5767  0.2013
15893TIP3    H269171   6.607   4.392  12.229  0.4166  0.4653  0.2643
15894TIP3   OH269172   0.099   5.225   2.210 -0.3220 -0.9383  0.1041
15894TIP3    H169173   0.095   5.282   2.286  1.0557  0.7341 -1.0167
15894TIP3    H269174   0.042   5.151   2.233 -2.0568  0.7645  1.6845
15895TIP3   OH269175   3.041   2.782  12.089 -0.1571  0.0892 -0.7441
15895TIP3    H169176   3.112   2.836  12.054  2.0762 -2.0637  0.1706
15895TIP3    H269177   2.989   2.758  12.012  0.9571  0.5451 -1.6672
15896TIP3   OH269178   5.435   3.391   5.140 -0.3923  0.1324 -0.2115
15896TIP3    H169179   5.462   3.331   5.070 -0.1059 -0.9272  0.7765
15896TIP3    H269180   5.394   3.464   5.094 -0.3467 -0.6019 -1.4755
15897TIP3   OH269181   4.180   6.573   3.101 -0.4681  0.0019  0.2620
15897TIP3    H169182   4.097   6.604   3.139  0.3401  2.2077  0.4161
15897TIP3    H269183   4.247   6.624   3.147  1.1432 -2.8150  1.2252
15898TIP3   OH269184   5.208   4.440  13.211 -0.4786 -0.2408 -0.3035
15898TIP3    H169185   5.113   4.449  13.218 -0.3353  0.8756  0.3790
15898TIP3    H269186   5.243   4.506  13.270  0.7312  0.1216 -1.3778
15899TIP3   OH269187   6.365   6.041   6.013 -0.3458 -0.6190 -0.2584
15899TIP3    H169188   6.454   6.066   6.035 -1.3049  2.5837  0.5579
15899TIP3    H269189   6.352   6.072   5.923 -0.7853 -0.4590 -0.1480
15900TIP3   OH269190   1.229   2.484  13.573  0.1591  0.0540  0.1031
15900TIP3    H169191   1.181   2.552  13.528  0.3857  0.5493  0.5953
15900TIP3    H269192   1.227   2.409  13.513 -2.6488 -0.5316  0.7768
15901TIP3   OH269193   3.507   5.901   2.352  0.3093  0.1632  0.2254
15901TIP3    H169194   3.582   5.955   2.326  1.0410 -0.9079  0.0096
15901TIP3    H269195   3.506   5.830   2.288  0.5594 -1.1287  1.5953
15902TIP3   OH269196   4.434   3.948  12.516 -0.3017  0.7759 -0.5974
15902TIP3    H169197   4.446   3.933  12.422 -2.6056  2.0493 -1.1524
15902TIP3    H269198   4.386   4.030  12.522  0.6426  1.2323  1.7741
15903TIP3   OH269199   2.459   2.590  12.641  0.2442 -0.3528 -0.5225
15903TIP3    H169200   2.475   2.679  12.674 -1.5511  0.1362 -0.8462
15903TIP3    H269201   2.367   2.591  12.614 -0.1098 -2.6027  0.3761
15904TIP3   OH269202   6.613   0.347   5.530  0.1009  0.3761  0.2063
15904TIP3    H169203   6.667   0.396   5.467  2.3523 -0.6878  1.1878
15904TIP3    H269204   6.539   0.316   5.478  0.3249  1.9953 -1.2010
15905TIP3   OH269205   6.575   3.524  14.153  0.6438  0.2097 -0.3131
15905TIP3    H169206   6.581   3.614  14.122  3.0135  0.1787 -0.1587
15905TIP3    H269207   6.578   3.471  14.072 -0.9104  0.2399 -0.4138
15906TIP3   OH269208   6.205   5.326   2.349  0.1158  0.2432 -0.4597
15906TIP3    H169209   6.286   5.314   2.300 -0.1557 -0.1288 -0.8269
15906TIP3    H269210   6.206   5.417   2.378  0.0179  0.6294 -1.6330
15907TIP3   OH269211   6.599   5.955  12.649 -0.1249 -0.6626  0.5093
15907TIP3    H169212   6.525   5.904  12.683 -0.5729 -0.1078  0.3698
15907TIP3    H269213   6.592   5.947  12.554 -0.3660 -0.1046  0.4768
15908TIP3   OH269214   2.115   1.682  13.142  0.4717  0.2299  0.2310
15908TIP3    H169215   2.130   1.764  13.094  1.2362  0.3956  0.7366
15908TIP3    H269216   2.070   1.625  13.079  1.5418  0.4097 -0.7291
15909TIP3   OH269217   5.673   5.444  14.724  0.2115  0.3765  0.1270
15909TIP3    H169218   5.638   5.379  14.663 -0.7215  0.6828  0.3185
15909TIP3    H269219   5.596   5.477  14.770  1.0632 -1.9249  3.6142
15910TIP3   OH269220   2.840   1.117   3.815 -1.1689  0.6728 -0.7164
15910TIP3    H169221   2.873   1.140   3.728  2.6212 -2.1328 -0.2661
15910TIP3    H269222   2.882   1.179   3.874 -0.2043 -0.1195 -0.5475
15911TIP3   OH269223   6.700   6.744  15.614 -0.1715  0.2807 -0.4232
15911TIP3    H169224   6.748   6.748  15.532  1.1380 -1.5920  0.1797
15911TIP3    H269225   6.725   6.825  15.660  1.1748  0.1045 -0.7982
15912TIP3   OH269226   1.383   3.972   3.687  0.0759 -0.7188 -0.2792
15912TIP3    H169227   1.414   3.996   3.600 -0.9719 -1.9773 -1.0405
15912TIP3    H269228   1.288   3.958   3.676 -0.4037  0.7550  1.4423
15913TIP3   OH269229   5.928   2.605  15.509 -0.3340  0.6203 -0.5186
15913TIP3    H169230   5.832   2.595  15.508 -0.2315 -0.5419 -0.1217
15913TIP3    H269231   5.961   2.516  15.502  0.7137  0.8956  0.6949
15914TIP3   OH269232   0.430   6.706  13.192 -0.1839  0.5749  0.4936
15914TIP3    H169233   0.419   6.759  13.271 -2.0283  0.9020  0.0727
15914TIP3    H269234   0.396   6.620  13.217  1.4462 -0.0227  0.7380
15915TIP3   OH269235   0.017   3.122  16.760  0.6158  0.1731  0.9537
15915TIP3    H169236  -0.064   3.073  16.774  0.9206 -0.8932 -0.7844
15915TIP3    H269237  -0.009   3.198  16.708  0.8116 -0.5885 -0.2995
15916TIP3   OH269238   1.819   1.066   4.826 -0.4362 -0.5718  0.3218
15916TIP3    H169239   1.831   0.998   4.759 -0.6585 -0.0351 -0.2779
15916TIP3    H269240   1.874   1.139   4.796  1.6757 -1.2956  2.1738
15917TIP3   OH269241   2.052   6.051  16.244 -0.2839 -0.6524 -0.0603
15917TIP3    H169242   2.052   6.015  16.155  0.1099  1.5125 -0.9829
15917TIP3    H269243   2.141   6.036  16.277 -0.3196 -1.1020 -0.1580
15918TIP3   OH269244   6.801   1.660  12.815 -0.3237  0.1270  0.0664
15918TIP3    H169245   6.801   1.682  12.908  1.3102 -0.4876  0.2581
15918TIP3    H269246   6.840   1.572  12.811 -0.4411  0.1093 -1.1829
15919TIP3   OH269247   3.100   0.848  12.981 -0.4284  0.0798 -0.0278
15919TIP3    H169248   3.084   0.811  13.067 -1.1579 -0.0756 -0.2273
15919TIP3    H269249   3.032   0.915  12.970 -0.6564 -0.2529 -0.6894
15920TIP3   OH269250   1.668   1.050   1.507 -0.5256 -0.0718 -0.3627
15920TIP3    H169251   1.754   1.049   1.547  0.7998  2.0355 -2.8304
15920TIP3    H269252   1.670   0.979   1.443 -0.5969  0.0121 -0.4596
15921TIP3   OH269253   3.876   6.503  15.354  0.7212 -0.5602  0.2859
15921TIP3    H169254   3.861   6.552  15.273  1.4466 -1.2720 -0.3035
15921TIP3    H269255   3.966   6.470  15.345  0.3290 -1.8173  0.7500
15922TIP3   OH269256   6.237   3.216  16.432 -0.2872 -0.1279  0.0231
15922TIP3    H169257   6.321   3.262  16.435 -0.1125 -0.4789  0.7251
15922TIP3    H269258   6.239   3.168  16.349 -1.2358  2.5035 -1.6411
15923TIP3   OH269259   1.058   3.788   3.420 -0.4160  0.3702  0.6383
15923TIP3    H169260   0.998   3.802   3.347  0.4607  1.1340  0.0393
15923TIP3    H269261   1.100   3.704   3.402  0.3938  0.9275 -0.2039
15924TIP3   OH269262   1.733   4.470  12.644  0.3679 -0.0441  0.3691
15924TIP3    H169263   1.676   4.394  12.634 -0.6783  0.9177 -1.6639
15924TIP3    H269264   1.680   4.534  12.692  0.5669  0.0566  0.4556
15925TIP3   OH269265   1.217   5.613  14.530  0.4442 -0.0133  0.0428
15925TIP3    H169266   1.129   5.576  14.541  0.6492 -0.3918  0.4609
15925TIP3    H269267   1.262   5.550  14.473  0.1788  0.6367 -0.9205
15926TIP3   OH269268   0.602   0.612  11.187 -0.2275 -0.1700  0.4096
15926TIP3    H169269   0.553   0.593  11.267 -2.5540 -2.6871 -1.4294
15926TIP3    H269270   0.539   0.655  11.130  0.6240 -0.6724 -0.9610
15927TIP3   OH269271   5.420   6.077  16.123 -0.1861  0.4967 -0.2632
15927TIP3    H169272   5.437   5.983  16.129 -0.4387  0.2691 -2.4797
15927TIP3    H269273   5.355   6.094  16.191  0.9038 -0.6255  1.1289
15928TIP3   OH269274   2.648   5.556  12.237  0.3576 -0.3484 -0.8413
15928TIP3    H169275   2.661   5.646  12.268 -0.0364 -0.0976 -1.4008
15928TIP3    H269276   2.735   5.528  12.209  0.4185 -0.0121 -0.9973
15929TIP3   OH269277   2.984   2.484   5.092  0.0274 -0.6301 -0.8561
15929TIP3    H169278   3.051   2.488   5.024  0.1699 -1.9107 -0.8169
15929TIP3    H269279   2.964   2.391   5.101 -1.2780 -0.3281 -0.3870
15930TIP3   OH269280   6.802   1.936   3.625 -0.3284  0.3541 -0.6999
15930TIP3    H169281   6.713   1.968   3.639 -0.3782  0.3219 -0.9455
15930TIP3    H269282   6.802   1.847   3.660 -0.3852  0.3636 -0.6759
15931TIP3   OH269283   4.542   5.800   4.777 -0.0937  0.2243  0.7514
15931TIP3    H169284   4.527   5.747   4.699 -0.1696  1.3731 -0.0328
15931TIP3    H269285   4.464   5.784   4.832  0.0498 -0.7298  0.6927
15932TIP3   OH269286   3.860   0.687   4.670 -0.7041  0.0794  0.0193
15932TIP3    H169287   3.767   0.692   4.691 -0.4931 -1.6482  1.5719
15932TIP3    H269288   3.905   0.716   4.750  0.0884 -1.3952  0.1431
15933TIP3   OH269289   0.453   5.781   5.773 -0.5835  0.0266  0.0934
15933TIP3    H169290   0.510   5.840   5.724 -2.2499  0.9096 -0.8974
15933TIP3    H269291   0.412   5.726   5.706 -0.3192 -1.1281  0.8566
15934TIP3   OH269292   1.973   6.107   3.594  0.3201 -0.1072  0.1889
15934TIP3    H169293   1.914   6.119   3.520  2.0772 -0.0409 -1.2920
15934TIP3    H269294   2.024   6.029   3.573  1.6845  0.5917  0.6997
15935TIP3   OH269295   3.391   1.577   0.158  0.7390  0.2126 -0.2471
15935TIP3    H169296   3.348   1.593   0.074 -2.0623 -0.6734  0.8898
15935TIP3    H269297   3.359   1.647   0.215  4.2807  2.1194 -0.3108
15936TIP3   OH269298   0.429   0.300  14.848  0.4527 -0.5646  0.1207
15936TIP3    H169299   0.492   0.294  14.776  6.2054  0.1387  4.3048
15936TIP3    H269300   0.384   0.383  14.834  0.8959 -0.7378 -2.8566
15937TIP3   OH269301   4.347   6.678  10.780 -0.1455 -0.4024  0.2091
15937TIP3    H169302   4.256   6.683  10.749  0.3614  1.0629 -1.1518
15937TIP3    H269303   4.344   6.714  10.869 -1.0133 -1.1069  0.4779
15938TIP3   OH269304   6.123   6.606  11.169 -0.1323  0.2992  0.2348
15938TIP3    H169305   6.045   6.640  11.124  0.0823 -0.3155 -0.6267
15938TIP3    H269306   6.188   6.676  11.160 -0.3592  0.5254  0.3361
15939TIP3   OH269307   3.959   0.096  15.772 -0.8951 -0.3380  0.1111
15939TIP3    H169308   3.946   0.020  15.827 -2.0459  0.2995  0.7568
15939TIP3    H269309   3.871   0.129  15.755 -0.4541  0.5360 -0.5971
15940TIP3   OH269310   3.151   5.233   5.588 -0.0213 -0.3614  0.0419
15940TIP3    H169311   3.073   5.183   5.564 -0.0347  0.8503 -2.8690
15940TIP3    H269312   3.224   5.185   5.549  0.5749 -0.6598  1.4427
15941TIP3   OH269313   3.757   1.533  16.809 -0.1997 -0.0255  0.1815
15941TIP3    H169314   3.667   1.565  16.822  0.4532  1.5599  1.0877
15941TIP3    H269315   3.806   1.569  16.882  1.2228 -0.7512 -0.3781
15942TIP3   OH269316   4.947   3.565   1.494  0.4529 -0.2623 -0.0522
15942TIP3    H169317   4.900   3.536   1.415 -1.2273  0.7491  0.5215
15942TIP3    H269318   4.954   3.660   1.483 -0.3992 -0.0270  1.3181
15943TIP3   OH269319   3.979   6.284  13.150 -0.0291 -0.2166  0.0678
15943TIP3    H169320   3.932   6.337  13.214 -2.3664 -0.0913 -1.6306
15943TIP3    H269321   4.050   6.340  13.120 -0.0728  0.4316  1.1218
15944TIP3   OH269322   2.318   1.469   2.202 -0.1864 -0.2485  0.0047
15944TIP3    H169323   2.328   1.538   2.137 -1.2635 -0.9567 -0.9631
15944TIP3    H269324   2.271   1.399   2.156 -1.1249 -0.7240  1.5905
15945TIP3   OH269325   6.537   3.618   4.414  0.3636  0.4034 -0.6938
15945TIP3    H169326   6.614   3.560   4.408 -0.0727 -0.1838 -0.6574
15945TIP3    H269327   6.465   3.565   4.379 -0.2410  0.5707  0.2832
15946TIP3   OH269328   5.956   1.030  17.206 -0.0144 -0.4036  0.8138
15946TIP3    H169329   5.980   1.027  17.299 -0.0726  1.3011  0.9066
15946TIP3    H269330   6.024   1.084  17.166 -0.2731 -0.7098 -0.0527
15947TIP3   OH269331   4.066   0.665  11.860 -0.2015 -0.2854 -0.3916
15947TIP3    H169332   4.064   0.760  11.875 -1.1096 -0.1651 -1.1484
15947TIP3    H269333   4.132   0.653  11.792  0.7901 -0.3445  0.5622
15948TIP3   OH269334   3.155   3.292  14.538 -0.1252  0.1997  0.6932
15948TIP3    H169335   3.140   3.377  14.496 -2.9426  0.2539  1.5930
15948TIP3    H269336   3.098   3.232  14.490  1.0399 -0.9945  0.7501
15949TIP3   OH269337   3.943   6.158  16.226  0.1278 -0.0452 -0.2336
15949TIP3    H169338   3.975   6.177  16.137 -1.4474 -0.3929 -0.9019
15949TIP3    H269339   3.882   6.229  16.245  0.9134  0.3669  0.8548
15950TIP3   OH269340   1.275   4.331  16.672  0.9026 -0.6623  0.0390
15950TIP3    H169341   1.185   4.360  16.664  0.7512  0.0295  3.0021
15950TIP3    H269342   1.272   4.237  16.655 -0.3929 -0.6706  0.2177
15951TIP3   OH269343   4.655   3.056  16.049  0.4758  0.3212 -0.6351
15951TIP3    H169344   4.589   3.113  16.089 -0.7243 -1.3871 -0.0544
15951TIP3    H269345   4.738   3.095  16.073 -0.3029  1.9867 -0.5357
15952TIP3   OH269346   2.378   1.623  17.106 -0.4308  0.0427  0.4573
15952TIP3    H169347   2.386   1.548  17.164  1.9490  0.4505  0.7869
15952TIP3    H269348   2.441   1.606  17.036 -0.9827  1.0085 -0.3047
15953TIP3   OH269349   5.502   1.417   3.191 -0.1426 -0.0273  0.1647
15953TIP3    H169350   5.537   1.506   3.189 -1.1215  0.3818  0.4379
15953TIP3    H269351   5.579   1.361   3.201  0.5102  0.7649 -0.2654
15954TIP3   OH269352   2.281   4.749  16.260  0.1082  0.4654  0.1561
15954TIP3    H169353   2.272   4.714  16.171 -0.0459 -0.4764  0.5301
15954TIP3    H269354   2.236   4.686  16.316 -1.2004  1.8713  0.7493
15955TIP3   OH269355   3.882   0.838  11.288 -0.5031  0.0449  0.2116
15955TIP3    H169356   3.904   0.880  11.372  2.3425 -1.1919  0.1886
15955TIP3    H269357   3.924   0.893  11.222 -0.7627 -0.2623 -0.2141
15956TIP3   OH269358   3.142   5.855   4.610 -0.0878  0.0292  0.5098
15956TIP3    H169359   3.128   5.949   4.610  0.8295  0.1769  0.0547
15956TIP3    H269360   3.098   5.824   4.689 -0.7686  0.7707  0.4317
15957TIP3   OH269361   3.998   4.106   6.024 -0.1519  0.1029  0.2055
15957TIP3    H169362   3.911   4.067   6.030 -0.8716  1.6230  0.0141
15957TIP3    H269363   4.005   4.162   6.102 -0.3736  1.9435 -1.0460
15958TIP3   OH269364   5.646   1.940  13.274 -0.0075 -0.0777 -0.3048
15958TIP3    H169365   5.573   1.901  13.225  0.1334 -0.5672 -0.1236
15958TIP3    H269366   5.717   1.877  13.266  0.3116  0.2695 -0.2424
15959TIP3   OH269367   0.209   0.013   3.124 -0.1917  0.0450 -0.7194
15959TIP3    H169368   0.153   0.088   3.146 -0.6070 -0.2517 -0.7500
15959TIP3    H269369   0.244  -0.016   3.208  0.3174  0.5414 -0.7563
15960TIP3   OH269370   6.052   3.509   6.007  0.5117 -0.1472 -0.3997
15960TIP3    H169371   6.064   3.514   5.912  0.3774 -0.5875 -0.4419
15960TIP3    H269372   6.075   3.597   6.038  0.4100  0.0473 -0.8535
15961TIP3   OH269373   3.243   1.040  14.663 -0.0505  0.4823  0.2584
15961TIP3    H169374   3.197   0.973  14.712  0.7119  0.5443  1.0933
15961TIP3    H269375   3.217   1.123  14.703 -0.5812  0.6613 -0.4272
15962TIP3   OH269376   1.694   1.061  11.123 -0.4814 -0.2512 -0.0428
15962TIP3    H169377   1.625   1.101  11.071  1.2261  2.6068 -0.3088
15962TIP3    H269378   1.741   1.005  11.061 -1.8189 -1.3170 -0.1250
15963TIP3   OH269379   6.044   3.373  14.843  0.1580 -0.1050 -0.4063
15963TIP3    H169380   5.992   3.453  14.830  0.2805  0.7530  3.3563
15963TIP3    H269381   5.987   3.316  14.894  1.6415 -0.5526  0.8030
15964TIP3   OH269382   5.409   2.462   4.447  0.5428  0.0488  0.2310
15964TIP3    H169383   5.355   2.519   4.502  1.1138  0.0705  0.7833
15964TIP3    H269384   5.401   2.498   4.359  0.2029  0.4581  0.4275
15965TIP3   OH269385   3.753   0.526   5.179 -0.2002  0.0084  0.1335
15965TIP3    H169386   3.666   0.486   5.183 -0.8682  1.4141  0.1554
15965TIP3    H269387   3.747   0.590   5.108  0.7520  0.2893  0.2896
15966TIP3   OH269388   3.858   3.008   5.320  0.4815 -0.2590  0.4111
15966TIP3    H169389   3.891   3.089   5.281  1.3662 -0.0124  1.6172
15966TIP3    H269390   3.932   2.947   5.313 -0.0029 -0.8030 -0.0130
15967TIP3   OH269391   6.255   0.221   4.888 -0.4954 -0.5352  0.4757
15967TIP3    H169392   6.290   0.141   4.849  0.4443  0.5069 -0.9529
15967TIP3    H269393   6.160   0.210   4.886 -0.4924 -0.7170 -1.8775
15968TIP3   OH269394   4.251   4.496  15.941  0.4063 -0.4099 -0.2994
15968TIP3    H169395   4.171   4.549  15.941  1.5294  1.3792  0.4539
15968TIP3    H269396   4.307   4.537  15.875  1.2658 -0.7195  0.2173
15969TIP3   OH269397   6.167   3.878   4.583  0.1549  0.6767 -0.0521
15969TIP3    H169398   6.174   3.865   4.488  0.1814  2.9193 -0.4272
15969TIP3    H269399   6.256   3.863   4.615  0.1099 -0.2788 -0.3276
15970TIP3   OH269400   0.463   5.640  11.575 -0.0204  0.4641 -0.0627
15970TIP3    H169401   0.479   5.724  11.530 -0.4790 -0.0441 -1.2069
15970TIP3    H269402   0.371   5.621  11.559  0.3419 -0.8048 -0.7841
15971TIP3   OH269403   6.492   2.788   0.355  0.6271  0.0068  0.2061
15971TIP3    H169404   6.429   2.731   0.399 -0.3565  0.1162 -0.9811
15971TIP3    H269405   6.458   2.877   0.369 -0.3065 -0.0084 -1.5478
15972TIP3   OH269406   3.484   4.052   1.672 -0.2093  0.3072  0.8814
15972TIP3    H169407   3.398   4.031   1.709 -0.5691  1.4327  0.7071
15972TIP3    H269408   3.525   4.110   1.737 -0.7599  2.1240 -0.3419
15973TIP3   OH269409   5.004   2.967   5.088  0.0029  0.3132  0.0898
15973TIP3    H169410   5.069   2.899   5.070 -1.9980 -1.4326 -1.0864
15973TIP3    H269411   4.997   3.016   5.007 -1.0998 -0.4350 -0.2994
15974TIP3   OH269412   1.636   2.820  15.434 -0.2473  0.0254 -0.6420
15974TIP3    H169413   1.701   2.751  15.448 -0.2829  0.1997  0.5073
15974TIP3    H269414   1.657   2.856  15.348  1.8869  0.7834  0.1161
15975TIP3   OH269415   6.143   3.873  15.457  0.0173 -0.5306 -0.5592
15975TIP3    H169416   6.088   3.922  15.397  1.4330  0.5432 -1.0539
15975TIP3    H269417   6.231   3.877  15.418  0.9671  0.1001  1.4622
15976TIP3   OH269418   0.033   4.328  16.454  0.1357 -0.3014  0.0960
15976TIP3    H169419   0.110   4.346  16.399  0.7962 -0.7002  0.8574
15976TIP3    H269420  -0.040   4.370  16.408  1.0427  1.3712  0.0958
15977TIP3   OH269421   2.774   1.031  13.672  0.2217 -0.3002 -0.0906
15977TIP3    H169422   2.856   0.985  13.652  0.4398 -0.6146  1.4143
15977TIP3    H269423   2.709   0.961  13.684  0.2767 -0.1827  0.9971
15978TIP3   OH269424   3.041   2.757  13.106 -0.2746 -0.6094  0.1270
15978TIP3    H169425   2.969   2.716  13.153 -2.0051 -0.2417 -2.0571
15978TIP3    H269426   3.046   2.709  13.023  1.0361  0.3448 -0.3838
15979TIP3   OH269427   3.820   5.125   1.923  0.2569 -0.2484  0.3641
15979TIP3    H169428   3.793   5.039   1.891  2.4277 -0.5033 -0.9552
15979TIP3    H269429   3.899   5.107   1.975 -1.4231  0.5452  3.4269
15980TIP3   OH269430   2.740   5.456   3.544  0.0922 -0.2957 -0.2020
15980TIP3    H169431   2.797   5.458   3.467  1.6726 -2.3601  0.7959
15980TIP3    H269432   2.791   5.500   3.612  0.2311 -1.5507  0.5267
15981TIP3   OH269433   2.712   5.940   0.290 -0.3752 -0.6433  0.1955
15981TIP3    H169434   2.716   5.925   0.196 -3.9293  0.2578 -0.2190
15981TIP3    H269435   2.689   5.855   0.327 -0.1791 -0.7214  0.1421
15982TIP3   OH269436   0.660   2.799  16.656  0.1823 -0.3301 -0.6230
15982TIP3    H169437   0.583   2.767  16.609  0.5304  0.7943 -2.0315
15982TIP3    H269438   0.644   2.893  16.668  0.1051 -0.5731  1.5675
15983TIP3   OH269439   0.545   0.952   5.438  0.6152  0.2141  0.0755
15983TIP3    H169440   0.575   0.958   5.529 -0.0625 -1.2069  0.4204
15983TIP3    H269441   0.452   0.974   5.443  0.6180  0.3161 -0.3043
15984TIP3   OH269442   3.720   0.833  10.595 -0.0440  0.0555  0.5314
15984TIP3    H169443   3.642   0.879  10.627  0.7458  1.5581  0.4177
15984TIP3    H269444   3.793   0.880  10.635  0.8175 -1.4683  0.8181
15985TIP3   OH269445   5.403   4.154   4.235  0.1660  0.2089  0.1675
15985TIP3    H169446   5.358   4.101   4.301  1.7914 -1.3769  0.0731
15985TIP3    H269447   5.446   4.090   4.178  0.9200  1.6135 -0.9045
15986TIP3   OH269448   2.733   6.371   5.434  0.6855  0.0243 -0.4055
15986TIP3    H169449   2.678   6.380   5.512  0.6065  1.4531 -0.6029
15986TIP3    H269450   2.689   6.422   5.367  0.9633 -0.8747 -1.2849
15987TIP3   OH269451   6.283   2.672  13.049  0.3137  0.1718  0.4268
15987TIP3    H169452   6.331   2.652  12.969 -1.6507 -0.0476 -0.7428
15987TIP3    H269453   6.342   2.730  13.098  2.1973 -0.9202 -0.4289
15988TIP3   OH269454   2.407   0.061  16.801  0.0232  0.6139 -0.8824
15988TIP3    H169455   2.459   0.018  16.734  0.0416 -1.7949  0.5762
15988TIP3    H269456   2.464   0.129  16.836  0.7564  0.5153 -1.8607
15989TIP3   OH269457   3.433   0.368  14.551 -0.2189  0.0463  0.5368
15989TIP3    H169458   3.468   0.311  14.482  1.9076 -0.2530  1.7979
15989TIP3    H269459   3.462   0.455  14.526 -0.3372  0.0819  0.5230
15990TIP3   OH269460   3.932   3.815  13.185  0.2056 -0.4480 -0.0373
15990TIP3    H169461   3.894   3.856  13.263 -0.6365  0.3667 -0.8465
15990TIP3    H269462   4.010   3.769  13.217 -1.1602 -1.7162  1.5808
15991TIP3   OH269463   1.310   3.938  14.547  0.6674  0.1761  0.3481
15991TIP3    H169464   1.219   3.934  14.576  0.9935 -0.5101  1.3041
15991TIP3    H269465   1.305   3.938  14.451 -0.3181 -0.2740  0.3973
15992TIP3   OH269466   0.937   4.643  15.252 -0.6749  0.1607  0.2138
15992TIP3    H169467   0.963   4.729  15.219 -1.0005  0.6563  1.1886
15992TIP3    H269468   0.954   4.583  15.180 -0.7359  1.0928 -0.5999
15993TIP3   OH269469   0.630   4.401   3.446  0.3484 -0.3837  0.1601
15993TIP3    H169470   0.710   4.353   3.425  1.9070  2.4438 -0.9571
15993TIP3    H269471   0.645   4.437   3.533  0.6098  0.6775 -0.3082
15994TIP3   OH269472   0.913   1.226   2.151  0.5432  0.1499  0.3622
15994TIP3    H169473   0.959   1.212   2.068 -1.2323  0.8202 -0.7994
15994TIP3    H269474   0.907   1.321   2.159 -1.3087  0.1012  0.0429
15995TIP3   OH269475   4.466   1.887   2.292 -0.7238 -0.5408  0.1709
15995TIP3    H169476   4.407   1.828   2.246 -0.0432 -0.7219 -0.4830
15995TIP3    H269477   4.541   1.832   2.316 -0.8478 -0.3361  1.0687
15996TIP3   OH269478   3.599   5.887  17.234 -0.3405 -0.2049  0.6567
15996TIP3    H169479   3.622   5.923  17.148 -0.7571 -2.4997 -0.5010
15996TIP3    H269480   3.615   5.959  17.296 -0.2456  1.5924 -1.3436
15997TIP3   OH269481   5.057   1.430   3.904  0.4152  0.2206 -0.4558
15997TIP3    H169482   5.059   1.392   3.816 -1.9126 -0.8712 -0.1011
15997TIP3    H269483   5.003   1.370   3.955 -0.2584  2.0699  1.1225
15998TIP3   OH269484   2.996   4.305   0.595 -0.1266  0.3601 -0.1183
15998TIP3    H169485   2.981   4.259   0.678 -1.5449  0.2257 -0.4083
15998TIP3    H269486   3.089   4.296   0.579  0.2535  0.7119  1.6535
15999TIP3   OH269487   4.194   5.842  16.073 -0.1943 -0.1725 -0.1004
15999TIP3    H169488   4.141   5.864  16.150 -0.8441 -3.4707  0.5142
15999TIP3    H269489   4.282   5.831  16.107 -0.1405  0.0326 -0.1685
16000TIP3   OH269490   4.734   3.269   2.728 -0.3221  0.0641  0.3936
16000TIP3    H169491   4.808   3.270   2.790 -0.3539 -0.0143  0.4327
16000TIP3    H269492   4.708   3.177   2.723 -1.1313  0.2297  1.2301
16001TIP3   OH269493   5.022   5.875  10.784  0.1887 -0.5922 -0.4297
16001TIP3    H169494   5.009   5.797  10.730 -0.9515 -1.7606  1.4047
16001TIP3    H269495   5.002   5.846  10.873  1.0599  1.4778  0.5128
16002TIP3   OH269496   0.201   3.596  16.400  0.2275 -0.8249 -0.1163
16002TIP3    H169497   0.105   3.593  16.398  0.2393 -1.4011 -0.0713
16002TIP3    H269498   0.227   3.568  16.312  0.3539 -0.6093 -0.1470
16003TIP3   OH269499   0.515   5.552  17.129 -0.1811 -0.5344 -0.0585
16003TIP3    H169500   0.522   5.490  17.056  0.9091  1.6874 -2.0159
16003TIP3    H269501   0.602   5.592  17.134  0.1587 -1.4083  3.3466
16004TIP3   OH269502   6.269   4.073   2.779  0.2610 -0.5113  0.3216
16004TIP3    H169503   6.351   4.123   2.782 -0.5709  1.1091 -1.3570
16004TIP3    H269504   6.280   4.004   2.844  1.8849  1.2941  2.1192
16005TIP3   OH269505   5.970   3.183   3.713  0.3445 -0.2044  0.0042
16005TIP3    H169506   5.917   3.223   3.644 -0.2568  0.5071  0.8529
16005TIP3    H269507   5.960   3.242   3.788  0.2942 -1.4006  0.9589
16006TIP3   OH269508   1.824   6.588   5.502  0.3608  0.2260 -0.4134
16006TIP3    H169509   1.890   6.574   5.569 -0.0766 -2.1716 -0.3838
16006TIP3    H269510   1.741   6.587   5.550  0.1984  1.9451 -0.6073
16007TIP3   OH269511   5.408   2.261   3.850  0.1052 -0.4640  0.5322
16007TIP3    H169512   5.482   2.214   3.811  0.9729 -0.1261  1.7148
16007TIP3    H269513   5.338   2.195   3.854  0.6285 -1.0553  0.2301
16008TIP3   OH269514   4.492   4.509   5.344  0.5932  0.4218 -0.0108
16008TIP3    H169515   4.465   4.593   5.380  1.0357 -0.2045  1.8755
16008TIP3    H269516   4.588   4.514   5.341  0.8062 -0.7879  2.3075
16009TIP3   OH269517   4.107   3.276  15.683 -0.0158 -0.2608 -0.1390
16009TIP3    H169518   4.148   3.348  15.634 -1.2009  0.5556  0.0222
16009TIP3    H269519   4.142   3.285  15.771  1.2568 -1.0369 -0.5483
16010TIP3   OH269520   1.917   0.821  14.127 -0.6481  0.8389 -0.4233
16010TIP3    H169521   1.871   0.761  14.187  1.6666 -1.7053 -0.9833
16010TIP3    H269522   1.957   0.885  14.185  2.2088 -2.0137  1.0997
16011TIP3   OH269523   5.956   6.158  12.298 -0.3180 -0.2451  0.5219
16011TIP3    H169524   5.883   6.164  12.237 -1.8962 -1.2020  2.2517
16011TIP3    H269525   6.023   6.109  12.250 -1.3342 -0.5826 -0.5975
16012TIP3   OH269526   6.150   1.723  14.984  0.0515 -0.1122  0.1153
16012TIP3    H169527   6.176   1.643  14.937  2.5247  0.7494 -0.1675
16012TIP3    H269528   6.231   1.774  14.988 -1.1522  1.7765  1.5072
16013TIP3   OH269529   5.309   2.659   4.156  0.5201 -0.4750  0.2943
16013TIP3    H169530   5.308   2.579   4.104 -2.1110  1.2345 -2.6334
16013TIP3    H269531   5.244   2.644   4.225 -0.8074 -0.5256 -0.9328
16014TIP3   OH269532   2.163   0.716  17.196  0.3309  0.3395  0.1036
16014TIP3    H169533   2.137   0.795  17.147  1.7977  1.3059  0.8266
16014TIP3    H269534   2.150   0.739  17.288 -0.4914 -0.7533  0.2789
16015TIP3   OH269535   1.268   4.882  14.966  0.5661 -0.7830 -0.7253
16015TIP3    H169536   1.327   4.938  14.915  1.1185  0.3607  1.0511
16015TIP3    H269537   1.215   4.944  15.017 -2.0363 -1.7959 -2.0578
16016TIP3   OH269538   5.646   0.759   3.237 -0.4058  0.0502  0.2108
16016TIP3    H169539   5.573   0.795   3.186 -0.7783 -1.0943 -0.1107
16016TIP3    H269540   5.604   0.717   3.312 -0.0079  0.1489  0.4882
16017TIP3   OH269541   3.813   6.740   5.665 -0.2083 -0.8696 -0.2435
16017TIP3    H169542   3.793   6.811   5.727  2.7268 -0.8867  0.8905
16017TIP3    H269543   3.869   6.781   5.599 -1.8521 -1.2736 -1.9734
16018TIP3   OH269544   4.881   2.308  13.636  0.5331 -0.8489 -0.0794
16018TIP3    H169545   4.894   2.275  13.547  3.0324 -0.1585 -0.0463
16018TIP3    H269546   4.805   2.260  13.669 -0.5361 -1.0511 -2.5919
16019TIP3   OH269547   0.150   5.513   0.169  0.0463  0.0683 -0.1746
16019TIP3    H169548   0.200   5.437   0.138  0.4010 -0.4090  1.4907
16019TIP3    H269549   0.206   5.554   0.234 -0.8443  0.8091  0.1404
16020TIP3   OH269550   1.833   3.125   2.235  0.2442 -0.2075  0.2442
16020TIP3    H169551   1.826   3.213   2.197  1.9030  0.0374  0.4415
16020TIP3    H269552   1.772   3.126   2.309 -0.7300  0.3180 -0.5293
16021TIP3   OH269553   3.989   2.625  15.586  0.4937 -0.4328 -0.4538
16021TIP3    H169554   3.962   2.596  15.499  1.0647 -1.0249 -0.4388
16021TIP3    H269555   3.908   2.631  15.636  0.0838  0.4916 -1.1872
16022TIP3   OH269556   0.416   0.052   2.173 -0.1009  0.2351 -0.1946
16022TIP3    H169557   0.360   0.037   2.248  1.2037 -0.2369  0.7196
16022TIP3    H269558   0.397   0.142   2.146  1.3821  1.4598  2.4745
16023TIP3   OH269559   5.211   3.888  13.901 -0.9678 -0.2019 -0.1652
16023TIP3    H169560   5.141   3.829  13.874 -0.2982 -2.1519  2.0390
16023TIP3    H269561   5.264   3.836  13.961  1.6844  1.5839 -0.7847
16024TIP3   OH269562   1.823   0.427  16.939 -0.2656 -0.1406  0.1453
16024TIP3    H169563   1.746   0.449  16.887 -1.4341  1.1781  2.3005
16024TIP3    H269564   1.818   0.484  17.015  0.7028 -2.7582  2.3399
16025TIP3   OH269565   0.376   1.956   5.783  0.3311  0.1228 -0.2051
16025TIP3    H169566   0.417   2.001   5.857  1.5277 -1.6682  0.2858
16025TIP3    H269567   0.418   1.870   5.781 -2.9586 -1.6721 -0.0273
16026TIP3   OH269568   2.921   3.172  14.532 -0.0227  0.3450  0.3770
16026TIP3    H169569   2.840   3.122  14.546  0.8723 -0.7393  1.8257
16026TIP3    H269570   2.890   3.260  14.513 -1.6067 -0.4138 -0.9297
16027TIP3   OH269571   6.157   3.494   1.714  0.7673  0.1557 -0.1144
16027TIP3    H169572   6.235   3.449   1.745  0.4758 -0.0182  0.3862
16027TIP3    H269573   6.090   3.473   1.780  0.7316  1.6850  0.3757
16028TIP3   OH269574   5.259   0.064  11.670  0.5392  0.0843  0.1541
16028TIP3    H169575   5.328   0.020  11.720  0.4702  0.3877  0.5291
16028TIP3    H269576   5.177   0.030  11.707  0.4823 -0.3403 -0.3496
16029TIP3   OH269577   1.090   2.984  12.533 -0.4977 -0.3531  0.2661
16029TIP3    H169578   1.034   2.979  12.456 -0.1713  2.3304 -0.2602
16029TIP3    H269579   1.179   2.981  12.498 -0.3378 -0.6391  0.6938
16030TIP3   OH269580   2.325   5.972  16.302 -0.2867  0.7367 -0.1491
16030TIP3    H169581   2.359   6.058  16.327 -0.9696  0.5096  1.7365
16030TIP3    H269582   2.384   5.942  16.232 -0.6445  3.1388 -1.6037
16031TIP3   OH269583   4.924   1.798   3.388 -0.0480  0.6724  0.5234
16031TIP3    H169584   4.963   1.711   3.401 -0.1832  0.6136  0.5324
16031TIP3    H269585   4.857   1.805   3.455 -1.8954 -0.2957 -1.1430
16032TIP3   OH269586   2.419   2.795   4.868 -0.3734  0.2054  0.8046
16032TIP3    H169587   2.429   2.881   4.827  0.9897  0.4073  1.5158
16032TIP3    H269588   2.474   2.799   4.946  0.1727 -1.4924  0.5536
16033TIP3   OH269589   3.282   6.235  12.253 -0.5967 -0.9946 -0.6885
16033TIP3    H169590   3.198   6.232  12.207 -0.5235 -1.0799 -0.8175
16033TIP3    H269591   3.340   6.282  12.192 -0.7722 -0.1728 -0.2383
16034TIP3   OH269592   5.643   3.994   2.742  0.6005  0.5844 -0.4033
16034TIP3    H169593   5.722   4.018   2.694  1.3189  2.7147  1.6608
16034TIP3    H269594   5.576   4.053   2.709  0.5401  0.5914 -0.2664
16035TIP3   OH269595   3.829   5.868   2.928 -0.2340 -0.3971 -0.1649
16035TIP3    H169596   3.763   5.800   2.917 -1.2101  0.5802 -0.5915
16035TIP3    H269597   3.803   5.915   3.007 -0.7562  0.7265 -0.9754
16036TIP3   OH269598   2.903   0.147  14.994  0.4405 -0.6081  0.2249
16036TIP3    H169599   2.822   0.098  14.986 -0.3518  0.3680  1.7549
16036TIP3    H269600   2.947   0.136  14.910 -2.0761  0.2704 -1.2983
16037TIP3   OH269601   4.757   0.652  10.702 -0.6394  0.4750 -0.7793
16037TIP3    H169602   4.756   0.701  10.620  2.4530  2.9224  0.4124
16037TIP3    H269603   4.739   0.717  10.770  0.2334 -0.7139  0.6809
16038TIP3   OH269604   2.097   4.389   5.396 -0.6947  0.0060 -0.1856
16038TIP3    H169605   2.096   4.312   5.339 -1.3912 -0.7561  0.8323
16038TIP3    H269606   2.186   4.390   5.433 -0.7351 -0.4118 -0.0705
16039TIP3   OH269607   6.020   0.532  15.273 -0.0651 -0.2534  0.4157
16039TIP3    H169608   5.937   0.503  15.311  0.2006 -0.1639  1.0853
16039TIP3    H269609   6.080   0.459  15.289  0.2358  0.0765  0.8315
16040TIP3   OH269610   0.055   4.536  11.374  0.1693 -0.3640  0.5638
16040TIP3    H169611  -0.020   4.593  11.357  0.8467  0.2464 -0.4703
16040TIP3    H269612   0.092   4.518  11.287  0.2047 -2.0806  0.8938
16041TIP3   OH269613   3.526   4.552  14.932  0.3361  0.0094 -0.4884
16041TIP3    H169614   3.521   4.613  15.005 -1.5662  0.1300 -0.6773
16041TIP3    H269615   3.585   4.594  14.869  0.2557  0.9195  0.0333
16042TIP3   OH269616   4.619   0.689   4.171  0.0624 -0.1250 -0.5214
16042TIP3    H169617   4.627   0.779   4.138 -0.8605 -0.1478 -0.8501
16042TIP3    H269618   4.665   0.690   4.255  2.6507 -0.1152 -1.8291
16043TIP3   OH269619   1.436   1.689  10.887 -0.9001 -0.8393  0.2515
16043TIP3    H169620   1.507   1.696  10.951  0.0782 -0.8502 -0.7959
16043TIP3    H269621   1.359   1.721  10.933  0.1534  0.9647  0.8546
16044TIP3   OH269622   2.641   1.025   1.207  0.2900  0.1683  0.2353
16044TIP3    H169623   2.722   0.975   1.197  0.1459 -0.2228  1.0122
16044TIP3    H269624   2.575   0.972   1.162  0.0465 -0.5881  1.4420
16045TIP3   OH269625   0.827   0.224   4.241 -0.6109 -0.2033  0.6814
16045TIP3    H169626   0.733   0.240   4.238 -0.5400  1.0333  2.8772
16045TIP3    H269627   0.834   0.128   4.245 -1.7400 -0.3340 -0.0410
16046TIP3   OH269628   3.707   6.577  11.940 -0.2334  0.1379 -0.1329
16046TIP3    H169629   3.693   6.498  11.888  0.0764  1.3938 -2.2352
16046TIP3    H269630   3.789   6.561  11.987 -0.4904 -1.0192 -0.0573
16047TIP3   OH269631   2.929   2.187  13.136  0.4143  0.2585 -0.1220
16047TIP3    H169632   2.848   2.136  13.132 -0.0888  1.0497 -0.0702
16047TIP3    H269633   2.901   2.276  13.155  1.2426  0.7079 -0.9443
16048TIP3   OH269634   5.112   5.673   1.847  0.0354 -0.2237  0.4195
16048TIP3    H169635   5.048   5.640   1.911 -1.0267 -1.4972 -1.2053
16048TIP3    H269636   5.063   5.737   1.796  0.9244  0.9015  0.9163
16049TIP3   OH269637   6.475   5.538  16.494 -0.2417 -0.2023  0.1807
16049TIP3    H169638   6.477   5.632  16.513  0.4346 -0.3372  0.8686
16049TIP3    H269639   6.480   5.532  16.399 -0.8833  0.4718  0.0987
16050TIP3   OH269640   6.801   5.135   4.266 -0.3414 -0.6775  0.2206
16050TIP3    H169641   6.772   5.079   4.337  0.7585 -0.7468  0.6239
16050TIP3    H269642   6.799   5.079   4.188 -2.1631 -0.4319  0.0372
16051TIP3   OH269643   2.768   4.898   1.446  0.4596  0.0043  0.6280
16051TIP3    H169644   2.859   4.907   1.475  0.9933 -0.9601 -0.6340
16051TIP3    H269645   2.754   4.973   1.389 -0.0114  0.9240  1.9246
16052TIP3   OH269646   4.294   4.463   0.154  0.6154  0.2599  0.3015
16052TIP3    H169647   4.274   4.518   0.077  1.7045 -1.0638 -0.9726
16052TIP3    H269648   4.294   4.374   0.120 -1.6694 -0.6773  2.4357
16053TIP3   OH269649   2.365   4.795  12.048 -0.2972 -0.3049 -0.4334
16053TIP3    H169650   2.355   4.829  11.959  0.7241 -2.3830 -1.4062
16053TIP3    H269651   2.442   4.841  12.083 -1.3687  1.3413 -0.1708
16054TIP3   OH269652   0.390   6.750   3.754  0.4221  0.4701 -0.0756
16054TIP3    H169653   0.326   6.712   3.694  1.1455 -1.1581  0.1334
16054TIP3    H269654   0.441   6.675   3.785  0.5692  1.3526  1.9703
16055TIP3   OH269655   6.150   3.300  17.056 -0.4302 -0.0603  0.2254
16055TIP3    H169656   6.069   3.315  17.007 -0.6475 -1.8588 -0.0522
16055TIP3    H269657   6.170   3.208  17.040 -0.0369 -0.5074  2.8173
16056TIP3   OH269658   3.014   5.660  16.718  0.6385 -0.0214 -0.3904
16056TIP3    H169659   2.930   5.694  16.748  1.0757  0.6748  0.0733
16056TIP3    H269660   2.999   5.566  16.705 -0.2084  0.1043 -0.3302
16057TIP3   OH269661   5.664   4.264  10.307  0.0540  0.0378 -0.0749
16057TIP3    H169662   5.715   4.183  10.304  0.1662  0.0250  1.6126
16057TIP3    H269663   5.574   4.235  10.322  0.3001  0.2380  2.0849
16058TIP3   OH269664   5.288   3.249  11.002  0.5648 -0.4174  0.1738
16058TIP3    H169665   5.345   3.312  11.047  0.9360 -2.4166  2.7241
16058TIP3    H269666   5.321   3.246  10.912  2.0225  1.2694  0.6124
16059TIP3   OH269667   1.656   2.923  12.342  0.6214 -0.1207 -0.2637
16059TIP3    H169668   1.630   2.895  12.254 -2.0612 -1.6059  0.8765
16059TIP3    H269669   1.700   3.007  12.328 -0.8724  0.3394 -2.9161
16060TIP3   OH269670   0.971   6.068   2.401 -0.5727  0.0683  0.0706
16060TIP3    H169671   1.042   6.122   2.435 -1.1725  1.2547 -0.4938
16060TIP3    H269672   0.997   6.049   2.311 -0.8628  0.3179 -0.0672
16061TIP3   OH269673   4.094   6.165   2.542  0.0720 -0.0420  0.1318
16061TIP3    H169674   4.186   6.171   2.567 -0.0296 -0.6834  0.7033
16061TIP3    H269675   4.058   6.098   2.600 -0.6039 -0.2725 -0.5335
16062TIP3   OH269676   2.202   3.155   2.754 -0.4927 -0.7864 -0.0923
16062TIP3    H169677   2.197   3.078   2.811  1.8632 -1.1316 -0.2696
16062TIP3    H269678   2.126   3.147   2.696 -0.3040 -2.9917 -0.1127
16063TIP3   OH269679   2.254   2.098  15.153 -0.0678 -0.1570 -0.3937
16063TIP3    H169680   2.190   2.059  15.093 -0.0634 -0.3215 -0.2917
16063TIP3    H269681   2.337   2.093  15.107 -0.5109  2.4781 -1.6862
16064TIP3   OH269682   3.059   4.456  14.493 -0.2977 -0.5090 -0.0624
16064TIP3    H169683   3.101   4.370  14.499  0.5836 -0.0030  1.4803
16064TIP3    H269684   2.970   4.442  14.525 -1.0268 -1.3561 -2.2906
16065TIP3   OH269685   2.240   3.363  10.795  0.5101  0.2992  0.3347
16065TIP3    H169686   2.283   3.278  10.803 -1.4706 -0.8105 -0.0166
16065TIP3    H269687   2.305   3.427  10.825  2.0389 -1.3294  0.6248
16066TIP3   OH269688   3.837   3.618   5.592  0.5562  0.2211 -0.0798
16066TIP3    H169689   3.873   3.688   5.539  1.6620  1.5441  2.2614
16066TIP3    H269690   3.911   3.558   5.606  1.0404  1.2059  1.9615
16067TIP3   OH269691   1.683   4.575  11.812  0.7281 -0.8353  0.2631
16067TIP3    H169692   1.754   4.517  11.839 -0.4944 -2.9121 -0.7519
16067TIP3    H269693   1.604   4.531  11.842 -0.2532  0.4329 -0.3785
16068TIP3   OH269694   6.357   1.420  13.797  0.2847 -0.5240  0.3627
16068TIP3    H169695   6.343   1.488  13.731 -1.0983  0.4933  1.6719
16068TIP3    H269696   6.272   1.376  13.805  0.1887 -0.0643  2.0771
16069TIP3   OH269697   0.817   6.587  11.494 -0.3566  0.2856 -0.0949
16069TIP3    H169698   0.909   6.609  11.481 -0.1683 -0.7932 -0.6838
16069TIP3    H269699   0.769   6.662  11.458  0.2816  0.7164 -0.0659
16070TIP3   OH269700   3.589   0.672  11.560  0.0096 -0.4719  0.3428
16070TIP3    H169701   3.518   0.672  11.496  0.3440  4.2539 -0.3312
16070TIP3    H269702   3.546   0.665  11.645 -1.0502  0.0902 -0.1343
16071TIP3   OH269703   4.948   4.457  13.302 -0.0807 -0.0723 -0.3767
16071TIP3    H169704   4.921   4.521  13.368 -0.0247 -0.2871 -0.1463
16071TIP3    H269705   4.912   4.374  13.334 -1.8589  0.1428 -1.6502
16072TIP3   OH269706   4.937   4.672  12.719  0.0309 -0.1555 -0.0293
16072TIP3    H169707   4.915   4.736  12.652 -0.5223 -1.6081 -1.2943
16072TIP3    H269708   5.033   4.670  12.720  0.0483 -0.5187 -1.1961
16073TIP3   OH269709   5.265   6.105  14.342  0.4829  0.3779  0.1246
16073TIP3    H169710   5.175   6.124  14.369 -0.1252 -1.1652 -0.6865
16073TIP3    H269711   5.310   6.085  14.424 -0.1753  0.1702  0.4435
16074TIP3   OH269712   6.031   0.552  11.974 -0.0643 -0.1966 -0.0918
16074TIP3    H169713   5.986   0.624  11.929  0.7458  0.6389  0.3745
16074TIP3    H269714   6.043   0.485  11.906 -4.4160 -1.7228  0.3945
16075TIP3   OH269715   1.617   4.727  14.902  0.4911 -0.3444  0.0900
16075TIP3    H169716   1.543   4.728  14.962  0.8276 -0.4844  0.5155
16075TIP3    H269717   1.642   4.635  14.896  0.8442 -0.2617  0.2245
16076TIP3   OH269718   4.479   1.276  11.582  0.1914 -0.1174 -0.2551
16076TIP3    H169719   4.534   1.200  11.565  0.2192 -0.2737  0.4786
16076TIP3    H269720   4.398   1.259  11.533  0.2746 -0.5278 -0.2536
16077TIP3   OH269721   0.042   1.564  10.984 -0.3635  0.0066  0.6870
16077TIP3    H169722  -0.032   1.620  11.009 -2.1944 -1.9486 -0.0075
16077TIP3    H269723   0.005   1.505  10.919  1.4750 -1.9877  1.3621
16078TIP3   OH269724   0.781   3.884   3.959  0.1362 -0.1232 -0.1333
16078TIP3    H169725   0.857   3.916   3.910  0.2074 -0.8672 -0.5229
16078TIP3    H269726   0.808   3.798   3.991 -0.1760  0.0448  0.6040
16079TIP3   OH269727   5.523   3.237   3.378  0.2314  0.2422 -0.3024
16079TIP3    H169728   5.542   3.329   3.392 -0.5673  0.1316  2.0190
16079TIP3    H269729   5.427   3.232   3.379  0.2678 -0.6398 -0.0837
16080TIP3   OH269730   5.876   2.693   4.119 -0.5630  0.2437 -0.1842
16080TIP3    H169731   5.950   2.671   4.176 -0.4248 -1.7194 -1.0311
16080TIP3    H269732   5.803   2.705   4.179  0.4933  2.8121  0.7252
16081TIP3   OH269733   2.522   0.505  15.644  0.1213 -0.3641 -0.0445
16081TIP3    H169734   2.482   0.592  15.643 -1.2034 -0.9435  0.5148
16081TIP3    H269735   2.458   0.450  15.689  1.1524 -1.5332  0.0354
16082TIP3   OH269736   1.200   0.896  10.554 -0.1772 -0.4972  0.2390
16082TIP3    H169737   1.268   0.829  10.546  0.1354 -0.3524  1.4683
16082TIP3    H269738   1.120   0.852  10.524  0.1279 -1.2239  0.4600
16083TIP3   OH269739   6.570   6.364  13.223  0.5554  0.4715  0.8377
16083TIP3    H169740   6.523   6.298  13.274 -2.0282  1.8334  0.4068
16083TIP3    H269741   6.601   6.316  13.146  0.8226 -0.7139  1.6545
16084TIP3   OH269742   3.641   1.677   4.929 -0.1459  0.2844  0.1491
16084TIP3    H169743   3.549   1.662   4.909  0.2022 -0.0848 -1.3563
16084TIP3    H269744   3.646   1.769   4.954 -0.8199  0.4934 -0.4475
16085TIP3   OH269745   6.730   0.206  17.173  0.7431 -0.0198 -0.2008
16085TIP3    H169746   6.747   0.175  17.084  0.2599  2.6473 -1.3321
16085TIP3    H269747   6.634   0.202  17.181  0.6119  1.6011 -0.6095
16086TIP3   OH269748   4.792   2.732  16.346  0.3172  0.2864  0.3733
16086TIP3    H169749   4.872   2.736  16.398  0.2165  1.6962  0.4589
16086TIP3    H269750   4.823   2.734  16.255  0.4301 -0.7459  0.3780
16087TIP3   OH269751   6.277   5.387   1.097  0.5308  0.2716  0.6056
16087TIP3    H169752   6.349   5.341   1.055 -1.2745 -0.7531 -1.5666
16087TIP3    H269753   6.277   5.474   1.057  0.4549  0.2187  0.4917
16088TIP3   OH269754   4.083   4.126   2.932 -0.1414 -0.2719  0.2799
16088TIP3    H169755   4.087   4.200   2.872  2.9098  0.5253  1.3243
16088TIP3    H269756   4.164   4.077   2.916 -1.1201 -2.2722  1.0522
16089TIP3   OH269757   2.571   0.872   3.119  0.3809 -0.3976 -0.3407
16089TIP3    H169758   2.598   0.827   3.038 -1.9834 -0.6343 -1.0751
16089TIP3    H269759   2.580   0.965   3.099 -2.1548 -0.3587 -1.7440
16090TIP3   OH269760   0.579   2.561   3.397 -0.4236  0.3572 -0.4006
16090TIP3    H169761   0.502   2.612   3.421 -0.7226 -0.3842  0.2727
16090TIP3    H269762   0.594   2.503   3.472 -0.6946 -1.2362 -1.5225
16091TIP3   OH269763   3.580   6.101  12.533 -0.5832 -0.0969 -0.0183
16091TIP3    H169764   3.575   6.023  12.589 -0.1498  0.9815  1.6044
16091TIP3    H269765   3.635   6.163  12.582  0.7678  0.5244 -2.1733
16092TIP3   OH269766   2.642   3.297  16.705 -0.1798 -0.0254  0.3120
16092TIP3    H169767   2.695   3.321  16.781 -0.8019 -0.2638  0.8374
16092TIP3    H269768   2.565   3.253  16.743  0.1193 -1.3256 -0.5239
16093TIP3   OH269769   0.768   2.907   5.136 -0.4423  0.6443 -0.1427
16093TIP3    H169770   0.697   2.972   5.137 -1.4405 -0.4177  1.0233
16093TIP3    H269771   0.840   2.951   5.180 -0.0899  1.9912 -1.9476
16094TIP3   OH269772   1.578   2.126  15.687 -0.4622 -0.0262 -0.3449
16094TIP3    H169773   1.619   2.053  15.640 -0.5131 -1.5678  1.8658
16094TIP3    H269774   1.652   2.183  15.711 -0.1953 -0.2916 -0.5300
16095TIP3   OH269775   4.074   4.260   4.628  0.3956 -0.4198  0.2775
16095TIP3    H169776   4.153   4.297   4.668  0.4336  1.6696 -1.5214
16095TIP3    H269777   4.106   4.204   4.558  0.4272  2.0802 -1.8676
16096TIP3   OH269778   3.765   2.388  16.281  0.3267  0.7674 -0.0931
16096TIP3    H169779   3.684   2.439  16.279  0.1742  0.5320  0.0111
16096TIP3    H269780   3.780   2.369  16.374  0.4658  0.7540 -0.1172
16097TIP3   OH269781   3.930   5.642   3.172  0.0786 -0.4307  0.2119
16097TIP3    H169782   3.847   5.624   3.217  0.6154  0.7121  1.7628
16097TIP3    H269783   3.944   5.736   3.183  1.3363 -0.5106 -0.4498
16098TIP3   OH269784   2.928   3.020   3.769  0.1181 -0.1788 -0.2647
16098TIP3    H169785   2.991   2.955   3.739  0.1417  0.5373 -1.8623
16098TIP3    H269786   2.913   3.076   3.693 -1.4496  0.4632  0.4738
16099TIP3   OH269787   2.154   1.458   4.143 -0.0347  0.0318 -0.2828
16099TIP3    H169788   2.249   1.462   4.146 -0.0532 -0.3008  1.2478
16099TIP3    H269789   2.135   1.404   4.066  1.0351 -0.6343 -0.1042
16100TIP3   OH269790   1.447   3.833   6.462 -0.2074 -0.2455 -0.0710
16100TIP3    H169791   1.359   3.796   6.471  0.6708 -3.3194 -2.3770
16100TIP3    H269792   1.497   3.793   6.532 -0.2467  0.1069  0.1587
16101TIP3   OH269793   6.203   3.645  10.948 -0.0372 -0.2913 -0.2461
16101TIP3    H169794   6.163   3.667  10.863  0.5147 -0.8807 -0.6706
16101TIP3    H269795   6.278   3.705  10.955 -1.1778  1.0901  0.7334
16102TIP3   OH269796   2.060   1.698   1.566 -0.1461  1.1878  0.0571
16102TIP3    H169797   2.135   1.701   1.508  0.7127  1.5069  1.1525
16102TIP3    H269798   2.075   1.769   1.628 -0.3485  0.0361  1.4772
16103TIP3   OH269799   4.151   4.428   0.899 -0.5123  0.1391 -0.0898
16103TIP3    H169800   4.143   4.343   0.856  0.8814 -0.4926  0.8152
16103TIP3    H269801   4.227   4.469   0.859  0.6911 -0.3755  1.5496
16104TIP3   OH269802   4.719   5.148   0.105 -0.3206  0.8046  0.4332
16104TIP3    H169803   4.780   5.095   0.054  0.5345  1.4776  0.7251
16104TIP3    H269804   4.654   5.177   0.042 -0.4947 -0.1277  0.1664
16105TIP3   OH269805   1.150   5.713   4.403  0.5316 -0.2541 -0.3720
16105TIP3    H169806   1.215   5.643   4.398 -1.3895 -2.1749  0.0072
16105TIP3    H269807   1.131   5.720   4.497  0.8848  0.9863 -0.3825
16106TIP3   OH269808   3.663   2.585  15.533  0.4717 -0.5168  0.3877
16106TIP3    H169809   3.608   2.658  15.560  2.1976  0.4302  1.5416
16106TIP3    H269810   3.686   2.605  15.442 -0.2079 -0.3905  0.2357
16107TIP3   OH269811   2.680   6.022   2.922  0.0154 -0.1212  0.1666
16107TIP3    H169812   2.725   5.942   2.894  0.4751 -0.4468  1.7327
16107TIP3    H269813   2.659   6.067   2.841  2.7984 -0.1663 -0.6757
16108TIP3   OH269814   4.785   6.379  14.802  0.6252  0.0437 -0.0957
16108TIP3    H169815   4.858   6.425  14.760 -1.8112  2.3802 -2.0692
16108TIP3    H269816   4.715   6.380  14.737 -1.4593 -1.4897  1.9528
16109TIP3   OH269817   2.147   0.376  13.891  0.1965  0.2467 -0.0512
16109TIP3    H169818   2.106   0.459  13.915  3.0408  2.2463 -1.5221
16109TIP3    H269819   2.240   0.395  13.887  1.0207 -3.1367 -0.2400
16110TIP3   OH269820   3.453   6.119   0.559  0.1894  0.5220 -0.3831
16110TIP3    H169821   3.448   6.031   0.521  1.0181  0.8152 -1.2075
16110TIP3    H269822   3.469   6.103   0.653 -1.1905 -0.2026 -0.2391
16111TIP3   OH269823   4.942   4.304   0.522  0.0364  0.4633  0.0829
16111TIP3    H169824   4.890   4.280   0.599  1.8388 -0.0421  1.1993
16111TIP3    H269825   4.989   4.223   0.499 -0.4922  0.5959 -1.5874
16112TIP3   OH269826   3.990   3.734  14.818  0.0861  0.1271 -0.0206
16112TIP3    H169827   4.063   3.733  14.879 -1.0648 -0.0392  1.4243
16112TIP3    H269828   3.944   3.816  14.836 -1.2565 -0.7169  0.6334
16113TIP3   OH269829   5.544   1.820  15.089  0.0025 -0.3694 -0.8045
16113TIP3    H169830   5.593   1.798  15.168  0.0031  0.8991 -0.4306
16113TIP3    H269831   5.594   1.781  15.018  1.7594  1.1585 -0.4609
16114TIP3   OH269832   3.408   6.768  14.711 -0.3216  0.6426 -0.5439
16114TIP3    H169833   3.376   6.702  14.649  0.3683 -0.6432  0.4042
16114TIP3    H269834   3.362   6.848  14.687 -0.4547  0.0648 -2.3732
16115TIP3   OH269835   6.602   3.017   1.540 -0.2136  0.0102  0.8084
16115TIP3    H169836   6.693   2.996   1.560 -0.6727 -0.8229  2.1111
16115TIP3    H269837   6.602   3.112   1.526  0.6590  0.1826  1.9193
16116TIP3   OH269838   3.354   5.537  17.045  0.3752 -0.0230  0.3701
16116TIP3    H169839   3.311   5.623  17.043  1.5684  0.6072  1.1372
16116TIP3    H269840   3.432   5.548  16.991  2.5015  0.5119  3.3066
16117TIP3   OH269841   2.983   4.120  12.898 -0.8413 -1.0086  0.4064
16117TIP3    H169842   2.958   4.185  12.963 -0.0121 -0.3915  0.1190
16117TIP3    H269843   2.999   4.040  12.950 -0.6672 -0.6594  0.9017
16118TIP3   OH269844   3.904   3.225   3.012 -0.6278  0.1441  0.2937
16118TIP3    H169845   3.831   3.165   3.000 -1.6331  1.2350  0.7918
16118TIP3    H269846   3.906   3.242   3.107 -0.1144  0.6096  0.2055
16119TIP3   OH269847   3.012   3.968  16.373 -0.3097  0.2532 -0.5708
16119TIP3    H169848   2.970   3.940  16.291 -0.3301 -0.3626 -0.3552
16119TIP3    H269849   3.095   3.920  16.374 -0.4222  0.0703 -0.1108
16120TIP3   OH269850   2.174   0.493  11.981 -0.3743 -0.2664  0.1693
16120TIP3    H169851   2.269   0.503  11.976 -0.4990  1.6285  0.8925
16120TIP3    H269852   2.153   0.430  11.912  1.3432 -0.3060 -0.3599
16121TIP3   OH269853   2.115   5.181  16.246  0.1816  0.1627 -0.1332
16121TIP3    H169854   2.096   5.265  16.203  0.6124  0.9319  1.1259
16121TIP3    H269855   2.029   5.138  16.253 -0.1957  0.9320  0.0910
16122TIP3   OH269856   0.302   0.052  15.474  0.2970 -0.0128 -0.5652
16122TIP3    H169857   0.235   0.098  15.423  0.5615 -0.9693 -1.8480
16122TIP3    H269858   0.256  -0.024  15.510  0.2748  0.2992  0.0692
16123TIP3   OH269859   0.722   0.236   4.736 -0.1323  0.1831  0.1051
16123TIP3    H169860   0.707   0.309   4.676  0.6636  0.0970 -0.2130
16123TIP3    H269861   0.638   0.191   4.742 -0.4753  0.7822 -0.1532
16124TIP3   OH269862   5.837   5.856  13.940 -0.6189  0.1461 -0.1283
16124TIP3    H169863   5.794   5.941  13.936  1.4708  1.2534 -0.3322
16124TIP3    H269864   5.869   5.841  13.851  1.1387  0.3534  0.4183
16125TIP3   OH269865   1.584   1.364  15.420  0.2392 -0.5311  0.0528
16125TIP3    H169866   1.662   1.330  15.463 -0.5230 -1.4788  0.7251
16125TIP3    H269867   1.601   1.458  15.410  2.1146 -0.9449 -1.2676
16126TIP3   OH269868   1.414   0.346   4.755  0.3891  0.2435  0.1131
16126TIP3    H169869   1.342   0.361   4.818  0.6552  0.8774  0.2766
16126TIP3    H269870   1.471   0.283   4.798  0.2830  0.2608  0.2807
16127TIP3   OH269871   3.261   4.859  16.413  0.1627  0.1628 -0.2686
16127TIP3    H169872   3.246   4.782  16.358 -1.1987  0.9528 -1.0702
16127TIP3    H269873   3.175   4.901  16.418  0.3412  0.3910  2.0914
16128TIP3   OH269874   6.779   1.369   4.903 -0.3769  0.4253 -0.4983
16128TIP3    H169875   6.834   1.341   4.829 -1.9411  2.0012 -2.3635
16128TIP3    H269876   6.712   1.301   4.909  1.8803 -1.8841  2.2312
16129TIP3   OH269877   1.193   6.611   3.041  0.5252  0.2145 -0.8411
16129TIP3    H169878   1.266   6.559   3.007  0.2706 -0.0241 -1.0346
16129TIP3    H269879   1.180   6.578   3.130 -1.2691 -1.9018 -1.7632
16130TIP3   OH269880   6.171   6.332  15.060  0.2529 -0.0355  0.5500
16130TIP3    H169881   6.087   6.313  15.016  0.5670 -0.3970  0.0928
16130TIP3    H269882   6.146   6.365  15.146 -0.4321  1.9591 -0.3384
16131TIP3   OH269883   6.487   4.078  13.586 -0.4532  0.0986 -0.3013
16131TIP3    H169884   6.531   4.111  13.508 -1.9871  0.8232 -0.8796
16131TIP3    H269885   6.450   3.994  13.559  0.7613 -0.6578  0.2725
16132TIP3   OH269886   0.907   5.876   1.951  0.9118 -0.7705 -0.4751
16132TIP3    H169887   0.863   5.809   1.899 -1.6581 -0.0792  0.6598
16132TIP3    H269888   0.926   5.834   2.034 -1.6987  0.0855  0.6482
16133TIP3   OH269889   0.458   1.026  12.158 -0.2770 -0.2209  0.0920
16133TIP3    H169890   0.553   1.010  12.153 -0.4476 -0.9818 -1.3034
16133TIP3    H269891   0.434   0.999  12.246  1.0597  1.5597  1.0652
16134TIP3   OH269892   1.870   5.400   3.683  0.9542  0.3560  0.0667
16134TIP3    H169893   1.783   5.404   3.642  0.8673  0.0280  0.2176
16134TIP3    H269894   1.927   5.366   3.614  0.8522  0.0288  0.1412
16135TIP3   OH269895   0.117   2.987   1.340  0.4251 -0.1223 -0.4219
16135TIP3    H169896   0.102   3.082   1.347 -0.0576 -0.1980 -0.4051
16135TIP3    H269897   0.119   2.956   1.431 -1.5184 -0.4428 -0.4551
16136TIP3   OH269898   5.593   2.579   2.637 -0.4263 -0.1085  0.2377
16136TIP3    H169899   5.503   2.601   2.663 -0.0446  2.8891 -0.6736
16136TIP3    H269900   5.590   2.578   2.541  0.6388  0.6261  0.1910
16137TIP3   OH269901   3.728   4.035  14.660  0.7828  0.6055  0.0975
16137TIP3    H169902   3.791   3.969  14.631 -0.2167 -0.0993 -0.5730
16137TIP3    H269903   3.716   4.092  14.584 -1.1507 -0.6952 -0.6447
16138TIP3   OH269904   4.716   0.872  12.394  0.1924  0.4331  0.3551
16138TIP3    H169905   4.788   0.818  12.427 -0.2538 -0.3728  0.0418
16138TIP3    H269906   4.683   0.824  12.318 -2.2032 -0.4867  1.8586
16139TIP3   OH269907   6.499   4.335   4.755 -0.0165  0.7156 -0.3673
16139TIP3    H169908   6.568   4.294   4.702 -0.8495  0.4299 -1.2540
16139TIP3    H269909   6.426   4.274   4.750  0.0836  0.3613  1.6697
16140TIP3   OH269910   4.887   4.626  13.069 -0.2544 -0.2749 -0.2169
16140TIP3    H169911   4.945   4.584  13.005  2.5847  2.1798  0.5709
16140TIP3    H269912   4.895   4.573  13.148  1.9249  0.6583  0.2386
16141TIP3   OH269913   5.241   1.243  15.847  0.4910  0.0993 -0.1331
16141TIP3    H169914   5.158   1.197  15.835 -0.1298  0.0755  3.2712
16141TIP3    H269915   5.304   1.192  15.795 -1.0650 -1.6587 -0.4081
16142TIP3   OH269916   0.523   4.744   1.807 -0.9474 -0.1206  0.6752
16142TIP3    H169917   0.579   4.676   1.844 -0.4347 -1.4635 -2.3113
16142TIP3    H269918   0.545   4.746   1.714 -0.7465  4.3396  0.5967
16143TIP3   OH269919   5.495   3.401   1.648  0.6409  0.5956  0.0164
16143TIP3    H169920   5.513   3.373   1.558  1.2768  0.7933  0.0779
16143TIP3    H269921   5.400   3.414   1.650  0.5631  0.1768 -0.5053
16144TIP3   OH269922   6.555   0.246  14.753 -0.3070  0.8246  0.0419
16144TIP3    H169923   6.568   0.238  14.659 -1.4858 -1.1206 -0.0195
16144TIP3    H269924   6.621   0.188  14.792 -0.7450  0.4961  0.3137
16145TIP3   OH269925   0.020   2.845  15.454 -0.6354  0.1183  0.2603
16145TIP3    H169926   0.045   2.753  15.444 -1.4457 -0.1827  0.9029
16145TIP3    H269927  -0.019   2.850  15.541  0.4115  1.3175  0.6921
16146TIP3   OH269928   5.022   1.625  13.340  0.0224  0.3761  0.0842
16146TIP3    H169929   4.976   1.545  13.314 -1.0906  0.6025  1.2820
16146TIP3    H269930   5.021   1.624  13.435  1.7274  0.8670  0.1550
16147TIP3   OH269931   3.418   5.215  16.162 -0.3873  0.0222  0.2026
16147TIP3    H169932   3.396   5.215  16.255  0.1308  0.4041  0.3303
16147TIP3    H269933   3.372   5.139  16.126  0.4356 -0.8889  1.0165
16148TIP3   OH269934   5.649   1.590   3.782  0.1843  0.9934  0.0980
16148TIP3    H169935   5.589   1.650   3.827  1.9374  2.3133  0.7999
16148TIP3    H269936   5.662   1.630   3.696 -1.8981 -0.6750 -1.0827
16149TIP3   OH269937   0.378   1.622  14.107  0.1907 -0.3435 -0.1239
16149TIP3    H169938   0.366   1.529  14.125  0.8684 -0.0562  2.0457
16149TIP3    H269939   0.445   1.651  14.168 -1.0771  1.8920  0.3480
16150TIP3   OH269940   0.712   2.400   4.798 -0.7091  0.1012 -0.6274
16150TIP3    H169941   0.798   2.387   4.837 -1.6539 -0.3891  1.3729
16150TIP3    H269942   0.728   2.462   4.726  1.0532  1.3330  0.7364
16151TIP3   OH269943   3.831   5.145  11.322 -0.2690 -0.0823  0.0544
16151TIP3    H169944   3.888   5.124  11.395 -1.0104 -2.2622  0.0872
16151TIP3    H269945   3.890   5.158  11.248  0.3579 -0.8683  0.3991
16152TIP3   OH269946   4.900   1.239   2.782  0.4954  0.2288 -0.9412
16152TIP3    H169947   4.932   1.262   2.869 -1.6486  0.7323 -0.2117
16152TIP3    H269948   4.804   1.242   2.791  0.2263  0.7667 -3.4389
16153TIP3   OH269949   1.433   6.683  13.764 -0.0034  0.0694  0.0312
16153TIP3    H169950   1.376   6.713  13.693  0.1459 -1.2741 -0.6926
16153TIP3    H269951   1.521   6.708  13.736 -0.1317  1.5964  0.8621
16154TIP3   OH269952   5.126   5.926  13.270  0.3061 -0.0863 -0.0684
16154TIP3    H169953   5.198   5.870  13.242 -0.3430 -1.2813  0.5376
16154TIP3    H269954   5.165   6.012  13.284  1.3302 -0.3680 -1.0545
16155TIP3   OH269955   1.519   6.704   3.268  0.5573  0.0345  0.2646
16155TIP3    H169956   1.429   6.723   3.296  0.1352 -2.0475  0.4707
16155TIP3    H269957   1.572   6.720   3.346  0.0872 -0.6151  0.7278
16156TIP3   OH269958   6.680   3.006  11.711 -0.3604 -0.4522 -0.2713
16156TIP3    H169959   6.630   3.087  11.697 -2.0686 -1.6159 -1.3264
16156TIP3    H269960   6.692   2.970  11.623 -1.4518 -2.3340  0.2775
16157TIP3   OH269961   3.328   3.045  17.100 -0.4853  0.2964  0.5179
16157TIP3    H169962   3.366   2.961  17.076 -0.1445 -0.0042  2.0037
16157TIP3    H269963   3.237   3.039  17.073 -1.0151 -1.3985  2.4358
16158TIP3   OH269964   1.271   6.181  15.747  0.0774 -0.2510 -0.2622
16158TIP3    H169965   1.364   6.161  15.756  0.0481 -0.5245 -0.5570
16158TIP3    H269966   1.247   6.226  15.829  0.4437 -0.2650 -0.1498
16159TIP3   OH269967   2.416   6.718   3.009  0.2223 -1.2696  0.4123
16159TIP3    H169968   2.441   6.803   3.044  0.3982 -0.4143 -1.6553
16159TIP3    H269969   2.498   6.670   3.000  0.3751 -0.9094 -0.2169
16160TIP3   OH269970   2.928   1.790  16.374  0.3234  0.8015  0.3695
16160TIP3    H169971   2.912   1.774  16.466  1.6445 -0.1502  0.4471
16160TIP3    H269972   2.926   1.886  16.366 -0.7269  0.8640  1.1869
16161TIP3   OH269973   5.770   4.663   6.061  0.1922  0.3292  0.5191
16161TIP3    H169974   5.737   4.753   6.053 -1.0964 -0.2329 -1.3638
16161TIP3    H269975   5.756   4.626   5.974 -1.8235 -2.5071  1.9021
16162TIP3   OH269976   0.137   2.034  14.347  0.2590  0.6695  0.0791
16162TIP3    H169977   0.198   1.977  14.392 -0.1337 -0.3819 -0.6712
16162TIP3    H269978   0.068   1.975  14.315 -2.3286  2.0052  2.7142
16163TIP3   OH269979   3.300   0.418   0.363 -0.3175  0.1218  0.6580
16163TIP3    H169980   3.261   0.354   0.303 -0.3782 -0.0608  0.8903
16163TIP3    H269981   3.226   0.472   0.391 -0.0058  1.4429 -0.9125
16164TIP3   OH269982   1.147   5.245  16.593  0.7823 -0.0364 -0.4954
16164TIP3    H169983   1.209   5.198  16.537 -2.7521 -2.3356 -2.8979
16164TIP3    H269984   1.117   5.179  16.655 -1.2685  0.0896 -1.2778
16165TIP3   OH269985   2.063   2.933   1.726  0.0502 -0.5452  0.5339
16165TIP3    H169986   1.990   2.996   1.721  2.0957  2.0510  1.1355
16165TIP3    H269987   2.113   2.949   1.645  0.0958 -2.1375  0.2315
16166TIP3   OH269988   0.081   5.694   0.635 -0.3924 -0.3222 -0.1691
16166TIP3    H169989   0.153   5.738   0.680 -1.2217 -1.0410  2.0177
16166TIP3    H269990   0.073   5.610   0.680 -1.7509 -0.8179 -1.2494
16167TIP3   OH269991   2.003   0.471  12.441 -0.2767 -0.5531 -0.7556
16167TIP3    H169992   2.019   0.401  12.378  0.7630 -0.4984 -0.5726
16167TIP3    H269993   2.047   0.442  12.521  1.5161  0.9589 -1.1184
16168TIP3   OH269994   0.241   6.649   1.569 -0.1022  0.3109  1.1144
16168TIP3    H169995   0.324   6.691   1.592  0.4940 -0.1961 -0.0718
16168TIP3    H269996   0.266   6.575   1.514 -1.4205  1.0080 -0.4987
16169TIP3   OH269997   6.295   5.288  16.135  0.8430 -1.0060  0.8525
16169TIP3    H169998   6.359   5.216  16.143  1.1933 -0.6853  0.9856
16169TIP3    H269999   6.279   5.316  16.225 -1.6542 -2.9243  1.1132
16170TIP3   OH270000   0.302   4.781   5.315  0.6197  0.3586 -0.6331
16170TIP3    H170001   0.245   4.734   5.376  0.3642  0.5567 -0.7132
16170TIP3    H270002   0.245   4.802   5.241  0.8388  0.4244 -0.7841
16171TIP3   OH270003   1.904   3.388   4.814  0.5466 -0.0298 -0.1041
16171TIP3    H170004   1.895   3.309   4.760  1.1573 -0.4356  0.3831
16171TIP3    H270005   1.815   3.423   4.820  0.4694  0.0469 -1.4106
16172TIP3   OH270006   5.981   3.046   1.657  0.1733 -0.1872  0.2028
16172TIP3    H170007   6.005   3.109   1.589 -1.7312 -0.2413 -0.5891
16172TIP3    H270008   5.942   2.973   1.609 -4.0154  1.0344  1.3339
16173TIP3   OH270009   1.564   2.839   1.746 -0.3169 -0.0976 -0.3606
16173TIP3    H170010   1.654   2.836   1.713  0.7472 -1.1145  2.3544
16173TIP3    H270011   1.521   2.763   1.706  0.7056 -0.9093  0.0398
16174TIP3   OH270012   0.083   4.445  15.368 -0.2706  0.2791  0.3446
16174TIP3    H170013   0.057   4.487  15.286 -0.7023  0.7797  0.7363
16174TIP3    H270014   0.178   4.458  15.372 -0.5119  2.1769  0.9734
16175TIP3   OH270015   5.335   4.056  11.431 -0.0175 -0.2144 -0.2949
16175TIP3    H170016   5.277   4.127  11.457  0.2361 -0.3127  0.5839
16175TIP3    H270017   5.287   3.976  11.455  0.2776 -0.3049  0.0096
16176TIP3   OH270018   4.034   6.228  13.898  0.0037  0.2995 -0.2288
16176TIP3    H170019   4.122   6.199  13.923 -0.4768 -0.1558  1.0365
16176TIP3    H270020   4.049   6.295  13.832  1.3701  0.9719  0.7062
16177TIP3   OH270021   0.732   5.555  12.104 -0.0560  0.5815 -0.3915
16177TIP3    H170022   0.755   5.617  12.173 -0.0857  0.1761 -0.0131
16177TIP3    H270023   0.765   5.471  12.135  0.8739  0.5728 -1.3603
16178TIP3   OH270024   5.104   3.953   3.162 -0.0823 -0.7360  0.2590
16178TIP3    H170025   5.078   3.861   3.165  0.3640 -0.8943 -0.4230
16178TIP3    H270026   5.113   3.972   3.069  1.8728 -0.5972  0.4303
16179TIP3   OH270027   2.652   2.307  16.281 -0.1243 -0.2255  0.0486
16179TIP3    H170028   2.698   2.275  16.358 -1.1154 -2.5111 -0.2063
16179TIP3    H270029   2.721   2.345  16.226  0.9293 -0.5330  1.1049
16180TIP3   OH270030   6.549   1.659   0.057 -0.3049 -0.2778 -0.9164
16180TIP3    H170031   6.546   1.579   0.005 -0.5537  0.2274 -1.7099
16180TIP3    H270032   6.570   1.728  -0.006 -2.2344  0.6105 -0.6867
16181TIP3   OH270033   5.097   6.387  16.225 -0.1139  0.2111  0.5078
16181TIP3    H170034   5.012   6.383  16.269  0.0555 -0.6297  0.7880
16181TIP3    H270035   5.144   6.310  16.258  1.1448  1.2042  1.1405
16182TIP3   OH270036   0.924   2.037  13.743  0.2711  0.0424  0.2561
16182TIP3    H170037   0.958   2.107  13.687 -0.8513  1.1715  0.9243
16182TIP3    H270038   0.992   2.024  13.809  0.7914  0.0118 -0.2855
16183TIP3   OH270039   4.013   2.785  12.760  0.3230  0.0076 -0.5274
16183TIP3    H170040   4.066   2.815  12.686  1.8634  0.4245  0.7063
16183TIP3    H270041   3.986   2.865  12.804 -0.4344 -0.2472 -0.5079
16184TIP3   OH270042   1.815   6.064  11.992  0.6798 -0.2789  0.1888
16184TIP3    H170043   1.761   5.997  12.033  1.0160 -0.3894  0.4665
16184TIP3    H270044   1.881   6.015  11.943 -0.3445 -0.1522 -1.3613
16185TIP3   OH270045   5.162   6.677   2.997 -0.3030 -0.4116  0.2859
16185TIP3    H170046   5.097   6.746   3.011 -1.0312 -1.4242  2.2954
16185TIP3    H270047   5.110   6.601   2.971 -0.0262 -1.3419  2.3043
16186TIP3   OH270048   3.845   3.034   2.657  0.1734  0.2756 -0.6804
16186TIP3    H170049   3.767   2.993   2.695  0.3475 -0.0522 -0.6683
16186TIP3    H270050   3.813   3.116   2.620  0.0212  0.6540  0.2568
16187TIP3   OH270051   4.513   3.035  13.158 -0.0359 -0.1131  0.0538
16187TIP3    H170052   4.452   2.970  13.124 -0.2560  0.6862 -1.1142
16187TIP3    H270053   4.589   3.030  13.100  1.0781 -1.1119  1.5037
16188TIP3   OH270054   4.837   1.939   2.862 -0.1287  0.2775  0.2852
16188TIP3    H170055   4.822   2.020   2.911 -1.7932  1.2342 -1.6227
16188TIP3    H270056   4.860   1.874   2.928  0.7719  2.1696  1.9470
16189TIP3   OH270057   3.620   6.371   1.435 -0.0188  0.1471 -0.0741
16189TIP3    H170058   3.540   6.381   1.487  0.1764  2.6992 -0.1024
16189TIP3    H270059   3.601   6.417   1.353  1.7725  1.8014  0.3551
16190TIP3   OH270060   4.481   2.512   4.786  0.1469  0.2616  0.1390
16190TIP3    H170061   4.450   2.598   4.760 -0.4260  0.3557  1.1132
16190TIP3    H270062   4.403   2.464   4.810  0.5551 -0.2160  0.5357
16191TIP3   OH270063   4.913   0.881  11.781 -0.0156  0.6265 -0.0009
16191TIP3    H170064   4.979   0.818  11.753  0.6853  1.1865  0.3948
16191TIP3    H270065   4.894   0.931  11.702 -1.8421 -1.1442 -0.7982
16192TIP3   OH270066   0.760   0.681  17.214 -0.2413 -0.6823 -0.0879
16192TIP3    H170067   0.764   0.587  17.235 -0.1916 -0.2829  1.8977
16192TIP3    H270068   0.847   0.702  17.182 -0.1661 -1.2594 -0.2832
16193TIP3   OH270069   6.383   4.776  15.285  0.1319 -0.3105 -0.2086
16193TIP3    H170070   6.347   4.790  15.373  1.1056  0.4417  0.0893
16193TIP3    H270071   6.383   4.863  15.245  0.2936 -0.5432 -0.7209
16194TIP3   OH270072   1.274   2.090   3.861  0.1822  0.6271  0.2769
16194TIP3    H170073   1.232   2.173   3.839 -0.2190  0.2707 -0.3110
16194TIP3    H270074   1.357   2.091   3.814 -0.2049  0.3287 -0.4338
16195TIP3   OH270075   3.961   3.264  14.242 -0.2407  0.0404  0.7178
16195TIP3    H170076   3.888   3.204  14.228 -0.7806  0.8050  0.1425
16195TIP3    H270077   4.039   3.211  14.226 -0.7409 -0.1484 -1.4743
16196TIP3   OH270078   5.287   0.741  11.136  0.0416 -0.0427 -0.4112
16196TIP3    H170079   5.252   0.699  11.215 -1.2908  0.4186 -0.7354
16196TIP3    H270080   5.377   0.710  11.131  0.8677  1.5469  2.4426
16197TIP3   OH270081   5.546   4.847  11.323  0.3889  0.0519  0.2494
16197TIP3    H170082   5.637   4.876  11.330  0.5463 -0.4021  0.1545
16197TIP3    H270083   5.518   4.873  11.236 -0.4540  2.6088  1.1835
16198TIP3   OH270084   1.004   6.769   4.401  0.7741 -0.1360 -0.1223
16198TIP3    H170085   0.981   6.730   4.317  0.7762  1.4482 -0.8873
16198TIP3    H270086   1.072   6.833   4.381 -0.0465  1.1083  0.8853
16199TIP3   OH270087   6.788   6.248   5.115 -0.0033  0.2437 -0.1883
16199TIP3    H170088   6.727   6.176   5.098 -1.2701  1.0084  0.9213
16199TIP3    H270089   6.804   6.244   5.209  1.4769  0.2355 -0.4167
16200TIP3   OH270090   6.799   2.364   2.465 -0.3388  0.8710 -0.4419
16200TIP3    H170091   6.847   2.430   2.416  1.3551 -0.7640 -1.0820
16200TIP3    H270092   6.734   2.331   2.404 -1.2090  1.8930 -0.1129
16201TIP3   OH270093   4.502   2.736  15.346 -0.1354  0.7205  0.6204
16201TIP3    H170094   4.435   2.805  15.353  0.3646  1.1337  1.5151
16201TIP3    H270095   4.514   2.705  15.436 -0.7568 -0.9511  0.1502
16202TIP3   OH270096   5.217   4.383   0.353  1.1410  0.0800 -0.0024
16202TIP3    H170097   5.188   4.299   0.388  0.0575  0.1598 -0.6770
16202TIP3    H270098   5.138   4.436   0.349  1.6926  0.9038 -0.2355
16203TIP3   OH270099   3.697   3.106  16.899  0.6251  0.3799  0.4807
16203TIP3    H170100   3.764   3.153  16.949  1.2025  2.4356 -2.0212
16203TIP3    H270101   3.615   3.148  16.925  0.5776 -0.3606  1.5980
16204TIP3   OH270102   6.786   4.599   4.203 -0.5056 -0.2841  0.4684
16204TIP3    H170103   6.733   4.626   4.278  0.6828  1.2456  0.8116
16204TIP3    H270104   6.848   4.536   4.240  0.1315  0.5290  0.8199
16205TIP3   OH270105   2.178   0.327   4.725 -0.0465  0.4374  0.5203
16205TIP3    H170106   2.248   0.262   4.736  1.0165  1.2078 -1.1804
16205TIP3    H270107   2.122   0.315   4.801  1.2351 -1.0828  1.2955
16206TIP3   OH270108   6.444   6.149   3.222  0.5956  0.1237 -0.1543
16206TIP3    H170109   6.460   6.143   3.316 -0.1496 -0.6875 -0.0689
16206TIP3    H270110   6.416   6.240   3.209 -0.1052  0.0234  0.5521
16207TIP3   OH270111   3.151   1.604  13.843 -0.0618  0.1509  0.3618
16207TIP3    H170112   3.070   1.583  13.797 -0.0081 -0.5307  0.5612
16207TIP3    H270113   3.176   1.690  13.810 -0.0702 -0.2752 -0.8046
16208TIP3   OH270114   3.422   1.348  12.691  0.1736  0.0613 -0.1474
16208TIP3    H170115   3.513   1.337  12.662  0.0344  1.1175 -1.0560
16208TIP3    H270116   3.428   1.361  12.785  0.8706 -0.9517 -0.0456
16209TIP3   OH270117   0.357   1.520   1.722 -0.8025  0.0985 -0.3971
16209TIP3    H170118   0.277   1.497   1.770 -1.3234  0.3530 -1.1099
16209TIP3    H270119   0.403   1.437   1.711 -2.4767 -0.6320 -2.6185
16210TIP3   OH270120   0.517   3.051   5.162  1.0941 -0.0898  0.1235
16210TIP3    H170121   0.515   3.119   5.095  0.0601 -0.5723 -0.3621
16210TIP3    H270122   0.476   3.091   5.239  1.6005  0.2247  0.2314
16211TIP3   OH270123   5.332   6.582  15.535  0.1319  0.3134 -0.1520
16211TIP3    H170124   5.360   6.491  15.529  1.3203  0.3912  2.6286
16211TIP3    H270125   5.270   6.593  15.464  1.6178 -2.0295 -1.9515
16212TIP3   OH270126   1.885   3.275   4.543 -0.3687  0.2645 -0.1381
16212TIP3    H170127   1.947   3.328   4.493 -0.6442  1.0954  0.3756
16212TIP3    H270128   1.808   3.331   4.553 -0.5869 -0.1552  0.6061
16213TIP3   OH270129   3.363   3.324   5.611  0.0553 -0.1445  0.5247
16213TIP3    H170130   3.269   3.341   5.625  0.1405 -0.0943  1.0651
16213TIP3    H270131   3.371   3.308   5.517 -0.6284 -0.9547  0.5920
16214TIP3   OH270132   4.665   3.188  13.944 -0.2416  0.1273 -1.3456
16214TIP3    H170133   4.607   3.247  13.990  0.8233  0.6835 -0.6763
16214TIP3    H270134   4.631   3.185  13.854 -0.3489  1.7260 -1.3831
16215TIP3   OH270135   5.929   3.014  14.478  0.4341  0.1260  0.2268
16215TIP3    H170136   5.920   2.925  14.510 -0.1320  0.2849  0.5435
16215TIP3    H270137   5.890   3.068  14.548 -3.3775  0.3205 -1.7496
16216TIP3   OH270138   3.574   0.639   4.732  0.4545 -0.5212  0.0396
16216TIP3    H170139   3.536   0.705   4.675 -0.1825 -1.2618 -0.4129
16216TIP3    H270140   3.531   0.557   4.706  0.5215 -0.9568  1.2367
16217TIP3   OH270141   2.144   6.742   4.388 -0.3825 -0.4005 -0.2042
16217TIP3    H170142   2.163   6.709   4.475 -0.0577  0.0174 -0.1139
16217TIP3    H270143   2.048   6.746   4.384 -0.4030 -0.6091  0.0569
16218TIP3   OH270144   6.075   6.200  13.894 -0.2269 -0.2101  0.5722
16218TIP3    H170145   6.121   6.248  13.963  1.6075 -1.5251  0.3476
16218TIP3    H270146   5.992   6.246  13.884  0.7290  1.8667  1.5338
16219TIP3   OH270147   0.536   2.383  15.336 -0.4110 -0.8662  0.0972
16219TIP3    H170148   0.458   2.382  15.281 -0.1107 -0.3741 -0.3406
16219TIP3    H270149   0.550   2.291  15.360 -1.1098 -0.9614  0.1629
16220TIP3   OH270150   6.424   0.471  16.171  0.3556  0.2963 -0.3618
16220TIP3    H170151   6.455   0.483  16.081 -0.6196 -0.0940 -0.7673
16220TIP3    H270152   6.338   0.431  16.161 -0.9560  2.7001  0.6760
16221TIP3   OH270153   2.719   6.763  14.364  0.3882  0.2812  0.6691
16221TIP3    H170154   2.639   6.769  14.311  0.8242  2.5515  0.1403
16221TIP3    H270155   2.790   6.767  14.300  0.9803 -2.1554  1.1031
16222TIP3   OH270156   3.815   0.794  11.647 -0.4347  0.0329 -0.5712
16222TIP3    H170157   3.739   0.770  11.593 -1.8753  2.0409  0.3979
16222TIP3    H270158   3.863   0.857  11.594 -1.4537  1.4534  0.1150
16223TIP3   OH270159   2.379   2.683   0.100 -0.1479  0.9844 -0.5039
16223TIP3    H170160   2.401   2.749   0.034  0.3523  2.3344  0.9281
16223TIP3    H270161   2.351   2.735   0.176 -0.2947 -0.4914  0.4801
16224TIP3   OH270162   0.522   0.433   0.799 -0.5570  0.0834  0.6290
16224TIP3    H170163   0.471   0.479   0.733 -1.5355 -0.6818  0.8284
16224TIP3    H270164   0.489   0.343   0.797  0.1578 -0.2155  1.4021
16225TIP3   OH270165   6.587   0.703   0.467  0.0407 -0.2301  0.4470
16225TIP3    H170166   6.593   0.644   0.391 -0.1369 -1.2941  1.2302
16225TIP3    H270167   6.494   0.727   0.470  0.2745  0.8429 -0.4072
16226TIP3   OH270168   4.794   2.279  15.720 -0.1664  0.1802  0.1006
16226TIP3    H170169   4.798   2.353  15.660  2.3656  0.2701  0.2766
16226TIP3    H270170   4.847   2.211  15.678 -1.5885 -1.1992  0.4331
16227TIP3   OH270171   2.273   1.071  13.621  0.1635 -0.1892 -0.6627
16227TIP3    H170172   2.206   1.083  13.554  0.5048  0.2297 -0.9340
16227TIP3    H270173   2.339   1.016  13.580  0.2498 -0.1505 -0.5758
16228TIP3   OH270174   1.560   3.585   5.305  0.6909 -0.3615 -0.6013
16228TIP3    H170175   1.593   3.517   5.248 -1.2266 -0.6143 -1.4989
16228TIP3    H270176   1.506   3.539   5.369  1.6695  0.0614  0.5588
16229TIP3   OH270177   3.808   4.692  17.194  0.5158  0.2377 -1.0999
16229TIP3    H170178   3.722   4.720  17.164 -1.4464 -2.5997  1.3258
16229TIP3    H270179   3.833   4.622  17.134  0.3473 -0.0733 -0.8059
16230TIP3   OH270180   5.456   4.414   2.484 -0.1356  0.2292  0.6816
16230TIP3    H170181   5.464   4.480   2.416  1.5837 -0.8817 -0.2693
16230TIP3    H270182   5.368   4.379   2.474 -0.1980  0.6732 -0.4187
16231TIP3   OH270183   2.402   6.260   5.302 -0.1608 -0.1071  0.0647
16231TIP3    H170184   2.378   6.340   5.254  2.5184  0.1263 -1.0584
16231TIP3    H270185   2.372   6.277   5.392 -1.9398  1.0226 -0.6738
16232TIP3   OH270186   1.731   2.754   3.830 -0.1140 -0.1785 -0.0141
16232TIP3    H170187   1.785   2.824   3.868 -0.3223 -0.1529  0.2415
16232TIP3    H270188   1.651   2.755   3.883  0.4157 -1.5029  0.8729
16233TIP3   OH270189   5.666   4.705  15.294 -0.7120 -0.0002 -0.2666
16233TIP3    H170190   5.662   4.800  15.283 -3.8022 -0.2213 -2.3005
16233TIP3    H270191   5.655   4.692  15.388  3.9806  1.5950  0.7522
16234TIP3   OH270192   1.056   2.030  15.350  0.3346 -0.4579 -0.2066
16234TIP3    H170193   1.120   2.097  15.328  0.6968 -0.0549  1.8501
16234TIP3    H270194   0.974   2.079  15.361  0.0423 -0.7253 -1.1310
16235TIP3   OH270195   0.794   4.101  14.355  0.0107  0.1394  0.1815
16235TIP3    H170196   0.821   4.120  14.444  0.3124  0.8054 -0.0494
16235TIP3    H270197   0.755   4.014  14.360  1.5483 -0.5613  0.6567
16236TIP3   OH270198   5.317   1.310  17.246  0.2980  0.2270 -0.2607
16236TIP3    H170199   5.380   1.338  17.179  1.1475  0.0045  0.4210
16236TIP3    H270200   5.308   1.216  17.232 -0.1275  0.3041 -0.5426
16237TIP3   OH270201   0.910   2.502  13.606 -0.0725 -0.7806 -0.1541
16237TIP3    H170202   0.853   2.524  13.532 -0.0370 -0.2901 -0.0378
16237TIP3    H270203   0.947   2.585  13.633  0.4764 -1.0601 -0.0392
16238TIP3   OH270204   5.745   4.094  14.128 -0.5411 -0.4300  0.2332
16238TIP3    H170205   5.820   4.036  14.143 -1.4850 -1.0996  3.0130
16238TIP3    H270206   5.694   4.049  14.061  0.0149 -1.5550  0.5262
16239TIP3   OH270207   1.965   3.476   0.906  0.2781 -0.4349 -0.0122
16239TIP3    H170208   1.882   3.514   0.875  1.5321  1.0970 -1.6852
16239TIP3    H270209   1.978   3.515   0.992 -1.4596 -1.9302  1.0186
16240TIP3   OH270210   6.414   3.088   0.262 -0.1381  0.1261  0.0562
16240TIP3    H170211   6.506   3.114   0.263  0.3429 -1.3172 -1.4045
16240TIP3    H270212   6.378   3.130   0.184 -0.7861  0.8552  0.7354
16241TIP3   OH270213   3.054   0.479  17.211 -0.2109  0.3152 -0.3642
16241TIP3    H170214   3.044   0.574  17.209 -1.4337  0.2232  0.4790
16241TIP3    H270215   3.043   0.456  17.303  0.1853 -0.6438 -0.5433
16242TIP3   OH270216   1.461   1.432  13.313 -0.5577  0.3316  0.3533
16242TIP3    H170217   1.541   1.380  13.299  0.3007  1.7071 -0.0693
16242TIP3    H270218   1.391   1.367  13.321  0.4551 -0.8756 -0.2530
16243TIP3   OH270219   6.384   1.292   4.144  0.3700  0.7340 -0.9492
16243TIP3    H170220   6.294   1.294   4.112  0.2858  0.9573 -0.7064
16243TIP3    H270221   6.433   1.347   4.084 -0.1484  2.7233  0.3771
16244TIP3   OH270222   2.538   2.734  14.898  0.3833 -0.7316  0.0981
16244TIP3    H170223   2.611   2.792  14.877  0.6362 -0.8520  0.6259
16244TIP3    H270224   2.489   2.780  14.965 -2.3811  1.2424 -2.9741
16245TIP3   OH270225   5.559   3.212  11.055 -0.4503  0.0842  0.0053
16245TIP3    H170226   5.531   3.138  11.109 -0.8501  0.2057 -0.0347
16245TIP3    H270227   5.632   3.250  11.103 -0.2326 -0.3437  0.0214
16246TIP3   OH270228   5.258   0.836   4.277 -0.2033  0.1512 -0.0241
16246TIP3    H170229   5.266   0.853   4.183 -2.7264  0.2538 -0.2870
16246TIP3    H270230   5.311   0.757   4.291 -1.0344 -0.7973 -1.8720
16247TIP3   OH270231   2.642   4.227   1.240  0.3798 -0.0042 -0.6247
16247TIP3    H170232   2.634   4.218   1.335  0.8636  0.0401 -0.5771
16247TIP3    H270233   2.670   4.140   1.210 -1.8762 -0.6660 -0.9862
16248TIP3   OH270234   1.103   3.590   2.353 -0.1336  0.6503 -0.3692
16248TIP3    H170235   1.173   3.623   2.297  0.6061  1.1130  0.7940
16248TIP3    H270236   1.061   3.668   2.388 -0.3348  0.3749  0.0152
16249TIP3   OH270237   1.175   6.196   1.325 -0.2049 -0.4557  0.2044
16249TIP3    H170238   1.112   6.140   1.370  0.9954 -1.2015  1.0290
16249TIP3    H270239   1.205   6.258   1.392  1.3528 -1.3653  0.4123
16250TIP3   OH270240   6.648   3.665  15.758  0.1569  0.5494 -0.2568
16250TIP3    H170241   6.605   3.670  15.672  1.8574  1.1422 -1.1150
16250TIP3    H270242   6.576   3.673  15.821 -0.9230  2.4323 -1.6197
16251TIP3   OH270243   0.277   0.856   3.250 -0.1172 -0.4812 -0.6082
16251TIP3    H170244   0.347   0.919   3.267  0.4048 -0.6363 -2.0382
16251TIP3    H270245   0.310   0.774   3.289 -0.7373  0.0536  1.1271
16252TIP3   OH270246   1.595   1.328   3.570 -1.0829  0.6849 -0.8025
16252TIP3    H170247   1.518   1.321   3.514 -0.8941  0.7519 -1.0712
16252TIP3    H270248   1.642   1.245   3.556 -1.2565  0.5212 -0.4178
16253TIP3   OH270249   0.628   6.389  12.138 -0.2633  0.5246 -0.4032
16253TIP3    H170250   0.617   6.480  12.110  0.4548  1.8172  3.0834
16253TIP3    H270251   0.627   6.392  12.234 -1.1792 -3.3009 -0.1119
16254TIP3   OH270252   0.648   1.218  15.184  0.2533 -0.3623  0.0046
16254TIP3    H170253   0.642   1.306  15.223  0.1083 -0.3069 -0.1408
16254TIP3    H270254   0.729   1.181  15.220  0.2519 -0.2152  0.1605
16255TIP3   OH270255   5.278   3.127   0.018 -0.3692 -0.1695  0.0915
16255TIP3    H170256   5.263   3.035   0.041 -0.3699 -0.9960 -2.7513
16255TIP3    H270257   5.197   3.153  -0.026  0.4498  0.4612 -1.0905
16256TIP3   OH270258   4.970   4.625   5.159 -0.7890 -0.0272  0.2090
16256TIP3    H170259   4.908   4.691   5.188 -0.1072  0.5858  0.2862
16256TIP3    H270260   4.989   4.573   5.238  0.3775  1.0826  0.6880
16257TIP3   OH270261   0.349   2.758   1.583  0.1360  0.1960 -0.2272
16257TIP3    H170262   0.419   2.740   1.645  0.8118  1.0541 -0.7232
16257TIP3    H270263   0.291   2.818   1.630 -0.4831 -0.7751  0.3062
16258TIP3   OH270264   4.078   4.224   1.059 -0.1705 -0.2758  0.2056
16258TIP3    H170265   4.101   4.313   1.033 -0.5030 -0.0086  0.8213
16258TIP3    H270266   4.047   4.232   1.149 -1.1679 -0.8608 -0.0716
16259TIP3   OH270267   2.946   1.343   2.939 -0.2549 -0.3650 -0.3889
16259TIP3    H170268   2.872   1.349   2.879 -1.2864  1.7065  0.9744
16259TIP3    H270269   2.909   1.361   3.026  1.7253  0.1194  0.4285
16260TIP3   OH270270   1.561   1.971  17.172  0.2314 -0.0324 -0.2424
16260TIP3    H170271   1.530   2.051  17.215  1.1716  0.3851 -0.3151
16260TIP3    H270272   1.632   2.000  17.116 -0.9106 -0.5748 -2.0761
16261TIP3   OH270273   0.975   0.054   2.321 -0.0564  0.3458  0.0302
16261TIP3    H170274   0.959  -0.034   2.288 -1.3914  1.1714 -1.7313
16261TIP3    H270275   0.887   0.089   2.338  0.3443  1.8308 -0.7690
16262TIP3   OH270276   0.321   5.343   2.117 -0.1932 -0.0578 -0.1857
16262TIP3    H170277   0.251   5.282   2.137  1.0142 -1.8728 -1.2203
16262TIP3    H270278   0.335   5.334   2.023  2.4898 -1.0223  0.2141
16263TIP3   OH270279   2.874   0.656  10.910 -0.2567 -0.1745 -0.7568
16263TIP3    H170280   2.962   0.628  10.884 -0.3091 -1.0430 -0.0245
16263TIP3    H270281   2.817   0.583  10.885 -0.3645 -0.9015  1.4015
16264TIP3   OH270282   3.745   0.735   4.371  0.6920  0.0165 -0.4554
16264TIP3    H170283   3.836   0.727   4.340  0.8519  0.6233 -0.1532
16264TIP3    H270284   3.753   0.753   4.465  0.1998 -3.3496  0.3810
16265TIP3   OH270285   3.091   1.089  11.316  0.3335  0.7339 -0.3104
16265TIP3    H170286   3.066   1.082  11.408  0.9722 -1.8882 -0.2638
16265TIP3    H270287   3.037   1.024  11.271  0.8110  1.2102 -1.6303
16266TIP3   OH270288   0.550   2.020   6.007 -0.2517  0.0156  0.0663
16266TIP3    H170289   0.563   1.933   6.044 -1.1479 -0.1698 -0.0284
16266TIP3    H270290   0.606   2.077   6.060  1.4603 -0.7993 -0.7802
16267TIP3   OH270291   6.689   0.787   5.304  0.1819  0.0798 -0.2046
16267TIP3    H170292   6.619   0.837   5.263 -1.1998  0.1850  2.0800
16267TIP3    H270293   6.648   0.750   5.383  2.1179 -1.7179  0.0356
16268TIP3   OH270294   3.282   0.107  11.731  0.0853  0.0236  0.7713
16268TIP3    H170295   3.297   0.192  11.773  0.9313  1.5064 -2.2841
16268TIP3    H270296   3.299   0.122  11.639 -2.2454 -2.8756 -0.3052
16269TIP3   OH270297   5.353   5.947   5.730  0.5139 -0.2786  0.4472
16269TIP3    H170298   5.281   5.941   5.668 -0.2380  0.7717  1.1932
16269TIP3    H270299   5.407   6.019   5.698 -0.1439  0.5975  1.2503
16270TIP3   OH270300   3.084   4.885   5.530  0.1007 -0.0400  0.0747
16270TIP3    H170301   3.029   4.812   5.502  0.6615  0.3138 -2.1286
16270TIP3    H270302   3.077   4.949   5.459  0.5133  1.5758  1.4338
16271TIP3   OH270303   4.666   5.746  10.732  0.2766  0.8886 -0.0170
16271TIP3    H170304   4.751   5.712  10.703 -0.2460 -1.7050  1.2595
16271TIP3    H270305   4.607   5.728  10.659  0.2896  0.3305  0.1098
16272TIP3   OH270306   0.214   1.802   3.610 -0.5839  0.9747 -0.0299
16272TIP3    H170307   0.295   1.844   3.640  0.8531  0.0786 -2.3589
16272TIP3    H270308   0.144   1.856   3.647  0.9774  1.1783  2.9573
16273TIP3   OH270309   1.009   0.293   6.611  0.2145  0.0428  0.2124
16273TIP3    H170310   0.969   0.342   6.683 -1.7988  1.7205 -1.9021
16273TIP3    H270311   1.084   0.346   6.585 -0.2847  0.5383 -0.2394
16274TIP3   OH270312   4.861   0.729  12.593  0.7293  0.2387 -0.4226
16274TIP3    H170313   4.788   0.683  12.633  1.4944  0.9984  2.0364
16274TIP3    H270314   4.931   0.664  12.588  0.9462  0.3998  0.4486
16275TIP3   OH270315   4.048   4.335  16.162  0.5377 -0.0659 -0.3425
16275TIP3    H170316   3.975   4.393  16.140 -0.6445 -1.1323  0.6160
16275TIP3    H270317   4.078   4.366  16.247  1.1008  0.2482 -0.6458
16276TIP3   OH270318   5.422   0.922  11.374  0.4216  0.6102  0.0535
16276TIP3    H170319   5.443   0.949  11.463  0.0981 -2.4773  1.2111
16276TIP3    H270320   5.327   0.911  11.374  0.5794 -1.0690 -0.0756
16277TIP3   OH270321   2.940   5.758  11.313  0.3242 -0.0722 -0.9963
16277TIP3    H170322   2.896   5.673  11.305  0.0705 -0.1240  0.6993
16277TIP3    H270323   2.870   5.822  11.301  0.3619 -0.0982 -1.3918
16278TIP3   OH270324   1.435   1.176  12.640 -0.7902 -0.1436 -0.1631
16278TIP3    H170325   1.410   1.259  12.679 -2.5474 -0.7751  0.1735
16278TIP3    H270326   1.375   1.166  12.565  1.6408  0.4502 -2.3552
16279TIP3   OH270327   0.776   3.191  14.149  0.3787  0.1208 -0.1582
16279TIP3    H170328   0.765   3.213  14.056  1.8365  0.3087 -0.3243
16279TIP3    H270329   0.768   3.096  14.152  0.5454  0.0890 -0.5273
16280TIP3   OH270330   3.374   0.947  14.266 -0.0313  0.3025 -0.9026
16280TIP3    H170331   3.458   0.960  14.221  0.8046 -0.5723  0.3144
16280TIP3    H270332   3.350   1.033  14.299  0.5457  0.5102 -1.0136
16281TIP3   OH270333   3.428   0.068  13.156 -0.0031 -0.4389  0.3983
16281TIP3    H170334   3.507   0.082  13.102 -0.6198 -0.6346 -0.5829
16281TIP3    H270335   3.375   0.146  13.141 -0.6925 -1.0074 -0.2052
16282TIP3   OH270336   0.540   5.689   4.976  0.8881 -0.0289  0.0668
16282TIP3    H170337   0.570   5.614   4.925  1.7719  0.1006  0.3776
16282TIP3    H270338   0.571   5.671   5.065  0.6759  0.4719  0.2441
16283TIP3   OH270339   3.873   2.273   3.523 -0.6124 -0.2850  0.7690
16283TIP3    H170340   3.905   2.300   3.437  2.1954 -0.0385  1.7895
16283TIP3    H270341   3.803   2.335   3.543  1.2971  2.2047  0.2804
16284TIP3   OH270342   3.277   5.045  14.921 -0.4633 -0.3753  0.6472
16284TIP3    H170343   3.348   5.055  14.984 -1.0460 -0.5050  1.3326
16284TIP3    H270344   3.317   4.999  14.847  0.1844 -0.3664  0.9838
16285TIP3   OH270345   0.659   2.995  12.213  0.0350  0.0920  0.1859
16285TIP3    H170346   0.707   3.017  12.133 -0.4460 -0.4094 -0.2469
16285TIP3    H270347   0.617   2.912  12.193  0.2453 -0.2447  1.1121
16286TIP3   OH270348   0.585   4.303   5.729 -0.1675  0.2375  0.3444
16286TIP3    H170349   0.648   4.292   5.801 -0.0124  0.5489  0.2564
16286TIP3    H270350   0.617   4.378   5.680  0.0995 -0.3735 -0.4384
16287TIP3   OH270351   1.707   5.910  12.468  0.6102  0.2759  0.2550
16287TIP3    H170352   1.729   5.818  12.484  0.8133  0.0392 -1.2952
16287TIP3    H270353   1.771   5.940  12.404 -0.6313  0.9216 -0.7408
16288TIP3   OH270354   4.431   6.806  13.893 -0.3651 -0.6061  0.0525
16288TIP3    H170355   4.485   6.881  13.920  1.3400 -1.7527  0.0404
16288TIP3    H270356   4.385   6.780  13.973  0.7259 -0.8540  0.6348
16289TIP3   OH270357   5.516   2.589   5.608  0.2456 -0.7080 -0.2733
16289TIP3    H170358   5.561   2.573   5.691  0.6361 -0.5702 -0.4576
16289TIP3    H270359   5.580   2.635   5.554 -0.4382  0.3641 -0.1932
16290TIP3   OH270360   2.517   5.372   1.336 -0.3072 -0.4794  0.7133
16290TIP3    H170361   2.561   5.379   1.421  0.4324  3.5219  0.1832
16290TIP3    H270362   2.584   5.397   1.273 -1.4938 -1.1019 -0.8460
16291TIP3   OH270363   1.399   0.716   4.488  0.5510  0.2416 -0.0406
16291TIP3    H170364   1.446   0.769   4.553  0.4014  1.4015 -0.8471
16291TIP3    H270365   1.319   0.764   4.471 -1.1304 -1.8245  1.4741
16292TIP3   OH270366   3.988   3.104  16.330 -0.1126 -0.4574 -0.4853
16292TIP3    H170367   4.038   3.180  16.300 -1.7035  1.9164  2.3413
16292TIP3    H270368   4.037   3.070  16.405 -0.4142 -0.9689 -0.5137
16293TIP3   OH270369   5.296   4.482   4.020  0.0236  0.2850 -0.1485
16293TIP3    H170370   5.251   4.403   3.990 -0.2500  0.7824 -1.1061
16293TIP3    H270371   5.231   4.552   4.012  0.3915  0.6845  0.2748
16294TIP3   OH270372   5.447   4.192   2.691  0.5050 -0.0811  0.4558
16294TIP3    H170373   5.359   4.161   2.674 -0.8451  1.6559  3.4331
16294TIP3    H270374   5.451   4.279   2.650  1.0043 -0.3098 -0.0005
16295TIP3   OH270375   2.311   4.836  11.508 -0.8853  0.2653 -0.2110
16295TIP3    H170376   2.337   4.766  11.568  1.3840  1.7149  0.6419
16295TIP3    H270377   2.334   4.802  11.421  2.7973  0.8019  0.3687
16296TIP3   OH270378   4.773   2.009   3.566  0.5983  0.0138 -0.2437
16296TIP3    H170379   4.842   2.035   3.627  1.7057 -0.6816 -1.1458
16296TIP3    H270380   4.734   2.091   3.538  0.3364  0.3606  1.0876
16297TIP3   OH270381   1.975   5.932  15.186 -0.7721 -0.4481  0.3574
16297TIP3    H170382   2.062   5.904  15.214  0.0155  0.9984 -0.5280
16297TIP3    H270383   1.990   6.012  15.136 -2.7679  0.7982  1.5740
16298TIP3   OH270384   3.903   6.581   0.534  0.9401  0.3967 -0.9709
16298TIP3    H170385   3.828   6.637   0.551 -0.1909 -1.8513  2.6020
16298TIP3    H270386   3.975   6.623   0.581  1.1719  0.9577 -1.8101
16299TIP3   OH270387   2.215   3.059  14.467  0.2977 -0.0230  0.1023
16299TIP3    H170388   2.244   3.046  14.557 -0.1013  0.2936  0.2806
16299TIP3    H270389   2.120   3.067  14.474  0.3982  1.7749 -0.1249
16300TIP3   OH270390   5.090   0.378  12.342 -0.0291 -0.0973 -0.2554
16300TIP3    H170391   5.062   0.438  12.411 -0.4899  1.2472 -1.5651
16300TIP3    H270392   5.009   0.352  12.298  0.3587  0.0719 -1.0907
16301TIP3   OH270393   0.424   6.819  11.333 -0.0710  0.7580 -0.7260
16301TIP3    H170394   0.377   6.831  11.416 -1.1235  1.6525 -1.4104
16301TIP3    H270395   0.356   6.792  11.271  0.6632  0.3053 -1.3417
16302TIP3   OH270396   5.077   4.030   3.596  0.0507 -0.2377 -0.0397
16302TIP3    H170397   4.981   4.033   3.599  0.0753  0.1923  0.3715
16302TIP3    H270398   5.105   4.070   3.678  0.6004  0.8477 -0.7318
16303TIP3   OH270399   2.543   6.799   3.348 -0.3307  0.2441  0.0035
16303TIP3    H170400   2.630   6.838   3.357  0.8919 -2.3046 -0.0409
16303TIP3    H270401   2.505   6.805   3.436  0.2550  0.5703  0.2404
16304TIP3   OH270402   0.255   0.822  11.564  0.1825  0.1238 -0.4268
16304TIP3    H170403   0.280   0.739  11.604 -1.2512  0.8061  2.0502
16304TIP3    H270404   0.160   0.820  11.561  0.0509  2.0541  0.6378
16305TIP3   OH270405   6.230   2.955   2.997 -0.0610  0.1606 -0.6313
16305TIP3    H170406   6.155   2.896   2.989  0.8892 -1.2439  0.3908
16305TIP3    H270407   6.301   2.912   2.950  0.9519 -0.0953  1.0238
16306TIP3   OH270408   5.054   6.669  14.471  0.7975  0.5516 -0.0705
16306TIP3    H170409   5.067   6.744  14.530 -1.0278  1.2264 -0.4529
16306TIP3    H270410   5.093   6.696  14.388  2.1158  0.1595  0.3933
16307TIP3   OH270411   5.129   0.697   3.315  0.2254  0.7068  0.0439
16307TIP3    H170412   5.133   0.716   3.409 -1.2312  1.4957 -0.0053
16307TIP3    H270413   5.049   0.742   3.286 -0.8038 -1.6588 -1.0705
16308TIP3   OH270414   4.810   1.017   4.415 -0.6538  0.0336  0.0430
16308TIP3    H170415   4.758   1.055   4.486  0.0758  0.3807  0.4018
16308TIP3    H270416   4.862   1.090   4.382 -0.7426 -0.2048 -0.6340
16309TIP3   OH270417   2.832   3.100   4.762 -0.5601  0.4274 -0.5321
16309TIP3    H170418   2.790   3.066   4.841 -0.1682  0.2951 -0.3807
16309TIP3    H270419   2.780   3.064   4.690 -0.7641  0.3440 -0.3455
16310TIP3   OH270420   1.715   2.591   2.516 -0.5456 -0.0954 -0.3690
16310TIP3    H170421   1.679   2.661   2.462 -1.4210  1.4063  2.0301
16310TIP3    H270422   1.794   2.629   2.554  1.3522 -1.9057 -2.1943
16311TIP3   OH270423   0.888   3.992  14.914  0.1334 -0.1853 -0.1096
16311TIP3    H170424   0.904   3.900  14.895  1.2068 -0.1246  0.4470
16311TIP3    H270425   0.837   3.991  14.995 -0.8535 -0.3149 -0.7217
16312TIP3   OH270426   0.462   2.777   2.375  0.2587  0.0471 -0.1823
16312TIP3    H170427   0.412   2.789   2.456  0.6958  1.0396 -0.0398
16312TIP3    H270428   0.537   2.723   2.402  0.0047 -0.2583 -0.0875
16313TIP3   OH270429   1.476   0.152   1.578 -0.6601  0.2153  0.4217
16313TIP3    H170430   1.562   0.181   1.546 -1.0416 -0.2542 -1.1146
16313TIP3    H270431   1.489   0.061   1.604 -0.6571  0.1884  0.3261
16314TIP3   OH270432   3.303   5.136  11.050 -0.4332  0.2273 -0.6583
16314TIP3    H170433   3.335   5.170  11.134  0.3781 -0.4470 -0.6723
16314TIP3    H270434   3.245   5.064  11.074  0.3834 -0.4526 -0.6701
16315TIP3   OH270435   5.640   3.480  10.967 -0.1061 -0.2959  0.3443
16315TIP3    H170436   5.616   3.485  10.874  1.3532  1.5516  0.0114
16315TIP3    H270437   5.705   3.410  10.971 -0.2910 -0.4921  0.0129
16316TIP3   OH270438   2.389   2.048  12.044  0.1794  0.0169  0.0367
16316TIP3    H170439   2.450   2.048  12.118 -0.5159  1.7280  0.6767
16316TIP3    H270440   2.328   1.977  12.062 -0.3480  0.8000  1.4572
16317TIP3   OH270441   4.611   2.708  14.674 -0.4519  0.6026 -0.4347
16317TIP3    H170442   4.630   2.720  14.581  0.9296 -0.4769 -0.3224
16317TIP3    H270443   4.559   2.785  14.698 -0.7256  0.9601 -2.0592
16318TIP3   OH270444   0.661   1.835   2.110 -0.4136  0.4456  0.4247
16318TIP3    H170445   0.639   1.777   2.182  0.8409 -0.0050  0.4713
16318TIP3    H270446   0.588   1.824   2.048 -0.1817 -1.2521  0.3925
16319TIP3   OH270447   1.511   4.477  14.250  0.5112  0.1565 -0.5133
16319TIP3    H170448   1.444   4.501  14.314 -2.3596 -0.6298 -3.0019
16319TIP3    H270449   1.511   4.381  14.250 -0.8903  0.0807 -2.8322
16320TIP3   OH270450   2.447   1.668   1.225  0.3499 -0.6890 -0.0552
16320TIP3    H170451   2.421   1.576   1.226 -0.2141 -0.5885  2.6003
16320TIP3    H270452   2.439   1.694   1.134 -1.8634 -2.6135 -0.5150
16321TIP3   OH270453   2.050   5.874   0.764  0.1993 -0.0246  0.5377
16321TIP3    H170454   2.002   5.949   0.799  0.9697  0.5560  0.3644
16321TIP3    H270455   2.109   5.848   0.835 -0.5969 -0.9551  0.8767
16322TIP3   OH270456   3.001   5.372   0.352  0.4649  0.4760 -0.5113
16322TIP3    H170457   2.968   5.315   0.283 -1.7888 -0.1077  0.9337
16322TIP3    H270458   3.072   5.322   0.393 -0.9195 -1.0126  0.1890
16323TIP3   OH270459   0.872   3.467  16.331 -0.0690 -0.3542  0.1866
16323TIP3    H170460   0.916   3.485  16.413 -2.1579  0.1989  1.2585
16323TIP3    H270461   0.783   3.441  16.357 -0.3769 -1.5613 -1.8351
16324TIP3   OH270462   6.271   3.233  13.551  0.4147  0.2961 -0.2168
16324TIP3    H170463   6.178   3.236  13.574  0.3486  0.2274 -0.4716
16324TIP3    H270464   6.274   3.180  13.472  0.5476  1.1754 -0.8206
16325TIP3   OH270465   2.328   4.659   0.958  0.1053  0.4494  0.8526
16325TIP3    H170466   2.345   4.741   0.912  0.9306  0.7225  1.6264
16325TIP3    H270467   2.235   4.663   0.980 -0.6192 -0.2012 -1.7387
16326TIP3   OH270468   4.251   4.060  14.031  0.5123 -0.2423  0.3572
16326TIP3    H170469   4.338   4.097  14.011  0.1817 -0.1163 -0.9573
16326TIP3    H270470   4.263   3.966  14.023  0.1157 -0.1686 -1.8679
16327TIP3   OH270471   0.086   3.577   4.916  0.0443 -0.4687 -0.0283
16327TIP3    H170472   0.146   3.503   4.921  1.4560  0.6441  0.4375
16327TIP3    H270473   0.020   3.560   4.984  0.3187 -1.3071  0.0366
16328TIP3   OH270474   2.443   0.804   2.713 -0.1859  0.0556 -0.1400
16328TIP3    H170475   2.470   0.714   2.695 -0.7803 -0.2421  0.3984
16328TIP3    H270476   2.432   0.844   2.627  2.0928  0.2512 -0.3853
16329TIP3   OH270477   5.505   6.420  13.208  0.2441 -0.0757  0.6949
16329TIP3    H170478   5.540   6.339  13.243  1.6397  0.7258  1.2506
16329TIP3    H270479   5.463   6.463  13.282  1.5607  0.7543  1.0075
16330TIP3   OH270480   5.625   4.144   4.497  0.4987  0.0933  0.5659
16330TIP3    H170481   5.670   4.150   4.581  1.8078 -0.9090 -0.0165
16330TIP3    H270482   5.563   4.072   4.508  0.3674  0.2452  0.8061
16331TIP3   OH270483   2.965   3.035   0.662  0.6291  0.8141 -0.7626
16331TIP3    H170484   2.957   3.128   0.682 -0.4582  0.2646  1.6089
16331TIP3    H270485   2.883   2.997   0.692  1.7022 -1.1545 -0.1741
16332TIP3   OH270486   4.119   2.879  14.827 -0.1121 -0.3186 -0.3593
16332TIP3    H170487   4.165   2.850  14.906 -1.3446 -3.8821 -0.7790
16332TIP3    H270488   4.042   2.924  14.859  0.3312 -0.1106  0.4380
16333TIP3   OH270489   4.021   0.582   1.065  0.3524 -0.0766 -0.4389
16333TIP3    H170490   4.030   0.499   1.017 -2.4985  0.3878 -2.0090
16333TIP3    H270491   4.049   0.649   1.002 -1.8433  0.4171 -0.9819
16334TIP3   OH270492   4.021   6.331   0.181 -0.0570  0.7566 -0.3479
16334TIP3    H170493   3.992   6.302   0.268  0.2228  1.3465 -0.0545
16334TIP3    H270494   3.969   6.410   0.164 -2.5647 -1.1232 -2.1605
16335TIP3   OH270495   3.499   1.381  11.185 -0.2070  0.0983  0.3006
16335TIP3    H170496   3.520   1.376  11.279 -0.1596  1.6210  0.3975
16335TIP3    H270497   3.518   1.294  11.152  2.8543  0.3544  1.0926
16336TIP3   OH270498   3.730   1.242  16.774 -0.2104  0.0042 -0.1047
16336TIP3    H170499   3.737   1.337  16.781  2.5454 -0.0875 -0.4310
16336TIP3    H270500   3.817   1.214  16.747 -0.8132 -2.6680  0.4549
16337TIP3   OH270501   6.673   1.805   2.020 -0.6189  0.1252  0.2596
16337TIP3    H170502   6.595   1.755   2.041  0.2528 -2.4870 -2.1114
16337TIP3    H270503   6.746   1.751   2.052  0.3109  0.6231 -0.9122
16338TIP3   OH270504   1.479   3.335   2.336  0.2237 -0.5216  0.0666
16338TIP3    H170505   1.411   3.362   2.397  1.5634 -3.3791  3.1168
16338TIP3    H270506   1.433   3.284   2.269 -0.8177 -0.9874  1.1204
16339TIP3   OH270507   6.670   0.427   4.772  0.5343 -0.3645  0.6749
16339TIP3    H170508   6.577   0.447   4.757  0.3025 -1.9577 -0.2097
16339TIP3    H270509   6.710   0.433   4.686  1.3530  0.6616  1.1076
16340TIP3   OH270510   6.643   1.671   5.248  0.1572 -0.4239  0.3193
16340TIP3    H170511   6.684   1.625   5.322 -0.0969  0.7818  1.2355
16340TIP3    H270512   6.572   1.721   5.288  0.9692  1.4514 -0.4981
16341TIP3   OH270513   4.386   1.440   2.568 -0.1373 -0.5153  0.5211
16341TIP3    H170514   4.442   1.365   2.550  2.2449  0.8014  1.8984
16341TIP3    H270515   4.379   1.486   2.484  3.5864  0.9234  0.7808
16342TIP3   OH270516   6.146   0.670  11.095 -0.2647  0.4147  0.3912
16342TIP3    H170517   6.151   0.584  11.052 -1.3352  0.4524  0.1712
16342TIP3    H270518   6.233   0.707  11.083  0.6150 -1.1402  1.5901
16343TIP3   OH270519   6.770   3.703   4.154 -0.0336 -0.0036  0.2282
16343TIP3    H170520   6.751   3.634   4.218  1.7845  0.0299  0.8675
16343TIP3    H270521   6.798   3.656   4.076 -0.3982 -0.0259  0.1142
16344TIP3   OH270522   4.435   6.235   5.366  0.3389 -0.4469 -0.2932
16344TIP3    H170523   4.501   6.209   5.430 -0.0905  0.7009  0.6386
16344TIP3    H270524   4.480   6.229   5.281  1.7156  0.5144  0.3366
16345TIP3   OH270525   1.430   0.848   4.731  0.1015  0.0468 -0.2040
16345TIP3    H170526   1.507   0.837   4.788 -1.0125  0.0158  1.3422
16345TIP3    H270527   1.363   0.794   4.770 -0.3002 -1.2024 -2.4444
16346TIP3   OH270528   1.828   3.277   1.481 -0.1213  0.4443 -0.8896
16346TIP3    H170529   1.908   3.285   1.430 -0.4959  0.1440 -1.5275
16346TIP3    H270530   1.848   3.320   1.564  0.5413  0.7892 -1.2258
16347TIP3   OH270531   6.056   6.183  12.573  0.6433 -0.1882  0.2886
16347TIP3    H170532   6.148   6.159  12.560  1.1931  1.1048  1.4673
16347TIP3    H270533   6.038   6.246  12.504  1.0918  0.5982  0.8683
16348TIP3   OH270534   6.188   6.447  12.359  0.2734  0.2197 -0.2522
16348TIP3    H170535   6.153   6.399  12.283 -0.5969  0.7990 -0.2321
16348TIP3    H270536   6.215   6.532  12.323 -0.0110  0.4438  0.0518
16349TIP3   OH270537   3.565   3.224   0.646 -0.1737 -0.4286 -0.4839
16349TIP3    H170538   3.640   3.280   0.625 -0.7486  0.3526 -0.5049
16349TIP3    H270539   3.600   3.135   0.645  0.8955 -0.0315  0.1416
16350TIP3   OH270540   5.938   5.428  11.744  0.3590  0.1133  0.0298
16350TIP3    H170541   5.848   5.438  11.774  0.5553  1.4896  0.2074
16350TIP3    H270542   5.979   5.512  11.762  1.0056  0.3933 -2.3712
16351TIP3   OH270543   1.861   2.320   1.360  0.3728 -0.5488  0.3897
16351TIP3    H170544   1.936   2.262   1.371  0.9362  0.2894  1.1774
16351TIP3    H270545   1.882   2.374   1.284  2.3558  2.1611  2.6104
16352TIP3   OH270546   4.617   0.147   1.703  0.2817  0.7518 -0.0423
16352TIP3    H170547   4.643   0.239   1.708  0.2055  0.8105 -0.6047
16352TIP3    H270548   4.613   0.129   1.609 -2.1893  0.8873 -0.0244
16353TIP3   OH270549   0.335   5.991  15.382  0.0573 -0.6671  0.1482
16353TIP3    H170550   0.386   5.930  15.330 -0.4090  0.7442 -2.1285
16353TIP3    H270551   0.397   6.060  15.406 -0.2473 -0.1021 -0.6519
16354TIP3   OH270552   2.830   4.302   2.514 -0.0830 -0.8650 -0.3618
16354TIP3    H170553   2.802   4.322   2.604  1.8694 -0.4502  0.2004
16354TIP3    H270554   2.761   4.245   2.480 -0.9503 -0.9197  1.3568
16355TIP3   OH270555   5.404   2.732  15.386  0.1253 -0.4502  0.2137
16355TIP3    H170556   5.324   2.760  15.430  0.6773  1.6559 -0.0258
16355TIP3    H270557   5.385   2.643  15.357 -1.9264 -0.2012  0.6197
16356TIP3   OH270558   0.154   6.697  10.744  0.0156  0.5115  0.1263
16356TIP3    H170559   0.180   6.634  10.676 -1.5944 -1.4480  1.2143
16356TIP3    H270560   0.236   6.735  10.774  1.6948 -3.7833  1.9200
16357TIP3   OH270561   0.589   2.848  15.563  0.3903 -1.1788 -0.4081
16357TIP3    H170562   0.628   2.831  15.648  0.0704 -0.2353 -0.0501
16357TIP3    H270563   0.497   2.867  15.582  0.3057 -1.0008 -0.9633
16358TIP3   OH270564   2.618   1.187   0.667 -0.0404 -0.5058 -0.0814
16358TIP3    H170565   2.608   1.221   0.578  0.8618  0.6597  0.2451
16358TIP3    H270566   2.592   1.095   0.660 -0.3111 -0.3481 -1.4752
16359TIP3   OH270567   0.341   0.630   5.130 -0.4822  0.5450 -0.4246
16359TIP3    H170568   0.367   0.574   5.204 -1.1027  1.7052  0.7112
16359TIP3    H270569   0.367   0.718   5.156  0.5789  0.8153 -2.2366
16360TIP3   OH270570   2.165   3.833   5.105 -0.2700  0.3348  0.0169
16360TIP3    H170571   2.190   3.882   5.027 -0.4892  1.2632  0.5111
16360TIP3    H270572   2.236   3.769   5.117 -0.6797 -0.4297 -1.4321
16361TIP3   OH270573   2.243   4.728   0.079 -0.3685 -0.3260 -0.2382
16361TIP3    H170574   2.238   4.804   0.137 -1.6436 -0.5599 -0.0294
16361TIP3    H270575   2.336   4.703   0.082  0.1880  1.5246 -0.7464
16362TIP3   OH270576   3.136   5.491   6.560  0.1514  0.0985 -0.5914
16362TIP3    H170577   3.212   5.542   6.532  0.3725  0.0812 -0.0384
16362TIP3    H270578   3.093   5.546   6.626  0.2207 -0.2917 -0.2136
16363TIP3   OH270579   5.820   5.523  12.724  0.1327  0.0079  0.4910
16363TIP3    H170580   5.861   5.572  12.653 -1.3830  1.1921  0.3867
16363TIP3    H270581   5.893   5.500  12.782  1.2025  0.2502 -0.7148
16364TIP3   OH270582   0.110   0.829  10.630 -0.2637 -0.0054 -0.2271
16364TIP3    H170583   0.135   0.918  10.606 -0.4584  0.5201  1.4242
16364TIP3    H270584   0.014   0.832  10.639 -0.2199 -0.2206  0.3883
16365TIP3   OH270585   5.952   1.671   0.226 -0.2975  0.4140 -0.1503
16365TIP3    H170586   6.006   1.593   0.218 -0.2666  0.5174 -1.0164
16365TIP3    H270587   5.960   1.715   0.142 -0.7792  1.0523  0.1252
16366TIP3   OH270588   0.246   4.752  14.691 -0.1810 -0.0261  0.0578
16366TIP3    H170589   0.305   4.825  14.672 -1.8237  1.5137  0.6263
16366TIP3    H270590   0.209   4.773  14.777 -2.4524 -0.2732 -0.8048
16367TIP3   OH270591   6.213   0.375  16.034  0.4963 -0.2227 -0.0672
16367TIP3    H170592   6.124   0.344  16.050  1.4201 -2.6789  0.7121
16367TIP3    H270593   6.246   0.318  15.964  2.0141 -0.4936  0.8372
16368TIP3   OH270594   6.321   6.265   4.264 -0.1614 -0.0766 -0.4759
16368TIP3    H170595   6.258   6.300   4.201  0.8024  0.4017 -1.2085
16368TIP3    H270596   6.385   6.335   4.275  1.7429 -1.4771 -1.8813
16369TIP3   OH270597   2.233   5.446  11.879 -0.1674  0.2273  0.2385
16369TIP3    H170598   2.269   5.453  11.967  1.3492 -0.6601 -0.2803
16369TIP3    H270599   2.271   5.366  11.844 -1.5649  0.0147 -0.8648
16370TIP3   OH270600   2.988   5.977   3.706 -0.3074  0.2874 -0.2219
16370TIP3    H170601   2.977   5.928   3.624 -1.0454  1.2532 -0.7188
16370TIP3    H270602   2.942   5.924   3.772 -0.2798 -0.1579 -0.5542
16371TIP3   OH270603   5.218   4.858  11.204  0.0664 -0.0846 -0.3535
16371TIP3    H170604   5.164   4.860  11.125  1.1046  1.2846 -1.0659
16371TIP3    H270605   5.225   4.949  11.230  1.2248 -0.3439  0.2801
16372TIP3   OH270606   4.936   2.507   0.490  0.1198 -0.3737 -0.2366
16372TIP3    H170607   4.984   2.563   0.430  0.7534  0.4845  1.0286
16372TIP3    H270608   4.959   2.417   0.464  0.8099 -0.0074 -0.9160
16373TIP3   OH270609   4.854   2.417   5.005 -0.2174 -0.6446  0.5424
16373TIP3    H170610   4.857   2.398   5.099 -1.9542  0.2833  0.8332
16373TIP3    H270611   4.862   2.332   4.962  1.2094 -1.0277  1.4840
16374TIP3   OH270612   5.727   6.741   2.196 -0.0481  0.6065 -0.1878
16374TIP3    H170613   5.670   6.810   2.229  0.8759  0.7928  1.1156
16374TIP3    H270614   5.706   6.734   2.103 -1.9404  0.8854  0.1689
16375TIP3   OH270615   3.733   1.341   0.631 -0.2037 -0.3081 -0.1517
16375TIP3    H170616   3.824   1.315   0.645 -0.0252  0.0136 -0.6634
16375TIP3    H270617   3.712   1.397   0.706 -0.2246 -0.9817  0.3552
16376TIP3   OH270618   5.753   1.626   4.491 -0.2909  0.6209 -0.2293
16376TIP3    H170619   5.790   1.555   4.439 -0.8568 -0.7449  1.1452
16376TIP3    H270620   5.815   1.699   4.481 -0.1969  0.3068 -2.4544
16377TIP3   OH270621   2.700   0.625   5.080  0.4394 -0.3372  0.3699
16377TIP3    H170622   2.768   0.569   5.118 -0.2368 -1.5455 -0.1157
16377TIP3    H270623   2.683   0.691   5.146  0.7981 -1.1153  1.2696
16378TIP3   OH270624   2.565   5.913  16.165  0.3470 -0.6091  0.0429
16378TIP3    H170625   2.629   5.978  16.139 -0.2078 -0.7384 -1.7625
16378TIP3    H270626   2.616   5.844  16.207  1.2992 -0.3676 -0.6980
16379TIP3   OH270627   6.739   6.553  13.333  0.4586  0.2230 -0.1434
16379TIP3    H170628   6.660   6.523  13.287  0.1455  0.1312  0.4499
16379TIP3    H270629   6.771   6.475  13.378  0.8211  0.2917 -0.2760
16380TIP3   OH270630   3.251   0.367   3.400 -0.8199  0.2399  0.1037
16380TIP3    H170631   3.233   0.354   3.307 -0.8489 -0.1719  0.1656
16380TIP3    H270632   3.302   0.290   3.425 -1.8341 -0.2483  0.7116
16381TIP3   OH270633   0.191   5.379  12.768 -0.1172  0.3470 -0.3834
16381TIP3    H170634   0.244   5.381  12.848  1.9589  1.4944 -1.7094
16381TIP3    H270635   0.150   5.293  12.769  0.2242  0.1558  1.6743
16382TIP3   OH270636   0.105   3.273   1.354 -0.7620  0.5280 -0.9463
16382TIP3    H170637   0.093   3.364   1.329  0.5012  1.1292  0.5066
16382TIP3    H270638   0.053   3.262   1.434  1.0305  0.7178  0.3112
16383TIP3   OH270639   3.696   6.229   3.120 -0.2631  0.5052  0.5103
16383TIP3    H170640   3.644   6.160   3.161  1.1727 -1.2113 -0.4046
16383TIP3    H270641   3.774   6.236   3.175  1.1182 -0.9864 -1.0962
16384TIP3   OH270642   2.707   0.480  14.055  0.1081 -0.4088  0.3483
16384TIP3    H170643   2.741   0.411  13.998  1.7596 -0.8437  1.7431
16384TIP3    H270644   2.700   0.438  14.141 -0.2333  0.7816  0.9258
16385TIP3   OH270645   1.755   0.974   2.226  0.0504 -0.6005 -0.4448
16385TIP3    H170646   1.807   0.920   2.286 -1.6383 -1.4761  0.3014
16385TIP3    H270647   1.684   1.009   2.280 -1.2903 -1.0909 -1.8182
16386TIP3   OH270648   0.082   6.804  13.409  0.2299  0.0583  0.2388
16386TIP3    H170649   0.055   6.728  13.358  0.3869  0.6020 -0.6782
16386TIP3    H270650   0.173   6.820  13.384  1.1085 -1.0592  2.4476
16387TIP3   OH270651   6.367   1.848   2.396  0.2381  0.2579  0.5620
16387TIP3    H170652   6.297   1.885   2.343 -0.7093 -1.3993  0.5869
16387TIP3    H270653   6.447   1.883   2.358 -0.5428  1.1598 -0.2943
16388TIP3   OH270654   3.513   4.793   3.387 -0.4440  0.0375  0.3007
16388TIP3    H170655   3.563   4.743   3.323  0.9928  0.1971  1.2531
16388TIP3    H270656   3.537   4.884   3.370 -3.3336  0.5830 -1.6813
16389TIP3   OH270657   1.818   3.161  17.095  0.3057  0.1174  0.0422
16389TIP3    H170658   1.768   3.241  17.108 -2.5093 -0.7382 -3.7242
16389TIP3    H270659   1.885   3.184  17.031  1.7295  0.1420  1.4822
16390TIP3   OH270660   5.604   6.256   6.475  0.2404  0.0866 -0.1961
16390TIP3    H170661   5.695   6.226   6.476  0.7824  1.6732  0.0298
16390TIP3    H270662   5.609   6.351   6.470 -1.4091  0.2588  0.5004
16391TIP3   OH270663   4.523   3.940   1.542  0.3182  0.0823 -0.4956
16391TIP3    H170664   4.467   3.895   1.605 -0.7275  0.5572 -1.0582
16391TIP3    H270665   4.566   4.009   1.594 -0.3170  0.2893 -0.2340
16392TIP3   OH270666   1.049   1.041   5.851 -0.0275 -0.1401  0.1919
16392TIP3    H170667   1.006   1.020   5.769 -0.1910  0.8413  0.0164
16392TIP3    H270668   0.984   1.019   5.919 -0.3014  0.0682 -0.0013
16393TIP3   OH270669   2.850   2.225   0.209  0.4253 -0.1837  0.1449
16393TIP3    H170670   2.895   2.145   0.236 -0.5327 -0.2949  1.5235
16393TIP3    H270671   2.758   2.199   0.201  0.3324  0.4333 -0.9150
16394TIP3   OH270672   0.651   3.470  14.596  0.0979 -0.3958  0.1552
16394TIP3    H170673   0.631   3.413  14.671  0.1916  0.3881  0.7916
16394TIP3    H270674   0.612   3.425  14.521 -1.7809 -0.2237  0.9638
16395TIP3   OH270675   4.200   1.779   1.838 -0.5850 -0.7764  0.6403
16395TIP3    H170676   4.148   1.851   1.876  0.5351 -0.4255  1.5641
16395TIP3    H270677   4.160   1.763   1.753 -0.7170  1.1011  0.3111
16396TIP3   OH270678   5.808   0.576  17.002  0.3869 -0.5324 -0.1205
16396TIP3    H170679   5.736   0.640  17.004 -0.6030 -1.5755 -1.0043
16396TIP3    H270680   5.781   0.508  17.064  0.0775 -1.4500 -1.2296
16397TIP3   OH270681   6.522   2.822   2.417  0.2747 -0.1149  0.4154
16397TIP3    H170682   6.560   2.886   2.478  1.1482  0.3460 -0.5704
16397TIP3    H270683   6.430   2.845   2.412  0.4281  0.5842  0.6840
16398TIP3   OH270684   0.906   2.908   0.635 -0.1715 -0.1107 -0.2444
16398TIP3    H170685   0.907   2.851   0.559 -1.8454 -1.0163  0.3489
16398TIP3    H270686   0.850   2.863   0.698 -0.5928  1.6286  0.7024
16399TIP3   OH270687   6.274   3.381   3.573 -0.1357 -0.2796 -0.5495
16399TIP3    H170688   6.269   3.322   3.498 -2.3586 -0.9527  0.0395
16399TIP3    H270689   6.188   3.422   3.578 -0.5541 -1.2217  2.3368
16400TIP3   OH270690   5.789   1.154  10.455 -0.0565  0.1715 -0.2606
16400TIP3    H170691   5.772   1.063  10.430  0.3455  0.6427 -2.5149
16400TIP3    H270692   5.737   1.168  10.534  1.4872 -2.5837  1.4041
16401TIP3   OH270693   5.752   4.311  13.586  0.0122 -0.1730 -0.0636
16401TIP3    H170694   5.752   4.404  13.608 -0.8583 -0.1174 -0.2370
16401TIP3    H270695   5.830   4.299  13.531 -0.9918  0.9281 -1.8379
16402TIP3   OH270696   6.241   4.423  15.628  0.7587 -0.1312 -0.2888
16402TIP3    H170697   6.277   4.354  15.573 -1.5862 -1.5296 -0.1867
16402TIP3    H270698   6.253   4.390  15.718 -0.9591 -0.7896 -0.2638
16403TIP3   OH270699   1.485   3.681  16.079  0.5590 -0.2694 -0.0730
16403TIP3    H170700   1.522   3.692  16.166 -1.3317  0.0237  0.7369
16403TIP3    H270701   1.558   3.698  16.019  2.9860 -4.1217  1.3742
16404TIP3   OH270702   1.466   5.581  12.947  0.5388 -0.4945  0.8342
16404TIP3    H170703   1.441   5.529  12.870  0.6001  1.7961 -0.8444
16404TIP3    H270704   1.554   5.551  12.968  0.7781 -0.7522 -0.4177
16405TIP3   OH270705   5.695   0.309   0.196 -0.1979 -0.1479 -0.1700
16405TIP3    H170706   5.693   0.404   0.198  0.6053 -0.1315  0.3852
16405TIP3    H270707   5.664   0.286   0.108 -2.1359  0.5467  0.2946
16406TIP3   OH270708   0.885   5.353  16.768 -0.3511 -0.2777  0.1379
16406TIP3    H170709   0.855   5.378  16.856 -0.3415  0.8281 -0.1574
16406TIP3    H270710   0.975   5.324  16.782 -0.5777 -0.7931  0.5907
16407TIP3   OH270711   3.247   6.335   4.168  0.0217 -0.0771  0.0901
16407TIP3    H170712   3.164   6.298   4.200  0.9326 -1.3863  1.0575
16407TIP3    H270713   3.285   6.266   4.115  0.5203  0.5157 -0.3322
16408TIP3   OH270714   5.720   6.389   5.601 -0.0119  0.3077  0.2810
16408TIP3    H170715   5.652   6.380   5.534 -1.1419  0.4645  1.3736
16408TIP3    H270716   5.764   6.304   5.602  0.0883  0.3321 -0.7082
16409TIP3   OH270717   3.542   2.353  14.154  0.1737 -0.1187  0.5737
16409TIP3    H170718   3.486   2.301  14.096 -0.5633  1.8408 -0.5385
16409TIP3    H270719   3.630   2.342  14.118 -0.2459  0.8946 -0.8253
16410TIP3   OH270720   1.323   6.635  15.093 -1.2055 -0.1381 -0.5885
16410TIP3    H170721   1.233   6.624  15.062 -1.6190 -0.9002  0.8003
16410TIP3    H270722   1.329   6.577  15.168 -0.0371  1.1195  0.3263
16411TIP3   OH270723   0.684   5.581  13.542 -0.0288 -0.4354 -0.2654
16411TIP3    H170724   0.730   5.661  13.516  1.1713 -1.7420 -2.6054
16411TIP3    H270725   0.755   5.517  13.557 -0.8786 -0.7430  3.0439
16412TIP3   OH270726   5.273   6.362  15.993 -0.3738 -0.4598  0.4603
16412TIP3    H170727   5.218   6.389  16.067 -0.3477  1.8567 -0.2875
16412TIP3    H270728   5.224   6.291  15.952 -2.4716  0.9578  0.3229
16413TIP3   OH270729   3.031   4.351  13.393 -0.3979 -0.7351  0.6607
16413TIP3    H170730   2.946   4.318  13.423 -1.4967  0.8845 -0.4158
16413TIP3    H270731   3.008   4.430  13.343  1.7508 -0.3614  0.1895
16414TIP3   OH270732   3.361   2.636  16.015 -0.0556  0.6638 -0.1956
16414TIP3    H170733   3.434   2.670  16.066  0.0019  0.4426 -0.1263
16414TIP3    H270734   3.308   2.586  16.078  0.0233  0.3792 -0.3505
16415TIP3   OH270735   5.100   1.074   2.058 -0.4139  0.2124  0.0901
16415TIP3    H170736   5.179   1.083   2.112 -2.3011  1.8975  2.8867
16415TIP3    H270737   5.109   1.141   1.991  0.4185  0.6222  0.5922
16416TIP3   OH270738   0.163   5.701   4.628 -0.1438 -0.0673 -0.2131
16416TIP3    H170739   0.115   5.661   4.701  0.7177  0.3489  0.5988
16416TIP3    H270740   0.110   5.776   4.603 -1.5794 -1.4470 -1.4933
16417TIP3   OH270741   3.897   3.787   2.257 -0.3768 -0.0585  0.0280
16417TIP3    H170742   3.818   3.769   2.307  0.5167 -0.7407  1.2398
16417TIP3    H270743   3.920   3.877   2.279  0.2084 -0.4674  1.1749
16418TIP3   OH270744   3.836   4.300  15.514 -0.4379  0.0074 -0.6595
16418TIP3    H170745   3.806   4.391  15.516 -1.8648 -0.4432 -0.4581
16418TIP3    H270746   3.755   4.249  15.510  0.3057 -1.2977  0.4516
16419TIP3   OH270747   5.011   2.579   4.765 -0.5792 -0.2887 -0.2225
16419TIP3    H170748   4.979   2.511   4.824 -0.7385  1.1993  1.4840
16419TIP3    H270749   4.971   2.659   4.798  1.8990  1.0789 -0.3549
16420TIP3   OH270750   6.376   2.317   0.829  0.1091 -1.0242 -0.6942
16420TIP3    H170751   6.424   2.389   0.870 -1.9643  0.2367 -0.3538
16420TIP3    H270752   6.400   2.240   0.881  0.4348 -0.1272  0.5285
16421TIP3   OH270753   5.616   1.901  11.972 -0.2401 -0.6455 -0.3167
16421TIP3    H170754   5.579   1.889  11.884  1.8980  0.0741 -1.4125
16421TIP3    H270755   5.607   1.994  11.989  0.0833 -0.6408 -0.1574
16422TIP3   OH270756   4.517   4.517  13.650  0.3478 -0.1158  0.2521
16422TIP3    H170757   4.446   4.517  13.586 -0.3386  0.7067  0.9962
16422TIP3    H270758   4.529   4.609  13.674  0.3378 -0.4332  1.5650
16423TIP3   OH270759   1.725   5.203   3.136  0.2099 -0.0881  0.3777
16423TIP3    H170760   1.751   5.155   3.058  0.1090  1.1612 -0.4520
16423TIP3    H270761   1.629   5.203   3.134  0.2132  0.3918  0.2206
16424TIP3   OH270762   5.112   3.136  13.165  0.3669  0.4463  0.4903
16424TIP3    H170763   5.020   3.126  13.191  0.6678 -2.1179  0.8400
16424TIP3    H270764   5.160   3.139  13.247  0.7161  0.0603  0.3045
16425TIP3   OH270765   3.561   0.143   0.799  0.0202  0.2092  0.6389
16425TIP3    H170766   3.581   0.137   0.706 -1.4350 -2.3109  0.3910
16425TIP3    H270767   3.637   0.187   0.837  0.3776  1.8769 -1.7791
16426TIP3   OH270768   2.960   1.935  16.953  0.4309 -0.7564  0.0625
16426TIP3    H170769   3.049   1.946  16.986 -0.0281  1.1321  0.8473
16426TIP3    H270770   2.936   1.845  16.975  1.6282 -0.8244  1.1849
16427TIP3   OH270771   5.863   2.806   6.354 -0.0714  0.1301 -0.0638
16427TIP3    H170772   5.918   2.872   6.397  0.9592 -1.1739  0.7222
16427TIP3    H270773   5.784   2.803   6.408  0.6560 -0.5481  1.0275
16428TIP3   OH270774   0.941   6.052  16.021 -0.3892 -0.1345  0.1257
16428TIP3    H170775   0.979   5.970  15.989 -0.7813  0.3592 -1.7272
16428TIP3    H270776   0.905   6.030  16.107  2.9690 -0.9215  1.4716
16429TIP3   OH270777   2.858   0.838   4.806  0.0608 -0.0962  0.1439
16429TIP3    H170778   2.873   0.895   4.882 -1.9583  1.7601 -0.7364
16429TIP3    H270779   2.765   0.817   4.809 -0.0547 -0.0431 -1.7514
16430TIP3   OH270780   2.439   6.812   2.250 -0.0326  0.3334  0.5654
16430TIP3    H170781   2.502   6.755   2.207 -0.8185 -1.5725  1.8147
16430TIP3    H270782   2.435   6.890   2.194  0.7924 -0.9741 -1.4218
16431TIP3   OH270783   2.815   5.731   5.769 -0.1124 -0.3032  0.1256
16431TIP3    H170784   2.859   5.811   5.740 -2.8242  1.0513 -0.5929
16431TIP3    H270785   2.844   5.663   5.707 -0.7119  1.0463 -1.7227
16432TIP3   OH270786   3.897   2.345   5.550  0.9716 -0.5331 -0.3133
16432TIP3    H170787   3.846   2.269   5.524 -1.4531  0.6057  0.7439
16432TIP3    H270788   3.973   2.345   5.492  0.1251 -2.7130 -1.5308
16433TIP3   OH270789   4.236   4.905   5.267 -0.6596  0.0849 -0.4136
16433TIP3    H170790   4.245   4.991   5.308 -1.5477  1.3342 -2.6447
16433TIP3    H270791   4.192   4.922   5.183 -0.9139 -2.5587 -0.9304
16434TIP3   OH270792   5.746   2.004   0.941 -0.2277 -0.1440 -0.4735
16434TIP3    H170793   5.747   1.973   0.850  1.7150  0.5615 -0.7352
16434TIP3    H270794   5.731   1.925   0.993  0.0800 -0.7826 -1.3351
16435TIP3   OH270795   0.066   6.650  13.641  0.0757  0.5422 -0.5354
16435TIP3    H170796   0.158   6.624  13.633 -0.3424 -1.1196 -0.3340
16435TIP3    H270797   0.049   6.702  13.562  0.5849 -1.1207 -1.7961
16436TIP3   OH270798   5.868   6.278   3.719  0.2760  0.3580 -0.4344
16436TIP3    H170799   5.952   6.262   3.676  1.4190  1.7773  1.1518
16436TIP3    H270800   5.835   6.359   3.680  0.7889  1.0509  0.5149
16437TIP3   OH270801   5.069   1.617  16.508  0.3816 -0.4851 -0.2963
16437TIP3    H170802   5.111   1.548  16.456  1.6410  0.4702 -0.5745
16437TIP3    H270803   5.024   1.671  16.443  0.3953 -0.3621 -0.2035
16438TIP3   OH270804   4.378   6.427   1.517 -0.3767 -0.1969 -0.1223
16438TIP3    H170805   4.321   6.487   1.469  0.6189 -0.3218 -1.5288
16438TIP3    H270806   4.394   6.355   1.456  0.5214 -0.6175  0.5808
16439TIP3   OH270807   0.972   0.375  16.405 -0.5940 -0.2798  0.0118
16439TIP3    H170808   1.050   0.330  16.438 -0.4711 -0.6720 -0.8065
16439TIP3    H270809   0.902   0.348  16.465 -0.6350 -1.9731 -0.7429
16440TIP3   OH270810   5.863   1.836  13.060 -0.2658  0.5523  0.3557
16440TIP3    H170811   5.819   1.871  12.982 -2.6724  0.7936  1.7215
16440TIP3    H270812   5.839   1.744  13.061  2.0514 -0.1337 -0.5982
16441TIP3   OH270813   1.062   5.834  13.065 -0.3490  0.2208 -0.3227
16441TIP3    H170814   1.134   5.788  13.108  0.6777  0.9325 -1.2072
16441TIP3    H270815   1.104   5.908  13.021 -1.6408  0.6923 -0.8129
16442TIP3   OH270816   5.043   2.574   4.047 -0.0597  0.0180 -0.1926
16442TIP3    H170817   5.077   2.554   4.134  1.4247  0.5412 -0.6137
16442TIP3    H270818   4.964   2.521   4.039  1.3113 -2.2191  0.3834
16443TIP3   OH270819   5.003   5.274   1.841 -0.1685  0.0542  0.1710
16443TIP3    H170820   4.989   5.310   1.928  0.7718 -0.0332  0.3773
16443TIP3    H270821   4.986   5.180   1.851  4.0040 -0.8082  1.4087
16444TIP3   OH270822   2.919   2.476  11.077  0.0605 -0.1131 -0.5295
16444TIP3    H170823   2.966   2.549  11.037  0.6727 -0.7985 -1.0675
16444TIP3    H270824   2.827   2.505  11.078  0.0029 -0.0870 -2.4778
16445TIP3   OH270825   5.361   1.731   4.173  0.1703  0.8896 -0.3216
16445TIP3    H170826   5.430   1.794   4.153 -0.6230  1.5990 -0.9138
16445TIP3    H270827   5.296   1.782   4.222 -0.5235  0.5733 -0.8936
16446TIP3   OH270828   5.900   4.413   3.211 -0.1187  0.1528 -1.1717
16446TIP3    H170829   5.977   4.378   3.258 -1.4907 -0.0451  1.0896
16446TIP3    H270830   5.925   4.410   3.119  1.5219 -2.5986 -0.7483
16447TIP3   OH270831   6.156   5.123   5.276 -0.2293  0.3149 -0.3035
16447TIP3    H170832   6.167   5.036   5.315 -0.0212  0.8749  0.9572
16447TIP3    H270833   6.202   5.119   5.193  0.2090 -0.6293 -0.0231
16448TIP3   OH270834   1.720   3.139   3.493 -0.3207  0.1817  0.4853
16448TIP3    H170835   1.692   3.227   3.517  0.4799 -0.1784  3.0893
16448TIP3    H270836   1.642   3.085   3.506 -1.4555  0.6597 -3.1565
16449TIP3   OH270837   3.031   1.111   4.249 -0.4044  0.3643 -0.3005
16449TIP3    H170838   2.984   1.051   4.307 -0.5212  0.8014  0.0627
16449TIP3    H270839   3.110   1.133   4.297  0.1324 -0.2786 -0.8618
16450TIP3   OH270840   2.364   6.705   1.265 -0.3918  0.0735 -0.1502
16450TIP3    H170841   2.291   6.740   1.315  0.3613  0.8786  0.3985
16450TIP3    H270842   2.432   6.772   1.270 -0.1912  0.0682 -2.0266
16451TIP3   OH270843   0.617   0.905   3.001  0.0195 -0.1021 -0.1627
16451TIP3    H170844   0.585   0.815   3.014 -0.0942  0.2155  2.1262
16451TIP3    H270845   0.711   0.899   3.018 -0.1019  0.3111  0.7163
16452TIP3   OH270846   2.222   6.117   4.600 -0.0694 -0.1178  0.2481
16452TIP3    H170847   2.228   6.022   4.610 -0.4101 -0.0819  0.7605
16452TIP3    H270848   2.130   6.134   4.584 -0.0797  0.1768  0.6256
16453TIP3   OH270849   2.047   3.004  13.027 -0.6805  0.2027  0.6234
16453TIP3    H170850   2.113   3.005  12.959 -0.2405  1.2097  1.0469
16453TIP3    H270851   2.005   3.090  13.022 -0.6687  0.2786  1.5870
16454TIP3   OH270852   4.779   1.710  11.696 -0.6416 -0.1413  0.1406
16454TIP3    H170853   4.740   1.751  11.619  1.1639 -0.5387 -1.0493
16454TIP3    H270854   4.757   1.617  11.687 -0.5014 -0.1753  0.1461
16455TIP3   OH270855   2.244   4.479  16.367 -0.4965 -0.3483  0.1165
16455TIP3    H170856   2.186   4.449  16.437  1.1209 -2.3557  0.6700
16455TIP3    H270857   2.261   4.401  16.315  2.3122 -0.0267  0.4314
16456TIP3   OH270858   0.560   0.382  17.104 -0.2241  0.1376 -0.6705
16456TIP3    H170859   0.550   0.354  17.195 -4.8299  0.2744 -0.9094
16456TIP3    H270860   0.506   0.461  17.096  0.4034  0.4195 -3.4307
16457TIP3   OH270861   4.860   6.746   0.024  0.2162 -0.7012 -0.4917
16457TIP3    H170862   4.795   6.775  -0.041 -0.0974 -1.4102 -0.5082
16457TIP3    H270863   4.922   6.694  -0.026  0.2499 -0.8423 -0.3032
16458TIP3   OH270864   3.542   3.897  13.037  0.2823 -0.4919 -0.1623
16458TIP3    H170865   3.561   3.832  12.969  1.4374  1.1306 -1.4892
16458TIP3    H270866   3.446   3.901  13.039  0.2067 -1.5476 -0.7225
16459TIP3   OH270867   4.496   6.416  13.643 -0.2416 -0.0546  0.0945
16459TIP3    H170868   4.424   6.449  13.589 -0.1812  0.8402  0.5468
16459TIP3    H270869   4.524   6.492  13.694  1.6192 -0.1378 -0.7331
16460TIP3   OH270870   1.825   5.055  13.009 -0.1296  0.0549 -0.4032
16460TIP3    H170871   1.855   5.144  12.988  0.9550 -0.6376 -1.9740
16460TIP3    H270872   1.739   5.068  13.050 -0.0083  1.8207 -0.6127
16461TIP3   OH270873   5.368   4.259  15.803 -0.4406 -0.0892  0.3200
16461TIP3    H170874   5.397   4.348  15.784  1.4126 -0.2901  1.8944
16461TIP3    H270875   5.446   4.205  15.791 -1.0950 -1.2414  1.0720
16462TIP3   OH270876   6.753   5.508  15.144 -0.0293  0.2746 -0.3939
16462TIP3    H170877   6.694   5.550  15.207  0.3039  1.1492 -0.6588
16462TIP3    H270878   6.778   5.577  15.084  0.7535 -0.2417 -0.6810
16463TIP3   OH270879   0.225   1.172  15.071 -0.5487  0.6599 -0.2823
16463TIP3    H170880   0.145   1.219  15.095  0.4531  2.3519 -0.0960
16463TIP3    H270881   0.281   1.239  15.031  1.5347 -0.0016  1.3520
16464TIP3   OH270882   3.850   2.206   3.228 -0.1641  0.9534  0.1386
16464TIP3    H170883   3.937   2.183   3.195 -0.2473  0.4748  0.2512
16464TIP3    H270884   3.859   2.297   3.257  0.6216  0.5346  1.2630
16465TIP3   OH270885   5.743   6.488   0.345  0.3420 -0.4194 -0.1096
16465TIP3    H170886   5.680   6.416   0.356 -0.9945  0.8146  0.7276
16465TIP3    H270887   5.743   6.532   0.430 -0.8859  2.1114 -1.3223
16466TIP3   OH270888   5.603   5.517   5.985 -0.5296 -0.1168  0.6609
16466TIP3    H170889   5.519   5.493   6.024  0.5743 -2.4920  1.7396
16466TIP3    H270890   5.635   5.590   6.039 -2.0139  1.0913 -0.0103
16467TIP3   OH270891   1.282   5.585   3.892  0.8984  0.3374 -0.3879
16467TIP3    H170892   1.260   5.655   3.953  1.1447 -0.5029  0.7118
16467TIP3    H270893   1.228   5.602   3.815  0.9704  1.7287 -0.1544
16468TIP3   OH270894   2.479   5.566  16.590  0.3384  0.5854  0.2062
16468TIP3    H170895   2.447   5.502  16.527 -1.9006  0.5918  1.2228
16468TIP3    H270896   2.544   5.517  16.642  0.1647 -0.2406 -0.3279
16469TIP3   OH270897   5.707   4.248   0.217  0.2114  0.1874  0.1072
16469TIP3    H170898   5.651   4.201   0.279  1.9737  1.4934  2.8936
16469TIP3    H270899   5.771   4.183   0.189  0.7343  0.0603  1.4783
16470TIP3   OH270900   3.551   5.014   1.329  0.0233  1.1581 -0.3245
16470TIP3    H170901   3.598   4.932   1.339  0.7655  1.7813  1.7645
16470TIP3    H270902   3.560   5.036   1.236  1.9439  0.1479 -0.4193
16471TIP3   OH270903   6.379   2.771  13.839  0.0787  0.0946 -0.3565
16471TIP3    H170904   6.404   2.693  13.790 -0.4283 -0.6849  0.5818
16471TIP3    H270905   6.284   2.766  13.846  0.2380 -1.0654  2.5838
16472TIP3   OH270906   4.964   2.270   2.227 -0.6270  0.0812 -0.3286
16472TIP3    H170907   4.929   2.181   2.226 -1.4753  0.4016  0.3093
16472TIP3    H270908   4.896   2.323   2.185 -0.5490  0.5784  0.1618
16473TIP3   OH270909   2.635   2.616   0.684  0.1319 -0.7391 -0.1846
16473TIP3    H170910   2.602   2.590   0.598  0.8888 -1.3929 -0.2890
16473TIP3    H270911   2.709   2.558   0.700  0.1132 -0.5104  0.8346
16474TIP3   OH270912   3.275   3.134  12.323  0.0954 -0.1704 -0.4927
16474TIP3    H170913   3.196   3.188  12.314  0.2997  0.3179  0.5444
16474TIP3    H270914   3.271   3.101  12.412  0.3259 -1.3457 -0.9010
16475TIP3   OH270915   5.839   5.688  16.912 -0.2648 -0.0316 -0.4022
16475TIP3    H170916   5.924   5.731  16.902 -0.2544 -0.1860 -1.0146
16475TIP3    H270917   5.852   5.601  16.875 -0.5368 -0.2471  0.0096
16476TIP3   OH270918   0.408   6.009  17.083  0.0355  0.3358 -0.2712
16476TIP3    H170919   0.361   6.033  17.004 -0.2621  2.1516  0.4169
16476TIP3    H270920   0.413   6.090  17.134  0.5949 -0.6853  1.3769
16477TIP3   OH270921   1.141   5.542  11.921  0.5948  0.1535  0.5088
16477TIP3    H170922   1.059   5.590  11.931  1.0249  0.9425  0.3360
16477TIP3    H270923   1.117   5.463  11.872  0.3443  1.6049 -1.8447
16478TIP3   OH270924   5.697   1.967   5.753 -0.5005  0.3086 -0.1527
16478TIP3    H170925   5.653   1.961   5.668  1.7776  0.2790 -1.3879
16478TIP3    H270926   5.635   2.015   5.808 -2.4807 -0.5842 -1.4892
16479TIP3   OH270927   5.175   1.257  10.171 -0.1873  0.5300  0.2953
16479TIP3    H170928   5.133   1.339  10.143  0.2830  0.7702  0.2943
16479TIP3    H270929   5.168   1.258  10.266  0.2630  0.8109  0.3272
16480TIP3   OH270930   3.075   0.435   0.900  0.3506 -0.4264  1.2025
16480TIP3    H170931   3.112   0.519   0.927 -0.3526  1.4913 -2.9167
16480TIP3    H270932   3.010   0.414   0.968  0.1605  2.6906  2.1251
16481TIP3   OH270933   5.885   3.436   1.049  0.2501 -1.0700  0.2608
16481TIP3    H170934   5.890   3.363   0.986 -0.4116 -1.0945  0.2352
16481TIP3    H270935   5.801   3.478   1.030  0.3270 -0.7052  0.7276
16482TIP3   OH270936   5.113   2.642   5.908 -0.0610 -0.4304 -0.0819
16482TIP3    H170937   5.036   2.605   5.866 -0.2452  0.1364 -0.2551
16482TIP3    H270938   5.103   2.620   6.001 -1.1000  0.7318  0.1149
16483TIP3   OH270939   6.197   2.853  14.272 -0.0769 -0.3739  0.1834
16483TIP3    H170940   6.195   2.935  14.321 -0.5580  0.0833 -0.5875
16483TIP3    H270941   6.241   2.875  14.190 -0.3591 -0.8403 -0.0975
16484TIP3   OH270942   5.770   4.318  16.558 -0.3026 -0.0429 -0.0916
16484TIP3    H170943   5.706   4.251  16.532  0.2926 -0.9822  0.7795
16484TIP3    H270944   5.844   4.268  16.594  0.6521  1.0447 -0.4708
16485TIP3   OH270945   5.473   4.622  15.086 -0.3656  0.2715 -0.0596
16485TIP3    H170946   5.510   4.642  15.172 -0.0461  0.3477 -0.2099
16485TIP3    H270947   5.399   4.564  15.104 -1.4400  1.7339  0.3927
16486TIP3   OH270948   0.179   3.231  16.289 -0.0476  0.4822  0.0933
16486TIP3    H170949   0.263   3.185  16.291  0.6624  1.7455  1.3833
16486TIP3    H270950   0.169   3.259  16.198 -0.0282 -1.3041 -0.4924
16487TIP3   OH270951   6.507   6.171  15.815  0.2796  0.1702 -0.4972
16487TIP3    H170952   6.527   6.232  15.886  2.7168 -0.6379 -0.3873
16487TIP3    H270953   6.523   6.221  15.735 -2.1216  0.9742 -0.5254
16488TIP3   OH270954   2.567   0.801  15.369  0.0072  0.4438 -0.0699
16488TIP3    H170955   2.601   0.788  15.281 -0.6019 -0.6303 -0.1545
16488TIP3    H270956   2.618   0.875  15.404  0.4191  0.7159 -1.2206
16489TIP3   OH270957   3.866   4.040  12.999 -0.2220  0.0636 -0.4417
16489TIP3    H170958   3.825   4.004  12.920 -2.2587 -0.5570  0.8371
16489TIP3    H270959   3.911   3.966  13.039 -0.2156  0.0991 -0.3835
16490TIP3   OH270960   4.060   5.340  14.702 -0.7971 -0.6980 -0.0077
16490TIP3    H170961   3.992   5.307  14.644  0.9207 -0.5103 -2.2300
16490TIP3    H270962   4.134   5.358  14.645  0.4839  0.9676  2.0396
16491TIP3   OH270963   5.009   1.806  14.355 -0.6008  0.1085 -0.0145
16491TIP3    H170964   5.087   1.859  14.340 -0.2046 -0.8946 -1.8142
16491TIP3    H270965   4.997   1.808  14.450  1.4983  0.4595  0.3044
16492TIP3   OH270966   0.063   5.876  11.180  0.0175  0.0095 -0.2808
16492TIP3    H170967  -0.026   5.910  11.187  0.2081  0.9094 -1.7940
16492TIP3    H270968   0.116   5.953  11.156  0.8806 -0.8737 -1.2895
16493TIP3   OH270969   6.133   3.766   6.171  0.4140  0.4023  0.3597
16493TIP3    H170970   6.186   3.735   6.244 -0.3645 -1.7037  0.0882
16493TIP3    H270971   6.060   3.813   6.213 -0.5233 -1.5619  1.0596
16494TIP3   OH270972   5.672   3.407  14.213  0.5115  1.3440 -0.2117
16494TIP3    H170973   5.629   3.396  14.128 -1.6988  1.0059  0.8727
16494TIP3    H270974   5.721   3.489  14.205  0.4522  1.2468 -1.8316
16495TIP3   OH270975   2.190   6.160   2.299  0.1848 -0.1275  0.2441
16495TIP3    H170976   2.150   6.240   2.334  0.0797  0.4183 -1.0336
16495TIP3    H270977   2.139   6.141   2.220  0.6002 -1.1079  0.2022
16496TIP3   OH270978   1.605   4.852   4.833 -0.0443  0.1446  0.9146
16496TIP3    H170979   1.608   4.857   4.737  0.9764  0.5699  0.9494
16496TIP3    H270980   1.537   4.914   4.858 -2.7128 -2.3370  0.3564
16497TIP3   OH270981   4.397   5.840  14.749 -0.3019 -0.1241 -0.7104
16497TIP3    H170982   4.460   5.903  14.715  1.0568 -0.3526  1.2453
16497TIP3    H270983   4.415   5.760  14.699  1.2571 -0.2876  0.0297
16498TIP3   OH270984   1.666   2.560   1.302  0.2635 -0.3259  0.1105
16498TIP3    H170985   1.649   2.531   1.392  2.2728 -1.0814  0.2903
16498TIP3    H270986   1.726   2.634   1.312  1.2076 -0.9761 -0.6194
16499TIP3   OH270987   4.197   5.860  12.351  0.3585 -0.5952 -0.1228
16499TIP3    H170988   4.174   5.865  12.258 -1.2770  0.6048  0.2860
16499TIP3    H270989   4.126   5.907  12.395  0.3842 -2.2745  1.8536
16500TIP3   OH270990   6.521   3.425  11.488  0.0630  0.0143  0.7299
16500TIP3    H170991   6.512   3.423  11.583  2.5069  0.6325  1.0552
16500TIP3    H270992   6.583   3.496  11.471 -0.0816 -0.2797 -1.3026
16501TIP3   OH270993   0.128   0.029   4.973 -0.4014 -0.3033 -0.4360
16501TIP3    H170994   0.064  -0.023   4.923  1.0995 -1.9582 -0.7204
16501TIP3    H270995   0.211   0.011   4.930  0.5698  0.1827  1.1792
16502TIP3   OH270996   1.706   4.850  16.080 -0.0079  0.3907 -0.6036
16502TIP3    H170997   1.742   4.810  16.159  1.3263  1.9586 -0.3637
16502TIP3    H270998   1.615   4.869  16.102 -0.1503 -0.8288 -0.1026
16503TIP3   OH270999   4.095   5.546   0.300  1.0146 -0.8932 -0.4237
16503TIP3    H171000   4.106   5.460   0.339  0.3994 -0.1166  1.5564
16503TIP3    H271001   4.000   5.553   0.285  1.0300 -0.4520 -0.3196
16504TIP3   OH271002   5.338   5.133  12.422  0.1951 -0.1989  0.7358
16504TIP3    H171003   5.290   5.083  12.488 -0.2392 -1.4480 -0.4742
16504TIP3    H271004   5.273   5.190  12.382  0.5934  1.0658  1.7809
16505TIP3   OH271005   6.754   2.709   1.725 -0.1500  0.7363  0.1958
16505TIP3    H171006   6.847   2.714   1.749 -0.5738  0.9497  1.9326
16505TIP3    H271007   6.742   2.619   1.696  0.4713  0.5194  0.5746
16506TIP3   OH271008   3.590   0.287  11.343 -0.0791 -0.2121 -0.0765
16506TIP3    H171009   3.598   0.265  11.251 -3.1786 -1.5723 -0.1732
16506TIP3    H271010   3.502   0.325  11.351  0.2615  0.2777  2.2533
16507TIP3   OH271011   4.700   2.723  15.127 -0.2915  0.0066  0.0077
16507TIP3    H171012   4.637   2.723  15.199 -0.2551  0.1595  0.0393
16507TIP3    H271013   4.703   2.814  15.097 -0.3320 -0.0632 -0.2100
16508TIP3   OH271014   0.296   3.956  15.556  0.6949 -0.3342 -0.3516
16508TIP3    H171015   0.311   3.909  15.638 -0.4970  0.9490  0.6526
16508TIP3    H271016   0.284   3.886  15.491 -2.8996 -1.6531  1.3995
16509TIP3   OH271017   5.579   3.585   5.289  0.1444  0.5822  0.6441
16509TIP3    H171018   5.671   3.561   5.301 -0.1527 -0.0363  1.8858
16509TIP3    H271019   5.546   3.523   5.223  0.2946 -0.0830  1.1807
16510TIP3   OH271020   2.944   5.675  14.589  0.0623  0.2546  0.6233
16510TIP3    H171021   2.870   5.729  14.563 -0.8866 -0.5570  1.5381
16510TIP3    H271022   2.985   5.724  14.660  1.6639  1.6687 -1.1518
16511TIP3   OH271023   1.046   0.843  14.501 -0.2583  0.1362 -0.2053
16511TIP3    H171024   1.107   0.892  14.447 -0.3583 -1.3936 -1.8048
16511TIP3    H271025   1.090   0.759  14.516  0.1928  0.8139  2.9911
16512TIP3   OH271026   3.358   0.569  15.789  0.8162 -0.0480 -0.0742
16512TIP3    H171027   3.322   0.547  15.875  0.3585 -0.9539 -0.4796
16512TIP3    H271028   3.445   0.604  15.808  0.5806  0.0909  0.7808
16513TIP3   OH271029   2.449   0.576   1.422  0.4522 -0.3095  0.3723
16513TIP3    H171030   2.354   0.585   1.408  0.5073 -1.0347 -0.5628
16513TIP3    H271031   2.463   0.482   1.427  1.3212 -0.2644 -0.9754
16514TIP3   OH271032   1.665   4.875  14.296 -0.6611 -0.4836 -0.4283
16514TIP3    H171033   1.738   4.926  14.260 -1.1581  1.2341  0.8911
16514TIP3    H271034   1.694   4.784  14.287  1.0515  0.0850 -1.1719
16515TIP3   OH271035   3.915   1.921  16.546  0.3162  0.3764  0.5830
16515TIP3    H171036   4.006   1.901  16.568  0.3749  1.4958  1.4685
16515TIP3    H271037   3.911   2.017  16.550 -0.6211  0.4112 -0.6216
16516TIP3   OH271038   5.954   5.927  13.105 -0.0026 -0.2277  0.2005
16516TIP3    H171039   5.862   5.938  13.131  0.5475 -0.1150  2.3149
16516TIP3    H271040   5.986   6.016  13.093  0.2002 -0.1845  0.9860
16517TIP3   OH271041   3.936   1.530   0.202  0.0276 -0.2521 -0.5261
16517TIP3    H171042   3.851   1.541   0.159 -1.6116 -1.7729  2.0545
16517TIP3    H271043   3.957   1.616   0.237 -0.7281  0.0289 -0.7444
16518TIP3   OH271044   2.669   2.568  12.975 -0.1181  0.3228  0.0289
16518TIP3    H171045   2.715   2.523  12.904  1.8747 -1.6836  2.3781
16518TIP3    H271046   2.666   2.504  13.046  1.4566  3.2718  3.0832
16519TIP3   OH271047   0.120   5.852  11.449  0.2349 -0.0304 -0.3808
16519TIP3    H171048   0.094   5.856  11.357 -0.8964 -0.0360 -0.0698
16519TIP3    H271049   0.083   5.931  11.488  1.4459  0.4322 -0.0922
16520TIP3   OH271050   6.058   4.431  16.518 -0.8462 -0.1040  0.1018
16520TIP3    H171051   6.052   4.338  16.540  1.6296 -0.5047 -0.6542
16520TIP3    H271052   5.981   4.448  16.464 -0.8328 -1.9737 -0.5783
16521TIP3   OH271053   2.000   2.057   2.261 -0.4575 -0.5272  0.3688
16521TIP3    H171054   1.930   2.105   2.215  1.0361  0.5041 -0.9593
16521TIP3    H271055   2.029   1.992   2.197  1.6073  0.8774 -0.2391
16522TIP3   OH271056   0.181   1.299   6.493  0.2923  0.2541 -0.3463
16522TIP3    H171057   0.091   1.291   6.460  0.5426 -0.7204 -0.8109
16522TIP3    H271058   0.196   1.218   6.542  0.9727  0.3468 -0.3972
16523TIP3   OH271059   5.946   6.757   5.873  0.2851 -0.0998  0.0933
16523TIP3    H171060   5.881   6.702   5.829  1.0060 -0.7512 -0.1780
16523TIP3    H271061   5.894   6.812   5.931 -0.4330 -1.4362  0.7825
16524TIP3   OH271062   1.243   5.871   0.038 -0.1882 -0.6163  0.0854
16524TIP3    H171063   1.334   5.888   0.064 -0.2399  0.7410 -0.5331
16524TIP3    H271064   1.232   5.918  -0.045 -1.4461 -0.7939  0.1255
16525TIP3   OH271065   6.730   4.971   0.620  0.2977 -0.1952 -0.2215
16525TIP3    H171066   6.644   4.928   0.621  0.0840  0.2261 -0.2415
16525TIP3    H271067   6.788   4.907   0.578  0.0550 -0.5905  0.0288
16526TIP3   OH271068   6.630   1.917   1.128 -0.5286 -0.0550  0.6095
16526TIP3    H171069   6.676   1.984   1.178  1.2361 -2.0790  1.8599
16526TIP3    H271070   6.642   1.837   1.179 -2.2357 -1.4164 -1.0020
16527TIP3   OH271071   5.896   6.383   2.385 -0.1766  0.1970  0.7617
16527TIP3    H171072   5.900   6.319   2.313  2.9981  0.5622  0.4676
16527TIP3    H271073   5.926   6.334   2.461  0.7820  0.9225  0.8585
16528TIP3   OH271074   2.826   5.283  12.692 -0.2339  0.4476 -0.3561
16528TIP3    H171075   2.740   5.267  12.731 -0.9570 -0.5796 -2.2518
16528TIP3    H271076   2.807   5.324  12.608  1.0465 -0.6591 -1.2318
16529TIP3   OH271077   5.287   2.822   5.075 -0.1528 -0.5678  0.4599
16529TIP3    H171078   5.319   2.870   5.151  0.3854  0.0401 -0.1322
16529TIP3    H271079   5.282   2.888   5.005 -1.8489 -0.8362  0.2876
16530TIP3   OH271080   6.325   5.338  16.658  0.4870 -0.4274  0.6230
16530TIP3    H171081   6.398   5.398  16.640  1.9418 -1.9791  1.1321
16530TIP3    H271082   6.278   5.380  16.729 -0.8376  1.9756 -1.4839
16531TIP3   OH271083   2.920   3.660   1.543  0.2055 -0.0465  0.3407
16531TIP3    H171084   2.833   3.685   1.573  0.2423  0.6090 -0.0758
16531TIP3    H271085   2.979   3.725   1.584  0.5762 -0.8679  1.1414
16532TIP3   OH271086   1.124   4.335  12.361 -0.2254 -0.3981 -0.5064
16532TIP3    H171087   1.048   4.279  12.380 -1.5499  1.2336 -0.7548
16532TIP3    H271088   1.150   4.311  12.272 -1.0019 -0.3847 -0.7467
16533TIP3   OH271089   3.737   5.668  14.874  0.1084 -0.3637 -0.0297
16533TIP3    H171090   3.755   5.654  14.781  0.8951 -2.5762  0.3852
16533TIP3    H271091   3.650   5.630  14.887 -0.3168  0.6029  0.0235
16534TIP3   OH271092   0.821   6.394   4.399 -0.3852 -0.4453 -0.0740
16534TIP3    H171093   0.809   6.385   4.304  0.5783 -0.1405 -0.2337
16534TIP3    H271094   0.734   6.379   4.435 -0.8220 -0.2925 -1.0273
16535TIP3   OH271095   4.642   6.160  14.318 -0.1943 -0.1042 -0.3347
16535TIP3    H171096   4.732   6.133  14.300  0.5449  1.5913  0.6005
16535TIP3    H271097   4.651   6.240  14.370 -2.2352 -0.5485  0.8109
16536TIP3   OH271098   4.193   5.786   5.066 -0.1485 -0.3031 -0.0796
16536TIP3    H171099   4.275   5.740   5.051 -0.0326 -0.8464  1.8664
16536TIP3    H271100   4.195   5.807   5.160 -1.3839  1.3551 -0.3925
16537TIP3   OH271101   6.627   5.814   1.876  0.5402 -0.1006  0.1713
16537TIP3    H171102   6.562   5.853   1.934  1.5412 -0.7681  1.8055
16537TIP3    H271103   6.705   5.869   1.886  1.1505 -0.9984  0.5304
16538TIP3   OH271104   3.732   1.728   3.441  0.0006  0.5581 -0.3826
16538TIP3    H171105   3.753   1.806   3.389  4.5220 -0.4305 -0.4261
16538TIP3    H271106   3.789   1.735   3.518 -0.7729 -1.8499  0.4705
16539TIP3   OH271107   4.570   5.837  11.869  0.0001 -0.4778  0.0809
16539TIP3    H171108   4.513   5.761  11.856 -0.5597 -0.1835  0.7555
16539TIP3    H271109   4.635   5.808  11.932  2.2238 -1.6450 -2.5380
16540TIP3   OH271110   0.909   4.310  16.795 -0.0673  0.3656  0.2705
16540TIP3    H171111   0.872   4.372  16.858 -2.2238 -0.5203 -0.0294
16540TIP3    H271112   0.933   4.364  16.720 -0.0948  1.0634  0.7508
16541TIP3   OH271113   5.024   5.852   0.209  0.7394 -0.1147  0.2286
16541TIP3    H171114   5.074   5.901   0.144 -1.1171  0.6533 -0.6769
16541TIP3    H271115   5.000   5.917   0.275 -2.3239  0.5216 -1.3194
16542TIP3   OH271116   2.413   2.321  16.865  0.4473  0.2535  0.2812
16542TIP3    H171117   2.343   2.363  16.915 -0.1302 -1.3358  0.8778
16542TIP3    H271118   2.486   2.314  16.926  0.3022 -0.2041  0.4099
16543TIP3   OH271119   1.513   5.937  14.042 -0.5973 -0.1339  0.0467
16543TIP3    H171120   1.573   6.010  14.025 -2.1159  1.0193 -0.7686
16543TIP3    H271121   1.526   5.915  14.134  0.1180  0.9977  0.2348
16544TIP3   OH271122   6.567   2.789  12.027 -0.3344 -0.0734 -0.3120
16544TIP3    H171123   6.472   2.784  12.036 -0.2529 -1.6506 -0.1151
16544TIP3    H271124   6.601   2.772  12.115  0.1429  0.4616 -0.3817
16545TIP3   OH271125   3.994   4.332   2.478 -0.5255 -0.5863 -0.1210
16545TIP3    H171126   4.050   4.368   2.410  0.7849 -1.7063  0.3220
16545TIP3    H271127   3.950   4.257   2.437  0.8518 -1.7389  0.4332
16546TIP3   OH271128   3.516   4.441  11.484 -0.3192  0.8108  0.4308
16546TIP3    H171129   3.591   4.500  11.473 -1.5272  2.4399  0.7012
16546TIP3    H271130   3.452   4.491  11.534 -0.3958 -1.6235  3.0628
16547TIP3   OH271131   0.932   0.033  11.617 -0.1885  0.5268 -0.0147
16547TIP3    H171132   0.839   0.050  11.631 -0.7836 -1.4227 -1.1814
16547TIP3    H271133   0.947   0.061  11.526 -0.0832 -0.6748 -0.3895
16548TIP3   OH271134   5.449   4.618  16.583  0.6428 -0.3317  0.2281
16548TIP3    H171135   5.364   4.588  16.551  0.4985  0.4130 -0.1139
16548TIP3    H271136   5.444   4.713  16.579  1.1666 -0.2548  1.0876
16549TIP3   OH271137   2.279   3.145   6.249 -0.5285 -0.0140  0.0948
16549TIP3    H171138   2.312   3.102   6.170 -0.1418  2.9422 -1.5157
16549TIP3    H271139   2.301   3.238   6.236 -1.4292  0.7404  3.2159
16550TIP3   OH271140   3.508   6.134   5.416  0.2608  0.6399  0.4341
16550TIP3    H171141   3.456   6.075   5.471  0.7250 -0.2719 -0.0965
16550TIP3    H271142   3.588   6.149   5.465  0.3737  0.3921  0.3258
16551TIP3   OH271143   1.227   1.199   2.291 -0.0590  0.0496  0.1193
16551TIP3    H171144   1.234   1.293   2.305 -1.6825  0.2843 -0.4726
16551TIP3    H271145   1.139   1.186   2.257  0.1384 -1.6906  0.1772
16552TIP3   OH271146   3.035   6.183  15.001  0.2593  0.5557 -0.2467
16552TIP3    H171147   2.946   6.148  14.991  0.6273  0.0233 -1.8995
16552TIP3    H271148   3.039   6.255  14.938  1.9996 -1.4800 -2.6329
16553TIP3   OH271149   3.399   5.678  14.210  0.3386 -0.2953  0.2257
16553TIP3    H171150   3.326   5.641  14.260  0.0679 -0.2579 -0.1409
16553TIP3    H271151   3.359   5.744  14.154  0.3433 -1.5456 -1.3480
16554TIP3   OH271152   2.137   5.717  15.040  0.0640 -0.9151  0.0902
16554TIP3    H171153   2.055   5.719  15.090 -0.9400  1.0639 -1.4706
16554TIP3    H271154   2.125   5.644  14.979 -0.6476 -0.5411 -0.2374
16555TIP3   OH271155   6.663   5.181   2.891  0.3962  0.2865 -0.0448
16555TIP3    H171156   6.706   5.141   2.967  0.3876  0.7227  0.1952
16555TIP3    H271157   6.702   5.268   2.886  1.3198 -0.1779 -1.3033
16556TIP3   OH271158   3.794   5.069  11.820  0.2242 -0.5071 -0.3524
16556TIP3    H171159   3.872   5.016  11.804 -0.7754 -2.2069  0.1082
16556TIP3    H271160   3.757   5.034  11.901 -1.1977  0.0357 -0.7332
16557TIP3   OH271161   4.546   2.736  11.541 -0.0354 -0.2583  0.2658
16557TIP3    H171162   4.523   2.822  11.575 -0.8936 -0.5075  0.3225
16557TIP3    H271163   4.642   2.735  11.542 -0.0260  0.5166  0.7040
16558TIP3   OH271164   3.091   2.184   5.506 -0.0297 -0.4481 -0.8383
16558TIP3    H171165   3.186   2.180   5.516 -0.0915  0.9184  0.6620
16558TIP3    H271166   3.058   2.119   5.567 -0.0697 -1.6133 -2.0552
16559TIP3   OH271167   1.097   2.768  12.897 -0.0082 -0.1788  0.1560
16559TIP3    H171168   1.179   2.798  12.856 -0.2695  0.6806  0.2386
16559TIP3    H271169   1.100   2.673  12.889  0.3878 -0.0887 -1.0318
16560TIP3   OH271170   5.258   6.181  11.786  0.4223  0.3136  0.3614
16560TIP3    H171171   5.351   6.178  11.811  0.3437  0.2736  0.6528
16560TIP3    H271172   5.247   6.108  11.725 -0.0148 -1.3702  2.3741
16561TIP3   OH271173   6.273   5.943   4.455 -0.7097 -0.2303  0.2962
16561TIP3    H171174   6.280   5.928   4.549  0.3494 -1.6904  0.0026
16561TIP3    H271175   6.331   5.879   4.415 -1.1519  0.3484 -1.3717
16562TIP3   OH271176   6.744   3.392   4.581 -0.2684 -0.2268  0.0719
16562TIP3    H171177   6.773   3.307   4.548 -0.5557 -0.1919 -0.2813
16562TIP3    H271178   6.653   3.378   4.607  0.2991 -0.5613  1.9982
16563TIP3   OH271179   4.406   4.659  11.287  0.2874  0.4620 -0.4314
16563TIP3    H171180   4.404   4.755  11.288 -1.2818  0.4505  0.4474
16563TIP3    H271181   4.376   4.634  11.374  0.7310 -0.8459 -0.6365
16564TIP3   OH271182   5.466   3.121   0.610 -0.4031 -0.8919 -0.5856
16564TIP3    H171183   5.444   3.079   0.694  0.0387 -0.0226 -0.0146
16564TIP3    H271184   5.403   3.192   0.602 -1.1814 -1.6648 -1.5744
16565TIP3   OH271185   3.380   0.178  10.953 -0.2182 -0.1574 -0.6875
16565TIP3    H171186   3.465   0.218  10.971 -1.1056  1.0331  1.1053
16565TIP3    H271187   3.338   0.238  10.891 -0.5663  0.4116  0.0803
16566TIP3   OH271188   6.333   2.605   2.887  0.3901 -0.0185 -0.1642
16566TIP3    H171189   6.260   2.624   2.945  0.5236  0.6424 -0.2114
16566TIP3    H271190   6.310   2.520   2.847 -1.3734  1.1252 -1.7714
16567TIP3   OH271191   5.612   1.294  12.497  0.0452  0.2103 -0.2861
16567TIP3    H171192   5.628   1.269  12.588  1.7558  1.5071 -0.1888
16567TIP3    H271193   5.660   1.376  12.485 -2.0459  1.3426 -1.7138
16568TIP3   OH271194   4.047   3.048   0.413 -0.8308  0.2143  0.0990
16568TIP3    H171195   4.107   2.976   0.392 -1.2313 -0.3135  0.7363
16568TIP3    H271196   4.102   3.126   0.410  0.0432 -0.3255  1.3105
16569TIP3   OH271197   2.330   1.589  14.566  0.1061  0.2103  0.3101
16569TIP3    H171198   2.338   1.681  14.542 -1.4170  0.1156 -0.7363
16569TIP3    H271199   2.241   1.565  14.540  1.1908 -2.1671 -1.7496
16570TIP3   OH271200   0.340   1.548   3.111  0.0234  0.7666  0.1292
16570TIP3    H171201   0.288   1.619   3.149 -1.7605 -0.1361 -0.4940
16570TIP3    H271202   0.284   1.511   3.043  1.6856 -0.0103 -0.8754
16571TIP3   OH271203   1.412   3.061   1.629  0.4212  0.2134  0.1365
16571TIP3    H171204   1.469   3.019   1.694  0.2693 -0.7146 -0.3143
16571TIP3    H271205   1.433   3.017   1.547  0.3506  1.1239 -0.3884
16572TIP3   OH271206   6.473   5.688  16.053  0.0299 -0.1965  0.0094
16572TIP3    H171207   6.474   5.759  15.989  1.2644  0.2425  0.4721
16572TIP3    H271208   6.388   5.693  16.095 -0.5346 -0.0642 -1.1235
16573TIP3   OH271209   1.033   1.957   2.994 -0.0367  0.3346 -0.3353
16573TIP3    H171210   0.954   2.010   3.001  0.8569  1.8700 -1.2598
16573TIP3    H271211   1.084   1.978   3.072  0.5630  1.3312 -0.9625
16574TIP3   OH271212   4.434   0.702   2.656  0.1284  0.3437 -0.3254
16574TIP3    H171213   4.357   0.688   2.712  0.5818 -1.7216 -0.1248
16574TIP3    H271214   4.398   0.741   2.576 -1.2703 -1.1497 -0.4872
16575TIP3   OH271215   1.215   4.059  15.430  0.3128 -0.1260  0.0972
16575TIP3    H171216   1.131   4.049  15.476 -0.4801 -0.7935 -1.4287
16575TIP3    H271217   1.265   3.981  15.455 -0.1690 -0.5597 -0.2669
16576TIP3   OH271218   4.563   6.665   3.911  0.3089 -0.1412 -0.7835
16576TIP3    H171219   4.531   6.576   3.896  1.5541 -0.5432 -1.1296
16576TIP3    H271220   4.494   6.721   3.874 -0.8623 -0.9136  0.1589
16577TIP3   OH271221   6.357   2.202   6.053  0.5471 -0.3345  0.1626
16577TIP3    H171222   6.445   2.194   6.089  0.6997 -0.0638 -0.1508
16577TIP3    H271223   6.299   2.176   6.125  0.8440  0.3019  0.6425
16578TIP3   OH271224   4.459   1.841  16.250 -0.4974  0.4675  0.1852
16578TIP3    H171225   4.410   1.915  16.286 -0.2616  0.0908  1.3341
16578TIP3    H271226   4.428   1.765  16.300 -0.0037 -0.0494 -0.2759
16579TIP3   OH271227   5.579   2.604   3.308 -0.1782 -0.1302 -0.6608
16579TIP3    H171228   5.526   2.683   3.323 -1.8519 -1.4865  1.1635
16579TIP3    H271229   5.656   2.615   3.364 -1.6957 -0.8542  1.7265
16580TIP3   OH271230   2.673   6.728  16.250 -0.2556 -0.3574 -0.0385
16580TIP3    H171231   2.712   6.812  16.274 -0.2582 -0.3444 -0.0815
16580TIP3    H271232   2.638   6.741  16.162  1.0096 -0.8222 -0.6383
16581TIP3   OH271233   0.134   5.387  13.365 -0.2209 -0.3208 -0.8137
16581TIP3    H171234   0.046   5.368  13.399 -1.4857  0.4167 -3.4662
16581TIP3    H271235   0.171   5.301  13.345 -0.3378 -0.6262  0.1792
16582TIP3   OH271236   2.307   3.137  13.615 -0.1937 -0.0527  0.5491
16582TIP3    H171237   2.222   3.118  13.655 -0.8828  0.2573 -0.7140
16582TIP3    H271238   2.324   3.061  13.559 -2.3889  2.1824 -3.5850
16583TIP3   OH271239   2.129   3.421   0.417  0.0744 -0.4836 -0.5046
16583TIP3    H171240   2.223   3.438   0.424  0.0285 -0.6510  0.6704
16583TIP3    H271241   2.110   3.360   0.488 -0.7928 -1.0349 -1.1933
16584TIP3   OH271242   4.935   1.376  16.681 -0.0959  0.1271 -0.8137
16584TIP3    H171243   5.014   1.340  16.641  0.2999  0.6811 -0.5375
16584TIP3    H271244   4.927   1.329  16.764  0.7291  1.0313 -0.1974
16585TIP3   OH271245   5.564   2.916  15.520  0.2012  0.5336  0.1927
16585TIP3    H171246   5.510   2.897  15.443 -1.1741 -0.1719  1.2793
16585TIP3    H271247   5.603   3.001  15.502  0.5208  0.0368 -1.5960
16586TIP3   OH271248   4.245   2.557  15.491 -0.2129 -0.0776  0.3661
16586TIP3    H171249   4.160   2.581  15.528 -0.3008 -0.1856  0.2356
16586TIP3    H271250   4.279   2.489  15.550 -0.2200 -0.0387  0.4145
16587TIP3   OH271251   6.310   4.987  11.462  0.2439  0.1892 -0.1035
16587TIP3    H171252   6.396   5.027  11.476  0.0897  0.1122  1.1340
16587TIP3    H271253   6.266   5.046  11.401  0.9375  0.5621 -0.2522
16588TIP3   OH271254   4.057   2.633  14.693  0.6836  0.7563  0.5458
16588TIP3    H171255   4.042   2.653  14.600 -1.0282 -0.2036  0.5667
16588TIP3    H271256   4.053   2.718  14.736 -0.6271  1.0317 -0.0426
16589TIP3   OH271257   0.555   1.368   2.302  0.3226  0.1458  0.1311
16589TIP3    H171258   0.497   1.312   2.354  2.2532 -0.8736  1.2891
16589TIP3    H271259   0.631   1.383   2.359  0.6112  2.5836 -0.7992
16590TIP3   OH271260   1.393   0.460   4.482 -0.0447 -0.0393  0.1589
16590TIP3    H171261   1.422   0.453   4.573  0.8918  0.8491 -0.0424
16590TIP3    H271262   1.404   0.553   4.461 -2.2526  0.1907 -0.2365
16591TIP3   OH271263   4.736   6.625   5.417 -0.4607  0.3126 -0.1224
16591TIP3    H171264   4.821   6.596   5.384 -0.3579  0.3766  0.0840
16591TIP3    H271265   4.682   6.545   5.418 -0.4798  0.3228 -0.4972
16592TIP3   OH271266   1.513   1.212   5.991  0.1980  0.4988 -0.0946
16592TIP3    H171267   1.483   1.274   5.925 -0.1365  0.2621 -0.1659
16592TIP3    H271268   1.461   1.133   5.976  0.2362  0.3862  0.3429
16593TIP3   OH271269   0.139   2.305   4.391 -0.4639 -0.0561  0.1137
16593TIP3    H171270   0.054   2.344   4.370  0.9000  1.4146 -3.2551
16593TIP3    H271271   0.200   2.379   4.394  0.8912 -1.1447  1.7629
16594TIP3   OH271272   6.182   2.980  14.608 -0.1162  0.1961 -0.3444
16594TIP3    H171273   6.101   2.949  14.569 -0.0068  0.5637 -0.8701
16594TIP3    H271274   6.179   3.075  14.599  1.0337  0.1364 -1.7121
16595TIP3   OH271275   1.818   2.373   4.178  0.0950 -0.0107 -0.4765
16595TIP3    H171276   1.751   2.437   4.156  0.5888  0.7183  0.1152
16595TIP3    H271277   1.791   2.294   4.131  0.4096  1.1021 -2.6644
16596TIP3   OH271278   5.406   6.375  15.226 -0.0113  0.6744 -0.3864
16596TIP3    H171279   5.457   6.295  15.210 -0.2292  0.6455 -0.9644
16596TIP3    H271280   5.325   6.362  15.178 -1.2165  0.0947  1.7092
16597TIP3   OH271281   0.358   6.302  16.100 -0.9829 -0.1127 -0.1949
16597TIP3    H171282   0.436   6.350  16.072 -1.1960  0.2011 -0.2535
16597TIP3    H271283   0.297   6.369  16.129 -0.2741 -0.4870  2.3524
16598TIP3   OH271284   5.585   5.960  13.707 -0.2336 -0.0958  0.5115
16598TIP3    H171285   5.674   5.968  13.671 -1.1449  1.2109 -1.6298
16598TIP3    H271286   5.560   5.869  13.690 -0.1978  0.1854 -1.1397
16599TIP3   OH271287   2.130   5.016   2.037 -1.0315  0.3108  0.0758
16599TIP3    H171288   2.142   5.108   2.013 -0.3434  0.1258 -0.3256
16599TIP3    H271289   2.142   4.969   1.954 -3.6613  0.0008 -0.2159
16600TIP3   OH271290   3.858   3.526   3.920 -0.3912 -0.4431 -0.1801
16600TIP3    H171291   3.922   3.473   3.874 -1.1668 -1.2003 -0.4076
16600TIP3    H271292   3.796   3.554   3.852 -0.1020  0.5908 -0.0298
16601TIP3   OH271293   0.550   1.183  11.697  0.5537  0.6837  0.0512
16601TIP3    H171294   0.506   1.178  11.612  1.2255  2.6823 -0.4655
16601TIP3    H271295   0.482   1.162  11.761  0.1323 -1.2473 -0.9532
16602TIP3   OH271296   3.918   3.165  12.145 -0.0037  0.1090  0.4202
16602TIP3    H171297   3.874   3.215  12.077 -1.2274 -1.5011 -0.0510
16602TIP3    H271298   4.010   3.163  12.119 -0.2606  0.5241 -0.5334
16603TIP3   OH271299   2.350   4.828   0.716 -0.0233 -0.2038  0.3950
16603TIP3    H171300   2.338   4.758   0.653  0.4825 -0.4175  0.5283
16603TIP3    H271301   2.444   4.847   0.712  0.6953 -2.4051  3.3625
16604TIP3   OH271302   3.587   1.420   1.508  0.4973 -0.4874  0.4784
16604TIP3    H171303   3.661   1.410   1.448  0.7241  0.3595  0.5981
16604TIP3    H271304   3.575   1.515   1.514  0.4003 -0.5704  1.6781
16605TIP3   OH271305   1.325   0.383  12.548 -0.0889  0.0749 -0.6278
16605TIP3    H171306   1.357   0.370  12.638 -1.5093 -0.5452 -0.1841
16605TIP3    H271307   1.398   0.356  12.493 -0.0588 -2.0366  0.3408
16606TIP3   OH271308   1.117   4.627   5.082  1.0605  0.0168 -0.3828
16606TIP3    H171309   1.066   4.549   5.107  1.8939 -0.3218  0.3419
16606TIP3    H271310   1.154   4.658   5.165  0.8514  1.1071 -0.6888
16607TIP3   OH271311   5.313   2.618  11.341  0.0675  0.6486 -0.0443
16607TIP3    H171312   5.313   2.528  11.311  1.0839  0.3875  0.6911
16607TIP3    H271313   5.222   2.647  11.331 -0.1279 -0.2304 -0.9181
16608TIP3   OH271314   1.002   6.795  14.759 -0.4096 -0.4155 -0.0095
16608TIP3    H171315   0.948   6.748  14.822 -2.8691  1.4138 -0.5961
16608TIP3    H271316   1.089   6.796  14.798 -1.7352  0.3859  3.2535
16609TIP3   OH271317   1.228   4.000   1.676  0.0131  0.2576 -0.3352
16609TIP3    H171318   1.171   4.075   1.689  0.2580  0.5489 -0.8981
16609TIP3    H271319   1.249   4.001   1.582  0.2186 -0.3659 -0.3040
16610TIP3   OH271320   6.764   2.998   6.781 -0.1458 -0.2660 -0.2348
16610TIP3    H171321   6.675   3.025   6.756  0.5253  2.0886 -0.3547
16610TIP3    H271322   6.817   3.019   6.704  1.0010  1.4417  0.9676
16611TIP3   OH271323   5.926   0.904   1.358  0.1371  0.6340 -0.2858
16611TIP3    H171324   6.017   0.898   1.386  0.6888  0.4029 -2.0458
16611TIP3    H271325   5.926   0.969   1.288 -0.9224  0.1161 -0.7940
16612TIP3   OH271326   5.118   1.440   0.117 -0.3215  0.0476  0.3471
16612TIP3    H171327   5.146   1.525   0.084 -2.3030  0.1577 -1.2988
16612TIP3    H271328   5.193   1.382   0.103  1.3775  1.6033  2.2766
16613TIP3   OH271329   4.738   6.653   6.283  0.7424  0.2061 -0.7299
16613TIP3    H171330   4.644   6.669   6.289  0.8127  0.0721  1.1666
16613TIP3    H271331   4.778   6.738   6.305  1.0825  0.3636 -1.8924
16614TIP3   OH271332   0.214   6.427  14.948  0.2899  0.2319  0.2249
16614TIP3    H171333   0.234   6.497  14.887  1.2660  1.1412  1.5313
16614TIP3    H271334   0.285   6.430  15.012 -0.3931 -1.0517  1.0792
16615TIP3   OH271335   4.068   3.710  10.591  0.4446  0.2058 -0.4662
16615TIP3    H171336   4.113   3.676  10.668  0.2082  1.0463  0.0596
16615TIP3    H271337   4.078   3.641  10.525  1.3572 -0.1813  0.0495
16616TIP3   OH271338   1.515   4.128  12.354  0.5342  0.0072  0.2790
16616TIP3    H171339   1.462   4.163  12.426  1.0854  0.2091  0.5943
16616TIP3    H271340   1.564   4.056  12.394 -0.1251 -0.7367 -0.2150
16617TIP3   OH271341   4.296   4.518  13.494 -0.2991  0.0127  0.1396
16617TIP3    H171342   4.312   4.554  13.407  0.3006 -0.8327 -0.1194
16617TIP3    H271343   4.200   4.518  13.503 -0.3253  1.5400  0.1225
16618TIP3   OH271344   3.375   5.446  13.746  0.2511 -0.1333  0.3188
16618TIP3    H171345   3.393   5.502  13.670  1.3026 -0.8673 -0.0018
16618TIP3    H271346   3.389   5.503  13.822 -1.4843  0.7972 -0.0147
16619TIP3   OH271347   2.248   6.122  13.157  0.2251 -0.0484  0.2228
16619TIP3    H171348   2.160   6.087  13.141  0.3595 -1.2241  1.7471
16619TIP3    H271349   2.278   6.074  13.235  1.9707  0.7791  0.0950
16620TIP3   OH271350   2.446   2.931   1.029  0.2047 -0.4358  0.2233
16620TIP3    H171351   2.509   2.875   0.984 -0.1259 -0.3726 -0.3273
16620TIP3    H271352   2.485   2.947   1.115  1.1552 -0.0439 -0.2592
16621TIP3   OH271353   5.379   1.932  14.045 -0.5725  0.1432  0.1951
16621TIP3    H171354   5.451   1.869  14.054 -0.5924 -0.2180 -1.7352
16621TIP3    H271355   5.421   2.012  14.012 -1.1973 -0.6127 -2.6768
16622TIP3   OH271356   3.497   4.468   3.370 -0.3852  0.4347  0.5762
16622TIP3    H171357   3.447   4.517   3.435 -1.9827  1.2693 -1.1757
16622TIP3    H271358   3.459   4.493   3.286  0.0984 -2.2662 -0.5757
16623TIP3   OH271359   2.283   6.576  12.219  0.0149 -0.2325  0.7589
16623TIP3    H171360   2.370   6.592  12.257  0.6665 -0.8214 -0.4259
16623TIP3    H271361   2.227   6.557  12.294  0.9930 -0.2192  1.5126
16624TIP3   OH271362   2.491   6.450  14.503 -0.0885  0.8504 -0.0718
16624TIP3    H171363   2.561   6.445  14.439 -0.3902  0.4601 -0.3810
16624TIP3    H271364   2.429   6.513  14.466 -0.1521  0.7971 -0.0567
16625TIP3   OH271365   1.075   5.115   6.386  0.1263  0.7433 -0.2746
16625TIP3    H171366   1.030   5.054   6.444 -1.1073  0.8725 -1.0511
16625TIP3    H271367   1.016   5.191   6.380  1.1226  1.5450 -0.1884
16626TIP3   OH271368   3.128   1.582  15.286 -0.3575 -0.0950  0.5109
16626TIP3    H171369   3.162   1.583  15.376  0.8986  0.4621  0.0566
16626TIP3    H271370   3.118   1.675  15.264 -1.9175 -0.2380  0.5099
16627TIP3   OH271371   1.830   5.972   3.217  0.7076  0.5281 -0.1472
16627TIP3    H171372   1.773   6.044   3.246 -1.5030 -0.5216 -1.5889
16627TIP3    H271373   1.915   5.992   3.255 -0.3656  2.7300  1.3198
16628TIP3   OH271374   4.613   0.739   3.505 -0.0089  0.4561  0.3099
16628TIP3    H171375   4.552   0.724   3.433 -0.2145 -0.3200  0.6395
16628TIP3    H271376   4.698   0.709   3.472 -0.1820 -0.3020  0.5245
16629TIP3   OH271377   6.104   6.730   1.701 -0.2508 -0.9318  0.1812
16629TIP3    H171378   6.083   6.661   1.639  1.1587 -0.9267 -0.3353
16629TIP3    H271379   6.158   6.687   1.767 -0.5145 -0.6098  0.6136
16630TIP3   OH271380   5.055   1.602   4.841  0.3330  0.1719  0.8145
16630TIP3    H171381   5.105   1.527   4.808  1.2122  0.7986  0.6749
16630TIP3    H271382   4.968   1.567   4.858 -0.3622 -0.1437 -2.5949
16631TIP3   OH271383   6.750   5.957  11.617  0.0308  0.1574 -0.8138
16631TIP3    H171384   6.799   5.951  11.699  2.4137  2.2937 -1.9480
16631TIP3    H271385   6.664   5.988  11.643 -0.3228 -2.1377  1.1101
16632TIP3   OH271386   1.931   1.956  14.764  0.8544  0.2086 -0.0328
16632TIP3    H171387   1.894   1.867  14.765  0.6519  0.2689 -1.1276
16632TIP3    H271388   2.025   1.942  14.754  0.6607  0.1167 -2.1332
16633TIP3   OH271389   1.128   0.622   1.516 -0.6833 -0.2298  0.3140
16633TIP3    H171390   1.079   0.694   1.478  0.1874  0.5742  0.6642
16633TIP3    H271391   1.120   0.550   1.453 -0.0243  0.7732 -0.9491
16634TIP3   OH271392   0.520   1.528   5.516 -0.3712 -0.6712 -0.3313
16634TIP3    H171393   0.467   1.455   5.484  0.6033 -1.1588 -0.8677
16634TIP3    H271394   0.523   1.589   5.443 -1.4533  0.0914  0.2235
16635TIP3   OH271395   4.189   1.232   3.350 -0.4955 -0.0025  0.2581
16635TIP3    H171396   4.119   1.295   3.370  0.2602  0.3499  1.9993
16635TIP3    H271397   4.268   1.273   3.385  0.2846 -1.1916 -0.0743
16636TIP3   OH271398   3.348   1.730  16.227 -1.0440 -0.4411  0.5945
16636TIP3    H171399   3.284   1.736  16.156  1.3060 -1.4221 -1.7609
16636TIP3    H271400   3.412   1.665  16.197  2.3818  2.1478  1.6398
16637TIP3   OH271401   5.652   5.268  15.790  0.2394 -0.6024  0.2223
16637TIP3    H171402   5.587   5.338  15.783  1.4504  0.3970 -2.2604
16637TIP3    H271403   5.655   5.247  15.883 -1.8029  1.0551  0.7285
16638TIP3   OH271404   2.123   3.628  13.964 -0.1636  0.9016 -0.1666
16638TIP3    H171405   2.073   3.701  14.001 -1.4595 -0.5872  1.2024
16638TIP3    H271406   2.068   3.551  13.980  0.7109 -0.2870 -2.4102
16639TIP3   OH271407   0.191   5.991  15.664 -0.3208  0.7597 -0.2429
16639TIP3    H171408   0.213   5.951  15.748 -0.5786  0.5494 -0.2744
16639TIP3    H271409   0.234   6.077  15.666  1.5335 -0.0925 -0.7995
16640TIP3   OH271410   5.204   1.555  14.128 -0.4630 -0.1829  0.5181
16640TIP3    H171411   5.289   1.578  14.165 -0.2368  1.1846 -0.7509
16640TIP3    H271412   5.163   1.639  14.107 -2.1255 -0.8092  1.0358
16641TIP3   OH271413   2.634   0.874   5.270  0.1196  0.3087  0.0452
16641TIP3    H171414   2.580   0.796   5.286 -0.3384  0.1806 -1.8187
16641TIP3    H271415   2.578   0.947   5.295  0.7647  0.0685  2.3686
16642TIP3   OH271416   5.757   1.031   0.479 -0.0439 -0.1370 -0.7076
16642TIP3    H171417   5.704   1.110   0.468  0.9460  0.9321  1.4769
16642TIP3    H271418   5.837   1.062   0.522  1.2055 -2.0852 -1.5021
16643TIP3   OH271419   2.411   5.738  13.925 -0.1289  0.7316 -0.5036
16643TIP3    H171420   2.411   5.820  13.876 -1.0199  0.5552 -0.8158
16643TIP3    H271421   2.503   5.712  13.930  0.0516  1.2100 -1.3050
16644TIP3   OH271422   6.173   1.410  13.029  0.3249  1.0646  0.5052
16644TIP3    H171423   6.222   1.382  13.106  1.6005  0.5172 -0.4724
16644TIP3    H271424   6.122   1.485  13.060  0.7954  0.8493  1.8824
16645TIP3   OH271425   0.716   5.329  12.942  0.1760 -0.7635  0.0794
16645TIP3    H171426   0.627   5.319  12.976 -0.8696 -0.2028 -2.2802
16645TIP3    H271427   0.768   5.266  12.992 -1.9426 -2.5729  0.1386
16646TIP3   OH271428   4.494   6.578   1.238 -0.6556  0.1723 -0.4590
16646TIP3    H171429   4.546   6.497   1.242 -0.5069  0.2090 -1.4214
16646TIP3    H271430   4.538   6.637   1.299  0.9823  0.4951 -1.8655
16647TIP3   OH271431   3.306   4.213  15.726 -0.0101 -0.5153 -0.2244
16647TIP3    H171432   3.266   4.235  15.641 -0.8318  2.0481  0.7324
16647TIP3    H271433   3.231   4.198  15.783  0.5026 -0.6100  0.4258
16648TIP3   OH271434   6.676   5.339  15.507 -0.2671  0.0163  0.3838
16648TIP3    H171435   6.633   5.256  15.488 -0.6740  0.5682 -1.3005
16648TIP3    H271436   6.619   5.405  15.467  1.2007  0.9145 -0.2898
16649TIP3   OH271437   4.156   0.233  15.557 -0.9158  0.0587  0.3478
16649TIP3    H171438   4.177   0.290  15.483  0.6137 -0.8644  0.0204
16649TIP3    H271439   4.195   0.278  15.633 -0.9753  0.1607  0.3177
16650TIP3   OH271440   0.768   0.747   0.817  0.6316 -0.0028  0.6770
16650TIP3    H171441   0.848   0.695   0.814  0.9529  0.4939  0.5411
16650TIP3    H271442   0.733   0.742   0.728  0.6102 -0.0605  0.6883
16651TIP3   OH271443   5.669   2.694   0.912  0.6558 -0.2653 -0.2486
16651TIP3    H171444   5.623   2.624   0.958 -0.9073  0.8347 -0.0858
16651TIP3    H271445   5.756   2.658   0.896 -0.2714 -2.4636 -0.6909
16652TIP3   OH271446   6.596   6.743  17.039 -0.1248 -0.7281  0.2681
16652TIP3    H171447   6.675   6.780  16.999 -0.4930 -0.2718 -0.0389
16652TIP3    H271448   6.526   6.763  16.977 -0.2756 -2.3221 -0.1387
16653TIP3   OH271449   4.581   0.538  14.516  0.2894  0.0903  0.6049
16653TIP3    H171450   4.625   0.455  14.500 -0.8817 -0.8531  1.9661
16653TIP3    H271451   4.507   0.538  14.456 -0.9924 -0.9422  2.0941
16654TIP3   OH271452   1.993   5.499  11.491  0.5559 -0.1859  0.1194
16654TIP3    H171453   1.999   5.408  11.521 -1.2141 -0.9497 -1.5911
16654TIP3    H271454   1.907   5.528  11.520  1.1805  1.0287  0.7997
16655TIP3   OH271455   4.876   1.030  14.254 -0.2854  0.0166  0.1781
16655TIP3    H171456   4.854   1.019  14.347 -1.5772 -1.1404 -0.2350
16655TIP3    H271457   4.922   0.949  14.231 -0.0173  0.2774 -0.2093
16656TIP3   OH271458   0.899   6.223  15.616  0.1933 -0.7387  0.3108
16656TIP3    H171459   0.942   6.138  15.621 -0.1744 -0.9863 -0.4750
16656TIP3    H271460   0.910   6.250  15.525 -0.3226 -0.2837  0.3764
16657TIP3   OH271461   1.222   5.556  15.959 -0.0429 -0.1260 -0.0514
16657TIP3    H171462   1.220   5.523  15.869  1.2892 -0.0393 -0.1256
16657TIP3    H271463   1.314   5.573  15.976 -0.2114 -0.6538  1.5260
16658TIP3   OH271464   0.725   5.700  13.848 -0.2169 -0.0805 -0.2083
16658TIP3    H171465   0.793   5.696  13.916 -0.8277 -1.9830  0.3479
16658TIP3    H271466   0.770   5.735  13.771  0.2835  3.0456  1.3435
16659TIP3   OH271467   2.570   6.796  15.972  0.3490 -0.3420 -0.1179
16659TIP3    H171468   2.635   6.866  15.963 -1.2726  1.1577 -1.0623
16659TIP3    H271469   2.492   6.840  16.007 -1.0240 -1.4516 -1.6009
16660TIP3   OH271470   6.411   2.429  12.028 -0.6373  0.0147 -0.3500
16660TIP3    H171471   6.326   2.386  12.015 -0.9738  0.7967 -0.8233
16660TIP3    H271472   6.390   2.513  12.068 -0.1964  0.6607 -1.4209
16661TIP3   OH271473   6.138   6.566   3.516  0.2027  0.2112 -0.2359
16661TIP3    H171474   6.051   6.604   3.501  0.4472  0.6884 -0.4572
16661TIP3    H271475   6.123   6.472   3.516 -0.2193  0.2716 -0.9024
16662TIP3   OH271476   4.121   3.800  16.241  0.1077 -0.3850 -0.2827
16662TIP3    H171477   4.202   3.815  16.289 -0.3294  0.3505  0.2451
16662TIP3    H271478   4.117   3.705  16.229  1.6190 -0.3499 -1.3609
16663TIP3   OH271479   6.151   4.794   1.705  0.6236 -0.5040  0.4350
16663TIP3    H171480   6.173   4.820   1.795  0.2371 -0.5650  0.5490
16663TIP3    H271481   6.056   4.797   1.702  0.6223 -0.8196  0.1189
16664TIP3   OH271482   3.527   4.723  17.135 -0.2799  0.1138 -0.4283
16664TIP3    H171483   3.455   4.735  17.197 -0.0202  2.0666 -0.4473
16664TIP3    H271484   3.514   4.635  17.099 -1.0619 -0.6411  1.5738
16665TIP3   OH271485   5.338   0.470   1.782  0.2380  0.4671  0.0837
16665TIP3    H171486   5.313   0.432   1.698  0.9850  0.4723 -0.1528
16665TIP3    H271487   5.310   0.561   1.776 -0.3678  0.2906  0.1335
16666TIP3   OH271488   3.650   0.384  15.661 -0.0871 -0.0221  0.3646
16666TIP3    H171489   3.650   0.400  15.755  1.1685  2.4562  0.0447
16666TIP3    H271490   3.690   0.298  15.651 -1.1652 -0.7794  2.1120
16667TIP3   OH271491   6.795   6.740   1.615  0.2594 -0.0467 -0.3246
16667TIP3    H171492   6.744   6.663   1.591 -0.8258 -0.0836  1.7870
16667TIP3    H271493   6.886   6.713   1.603 -0.1215 -1.3834 -0.4209
16668TIP3   OH271494   1.703   4.772   0.821 -0.2558 -0.1510 -0.2619
16668TIP3    H171495   1.630   4.797   0.763  0.7390  3.4807 -0.2293
16668TIP3    H271496   1.775   4.828   0.792  0.8231  0.4757  3.2610
16669TIP3   OH271497   0.557   5.288  11.360  0.5006  0.1234  0.0267
16669TIP3    H171498   0.652   5.273  11.363  0.3415 -0.8752  0.6799
16669TIP3    H271499   0.521   5.222  11.418 -0.5462  1.0413  0.4538
16670TIP3   OH271500   5.439   6.664  14.847 -0.3509  0.1495 -0.3570
16670TIP3    H171501   5.346   6.678  14.864  0.2174  1.9885  1.6662
16670TIP3    H271502   5.471   6.749  14.816  0.6980 -0.4360 -0.9543
16671TIP3   OH271503   5.347   1.193   0.601  0.6004  0.4929  0.2497
16671TIP3    H171504   5.335   1.128   0.532  0.8101 -0.6430  1.2465
16671TIP3    H271505   5.379   1.271   0.556 -0.6860  0.2730 -1.1189
16672TIP3   OH271506   0.147   6.254  11.932  0.7023 -0.1541 -0.0628
16672TIP3    H171507   0.100   6.312  11.872 -1.9870 -2.2587 -0.2354
16672TIP3    H271508   0.222   6.223  11.883 -0.6545 -0.7130 -1.8955
16673TIP3   OH271509   2.189   3.872   3.166 -0.0925  0.3060  0.7430
16673TIP3    H171510   2.182   3.819   3.246 -0.4192  0.6550  0.9472
16673TIP3    H271511   2.153   3.957   3.190  0.2332  0.5591  0.3544
16674TIP3   OH271512   2.024   2.631  15.700  0.0348 -0.2883 -0.2946
16674TIP3    H171513   2.057   2.541  15.691  0.7573  0.0561 -1.2508
16674TIP3    H271514   2.033   2.668  15.612  0.7023  1.0601  0.3262
16675TIP3   OH271515   2.240   3.233  12.177 -0.5543 -0.2687  0.5564
16675TIP3    H171516   2.234   3.268  12.267 -0.1113  0.7249  0.2146
16675TIP3    H271517   2.263   3.309  12.124  1.0190 -1.2008 -0.1442
16676TIP3   OH271518   3.720   4.852  14.025 -0.6675  0.4338 -0.1386
16676TIP3    H171519   3.722   4.870  13.931  0.5230 -0.6246 -0.3469
16676TIP3    H271520   3.633   4.880  14.053 -1.6471 -0.6861 -1.8673
16677TIP3   OH271521   3.227   6.588  12.298  0.6165 -0.0809  0.0898
16677TIP3    H171522   3.302   6.559  12.245  0.6917  0.2614  0.0073
16677TIP3    H271523   3.192   6.663  12.251  0.0628 -0.3921  0.0007
16678TIP3   OH271524   0.054   0.171  12.345  0.0505 -0.0630 -0.5348
16678TIP3    H171525  -0.035   0.205  12.350  0.1430  0.1973 -0.6763
16678TIP3    H271526   0.061   0.133  12.258  0.9110  2.2513 -1.5484
16679TIP3   OH271527   5.577   6.666   5.727  0.1510  0.4589 -0.1623
16679TIP3    H171528   5.608   6.756   5.714 -0.6515  1.0678  1.7271
16679TIP3    H271529   5.615   6.640   5.811 -0.9915 -0.3252  0.1358
16680TIP3   OH271530   3.693   4.135   6.326 -0.1037 -0.3685 -0.8331
16680TIP3    H171531   3.723   4.225   6.314 -1.5579  0.4251  0.9910
16680TIP3    H271532   3.739   4.085   6.258  2.3219  1.3751 -0.6177
16681TIP3   OH271533   5.277   4.404   0.842 -0.7996 -0.5809  0.4174
16681TIP3    H171534   5.287   4.315   0.807  1.0031 -0.3274  0.1879
16681TIP3    H271535   5.274   4.460   0.764  0.3904 -0.2618  0.5789
16682TIP3   OH271536   2.913   3.390   1.183 -0.3054 -0.0180  0.0056
16682TIP3    H171537   3.003   3.419   1.169  0.9711 -2.4513  2.1686
16682TIP3    H271538   2.893   3.335   1.107  1.7240 -2.8093  1.3048
16683TIP3   OH271539   6.387   0.210   2.654  0.2200  0.2639  0.3840
16683TIP3    H171540   6.421   0.299   2.664 -1.0053  0.6730  1.0686
16683TIP3    H271541   6.305   0.210   2.702  0.0498 -1.1628  0.1341
16684TIP3   OH271542   5.253   1.732   1.200  0.0993 -0.1588  0.4332
16684TIP3    H171543   5.278   1.675   1.126  0.4496 -0.5454  0.8416
16684TIP3    H271544   5.333   1.739   1.252 -0.7684 -1.9461  2.1168
16685TIP3   OH271545   1.164   3.105  13.309  0.3563  0.0315  0.2998
16685TIP3    H171546   1.248   3.060  13.313  0.0317 -0.6102  0.0363
16685TIP3    H271547   1.126   3.077  13.226  0.9491  2.2338 -0.7858
16686TIP3   OH271548   3.710   3.093  16.418  0.3416  0.4785  0.3916
16686TIP3    H171549   3.648   3.069  16.348 -0.6788  1.0233  1.0820
16686TIP3    H271550   3.796   3.079  16.379 -0.1862 -1.4685 -0.2129
16687TIP3   OH271551   5.729   1.740  15.261  0.3740 -0.2861  0.5397
16687TIP3    H171552   5.725   1.759  15.354 -1.0080  0.5607  0.3370
16687TIP3    H271553   5.820   1.758  15.236  0.1261  2.1929  1.1985
16688TIP3   OH271554   0.702   0.022   4.055  0.4161  0.1947  0.4590
16688TIP3    H171555   0.612   0.001   4.082 -0.2156 -0.1355 -1.7203
16688TIP3    H271556   0.694   0.105   4.008  1.2471  0.1712  0.2584
16689TIP3   OH271557   0.378   2.828  11.984  0.1268 -0.1790  0.3406
16689TIP3    H171558   0.293   2.801  12.018 -0.4810 -0.1744 -1.0913
16689TIP3    H271559   0.392   2.773  11.907  0.4212  1.2305 -0.6708
16690TIP3   OH271560   4.369   4.153   0.842 -0.5757  0.8548  0.2140
16690TIP3    H171561   4.373   4.226   0.780 -0.8342  0.9155  0.2660
16690TIP3    H271562   4.390   4.193   0.927  0.7360  0.5907  0.0278
16691TIP3   OH271563   3.869   1.321   2.412 -0.3701  0.2297  0.2314
16691TIP3    H171564   3.921   1.253   2.369  1.5490  1.1044  1.0394
16691TIP3    H271565   3.804   1.347   2.347 -0.2164 -1.3492 -0.5967
16692TIP3   OH271566   4.056   0.768   4.031 -0.2666  0.1729 -0.4609
16692TIP3    H171567   3.961   0.774   4.017 -0.3970  0.1178  0.3723
16692TIP3    H271568   4.069   0.682   4.071  0.3454 -0.5609 -2.1113
16693TIP3   OH271569   4.417   4.624   5.751  0.2815 -0.0477 -0.4769
16693TIP3    H171570   4.344   4.610   5.812 -0.3748 -1.4940 -1.5590
16693TIP3    H271571   4.398   4.709   5.711 -1.3088 -0.7768 -1.3668
16694TIP3   OH271572   5.558   0.058  13.645 -0.2917  0.8624  0.3303
16694TIP3    H171573   5.530   0.142  13.608 -1.1430  1.0006  1.2277
16694TIP3    H271574   5.640   0.077  13.690  0.8776  0.6442 -1.6045
16695TIP3   OH271575   6.623   4.718   4.395  0.4179  0.2352  0.5178
16695TIP3    H171576   6.609   4.809   4.421  1.8982  0.4964  0.4566
16695TIP3    H271577   6.642   4.672   4.477 -1.5612 -0.3213  0.7355
16696TIP3   OH271578   3.007   5.869  13.148 -0.1059  0.0319  0.7304
16696TIP3    H171579   2.923   5.902  13.181 -0.2193 -1.2380  1.7705
16696TIP3    H271580   2.994   5.775  13.137  0.8403 -0.0109 -0.2309
16697TIP3   OH271581   5.274   4.012  12.627  0.3735  0.0377  0.0084
16697TIP3    H171582   5.218   3.960  12.684 -0.5845  0.0763 -0.8510
16697TIP3    H271583   5.357   4.019  12.673  0.5389 -2.2602  0.1393
16698TIP3   OH271584   0.437   6.065  16.601  0.1524 -0.3782 -0.0997
16698TIP3    H171585   0.451   6.101  16.689  1.9615  0.7264 -0.8052
16698TIP3    H271586   0.345   6.038  16.602 -0.3688  1.2270  1.5547
16699TIP3   OH271587   4.959   1.075   5.317 -0.4036  0.3791 -0.0265
16699TIP3    H171588   4.924   0.988   5.300  0.7356 -0.1443  0.1693
16699TIP3    H271589   4.900   1.135   5.271 -1.4390 -0.4544  0.1892
16700TIP3   OH271590   1.124   6.206  17.123  0.0756  0.3423 -0.5910
16700TIP3    H171591   1.117   6.110  17.128 -0.6751  0.4011  3.5347
16700TIP3    H271592   1.049   6.233  17.069 -0.4112 -1.3577 -0.8247
16701TIP3   OH271593   0.140   1.590  11.610 -0.3858  0.7211  0.3622
16701TIP3    H171594   0.098   1.507  11.587  1.7526  0.2455 -2.3230
16701TIP3    H271595   0.215   1.565  11.664 -0.0187  0.9276 -0.0456
16702TIP3   OH271596   4.392   1.042   4.880 -0.2471  0.3394 -0.0344
16702TIP3    H171597   4.411   1.075   4.968  0.9990 -0.3414 -0.0343
16702TIP3    H271598   4.366   1.120   4.831 -1.0275  0.7252  0.9316
16703TIP3   OH271599   3.306   0.503  12.438  0.0389  0.4660  0.1291
16703TIP3    H171600   3.391   0.537  12.409  0.1875  0.0735  0.0982
16703TIP3    H271601   3.326   0.417  12.474 -0.3490  0.3723  0.1246
16704TIP3   OH271602   0.234   3.369   4.878 -0.6797 -0.0875 -0.0153
16704TIP3    H171603   0.172   3.300   4.899 -0.1665 -0.6553 -0.3038
16704TIP3    H271604   0.249   3.359   4.784 -0.3008  0.1566  0.0164
16705TIP3   OH271605   5.196   6.741   1.080 -0.4668 -0.5222 -0.2501
16705TIP3    H171606   5.190   6.833   1.103 -0.0753 -0.5527 -0.0081
16705TIP3    H271607   5.265   6.737   1.013  0.1422 -0.7398  0.3682
16706TIP3   OH271608   6.205   0.744   5.589  0.4130  0.2697  0.0533
16706TIP3    H171609   6.115   0.768   5.566  0.3365  0.2005  0.2823
16706TIP3    H271610   6.256   0.765   5.511 -0.0427 -1.1246 -0.6695
16707TIP3   OH271611   5.109   1.605  11.586 -0.4512  0.2308 -0.5322
16707TIP3    H171612   5.064   1.657  11.520 -0.7713  0.6179 -0.0231
16707TIP3    H271613   5.097   1.654  11.667  0.4541  0.0763 -0.2933
16708TIP3   OH271614   6.165   4.831  14.644  0.4657 -0.0358 -0.0648
16708TIP3    H171615   6.231   4.765  14.666  1.4471  0.4370 -1.5124
16708TIP3    H271616   6.202   4.913  14.676 -1.1096 -0.2043  2.4763
16709TIP3   OH271617   2.141   3.631  13.160  0.5241  0.1698 -0.1386
16709TIP3    H171618   2.140   3.606  13.253 -1.1197  1.1858  0.1617
16709TIP3    H271619   2.049   3.644  13.138  0.7980 -0.9110 -2.1795
16710TIP3   OH271620   4.318   5.223   6.226 -0.1778  0.1197 -0.2204
16710TIP3    H171621   4.390   5.184   6.175 -0.5618  0.3406 -0.9410
16710TIP3    H271622   4.347   5.313   6.243  0.2532 -0.1527  0.5607
16711TIP3   OH271623   2.771   1.984  14.051 -0.1329 -0.0692 -0.8286
16711TIP3    H171624   2.729   2.047  13.991  1.3522 -0.4994 -2.4136
16711TIP3    H271625   2.768   1.901  14.004  1.3394 -0.3616 -0.4492
16712TIP3   OH271626   3.798   2.685   0.917  0.3203  0.0769 -0.0737
16712TIP3    H171627   3.762   2.676   1.006  0.4849 -1.6179 -0.1476
16712TIP3    H271628   3.721   2.680   0.860  0.0636  2.3779 -0.0387
16713TIP3   OH271629   6.398   0.483   4.730 -0.0349  0.0952 -0.4048
16713TIP3    H171630   6.363   0.568   4.705 -0.0936  0.6263  1.3486
16713TIP3    H271631   6.325   0.439   4.775  0.0334 -0.8406 -1.1642
16714TIP3   OH271632   5.229   2.124  13.733  0.1544 -0.1824 -0.4977
16714TIP3    H171633   5.310   2.173  13.722 -0.6377  1.3105  0.0007
16714TIP3    H271634   5.227   2.102  13.826 -0.6015  0.9117 -0.2385
16715TIP3   OH271635   0.465   3.592   6.264 -0.0736 -0.4061  0.0121
16715TIP3    H171636   0.475   3.538   6.342 -1.0610 -0.3033  0.2189
16715TIP3    H271637   0.373   3.581   6.239  0.2925 -0.6355 -1.2862
16716TIP3   OH271638   4.177   2.705   3.901  0.2091 -0.2481 -0.7465
16716TIP3    H171639   4.151   2.645   3.971  2.8981 -1.4146 -0.6569
16716TIP3    H271640   4.142   2.666   3.821 -3.9399  1.6994 -0.1693
16717TIP3   OH271641   1.416   4.450   2.671 -0.0159 -0.3063  0.2763
16717TIP3    H171642   1.468   4.486   2.743 -0.0914  0.9334 -0.2717
16717TIP3    H271643   1.467   4.377   2.638  0.0142 -0.9065  1.5997
16718TIP3   OH271644   6.633   1.678  16.294  0.2572 -0.5869  0.1898
16718TIP3    H171645   6.710   1.629  16.265 -0.1457  0.1361 -2.3252
16718TIP3    H271646   6.576   1.680  16.218 -1.7794 -0.1125  1.6480
16719TIP3   OH271647   4.937   5.921   6.424 -0.0389  0.3506 -0.3590
16719TIP3    H171648   4.999   5.992   6.441  1.0568 -0.6596  0.0027
16719TIP3    H271649   4.888   5.950   6.347 -0.6164  2.1240  0.6028
16720TIP3   OH271650   3.554   2.276  12.192 -0.3789 -0.3638  0.3649
16720TIP3    H171651   3.574   2.192  12.232 -1.1555 -1.4261 -1.3615
16720TIP3    H271652   3.458   2.276  12.183 -0.2495 -0.2747 -1.5672
16721TIP3   OH271653   2.131   0.961   3.034 -0.7233  0.3868  0.1315
16721TIP3    H171654   2.168   0.988   2.950  0.1674 -0.4621  0.2310
16721TIP3    H271655   2.038   0.944   3.014 -0.6977  0.9312 -0.5007
16722TIP3   OH271656   5.073   5.851  12.939 -0.1726 -0.1333 -0.1623
16722TIP3    H171657   4.999   5.898  12.977  1.6894  2.8209  0.1471
16722TIP3    H271658   5.065   5.762  12.972 -2.1324  0.7324  1.9439
16723TIP3   OH271659   5.281   1.217  15.051  0.3565  0.2630 -0.6579
16723TIP3    H171660   5.269   1.206  14.956  0.1554 -0.1894 -0.5822
16723TIP3    H271661   5.347   1.286  15.059 -1.3946  2.0690 -1.1047
16724TIP3   OH271662   0.234   3.569  16.056 -0.0428 -0.1274 -0.0979
16724TIP3    H171663   0.172   3.609  15.994  1.4157  0.3138 -1.3207
16724TIP3    H271664   0.255   3.484  16.018  0.1044 -0.2833  0.3253
16725TIP3   OH271665   1.099   1.089  16.578  0.5979  0.6397  0.1318
16725TIP3    H171666   1.160   1.087  16.505 -0.5018 -1.0117 -0.8033
16725TIP3    H271667   1.077   0.997  16.594 -0.6228  1.0933  1.3163
16726TIP3   OH271668   2.825   4.431   1.017 -0.1314  0.2002 -0.4278
16726TIP3    H171669   2.761   4.400   0.954 -0.6114  0.7904 -0.2510
16726TIP3    H271670   2.785   4.511   1.053 -0.7149 -1.0637  1.9289
16727TIP3   OH271671   1.707   0.757  15.849  0.1031 -0.5502  0.4820
16727TIP3    H171672   1.802   0.760  15.837  0.0524  1.7679  0.3468
16727TIP3    H271673   1.673   0.724  15.766  0.7089 -0.0079  0.0104
16728TIP3   OH271674   2.863   6.747   1.079 -0.1710  0.2808  0.1321
16728TIP3    H171675   2.916   6.770   1.002 -0.2941 -0.3447 -0.1482
16728TIP3    H271676   2.864   6.826   1.133 -0.0751  0.7330 -0.5073
16729TIP3   OH271677   0.578   1.888  11.767 -0.6585  0.0785 -0.3058
16729TIP3    H171678   0.569   1.983  11.774 -2.2328  0.0834 -1.8145
16729TIP3    H271679   0.636   1.864  11.839 -1.2454  2.0239  0.8671
16730TIP3   OH271680   5.569   0.614  11.107  0.1876  0.4630  0.9544
16730TIP3    H171681   5.622   0.692  11.092  1.0865 -0.5407 -1.6444
16730TIP3    H271682   5.631   0.548  11.136 -0.1371  0.0568  0.7331
16731TIP3   OH271683   5.139   6.351   6.423  0.1085 -0.0831  0.1188
16731TIP3    H171684   5.097   6.433   6.397  0.5112  0.3559  0.8118
16731TIP3    H271685   5.200   6.376   6.492 -0.9147 -1.1886  1.4968
16732TIP3   OH271686   4.831   4.136  13.595 -0.4054 -0.2235  0.1114
16732TIP3    H171687   4.925   4.144  13.612 -0.0884  1.0669 -1.8398
16732TIP3    H271688   4.794   4.216  13.631 -0.4163  0.2647 -0.9489
16733TIP3   OH271689   3.181   4.221  15.489  0.1538  0.2462  0.1005
16733TIP3    H171690   3.103   4.253  15.445 -0.0449  0.6155  0.7141
16733TIP3    H271691   3.211   4.148  15.435  0.4950  1.3125 -1.2000
16734TIP3   OH271692   0.818   2.639  14.492 -0.0438  0.2331  0.6286
16734TIP3    H171693   0.875   2.572  14.454 -0.6893  0.5883 -1.0332
16734TIP3    H271694   0.758   2.662  14.422 -1.3606  0.8659  1.9168
16735TIP3   OH271695   5.636   1.796  14.378  0.4156 -0.7754  0.5250
16735TIP3    H171696   5.588   1.741  14.316  0.9189  1.6074 -2.1614
16735TIP3    H271697   5.724   1.759  14.379  0.4917 -0.6439 -0.4859
16736TIP3   OH271698   4.135   1.400  14.424 -0.1841  0.1504  0.3026
16736TIP3    H171699   4.068   1.468  14.433  0.2366  1.1762 -3.0435
16736TIP3    H271700   4.218   1.448  14.420  0.1220 -0.4595 -2.0545
16737TIP3   OH271701   6.311   6.801  15.135 -0.0701  0.0341  0.2778
16737TIP3    H171702   6.399   6.808  15.170 -0.8466  0.5722  2.2110
16737TIP3    H271703   6.305   6.872  15.070  0.9805 -0.1969 -0.0909
16738TIP3   OH271704   5.478   0.266  16.172 -0.4757 -0.1883  0.5932
16738TIP3    H171705   5.407   0.233  16.228 -0.8275 -1.6988 -0.6781
16738TIP3    H271706   5.558   0.228  16.210 -0.6928 -1.0478  0.2148
16739TIP3   OH271707   4.785   6.267   0.895  0.1435 -0.1045  0.1555
16739TIP3    H171708   4.762   6.178   0.868 -3.0709  0.4054  0.7486
16739TIP3    H271709   4.824   6.257   0.981  1.2294 -0.9985 -0.4084
16740TIP3   OH271710   4.420   2.081   0.791  0.3256 -0.0260  0.1491
16740TIP3    H171711   4.515   2.091   0.784  0.5212 -1.5117  0.2872
16740TIP3    H271712   4.408   2.025   0.867 -0.8250  2.0812  1.6016
16741TIP3   OH271713   2.704   3.701  15.657 -0.2295 -0.3883  0.4897
16741TIP3    H171714   2.624   3.651  15.639 -0.6967 -0.1883  1.8368
16741TIP3    H271715   2.775   3.639  15.644 -0.8044 -1.4971  2.3195
16742TIP3   OH271716   5.807   1.548   2.554  0.3015 -0.2057  0.1469
16742TIP3    H171717   5.745   1.579   2.488 -0.9923 -3.5272 -0.3983
16742TIP3    H271718   5.762   1.560   2.637 -0.8553 -1.8419 -0.1865
16743TIP3   OH271719   4.722   5.466   6.229 -0.1599  0.3294 -0.2009
16743TIP3    H171720   4.780   5.538   6.252  1.5925 -0.6358 -1.2865
16743TIP3    H271721   4.699   5.425   6.312  0.1676  1.1598  0.3048
16744TIP3   OH271722   4.310   0.156  12.416  0.4706  0.0678 -0.1336
16744TIP3    H171723   4.257   0.125  12.490 -0.3475 -2.1455 -1.5405
16744TIP3    H271724   4.290   0.249  12.409 -0.9790 -0.1102  1.1674
16745TIP3   OH271725   1.473   5.463   5.959 -0.3671 -0.6618  0.7142
16745TIP3    H171726   1.413   5.512   5.902  2.2744  1.2805 -0.6178
16745TIP3    H271727   1.502   5.389   5.906  0.9644  0.3199  0.0320
16746TIP3   OH271728   3.789   4.817   3.797 -0.5254  0.5390 -0.1760
16746TIP3    H171729   3.866   4.803   3.851 -0.5268  0.2430 -0.2509
16746TIP3    H271730   3.732   4.873   3.851  0.3702  2.0305 -0.7121
16747TIP3   OH271731   0.332   3.160   6.228 -0.5530 -0.1739  0.1807
16747TIP3    H171732   0.372   3.158   6.315 -0.0068  0.3531 -0.0470
16747TIP3    H271733   0.267   3.090   6.229 -0.0072 -0.6827  0.7531
16748TIP3   OH271734   3.000   6.492  14.030  0.1007  0.6146 -0.6991
16748TIP3    H171735   3.060   6.438  14.080  1.4969  3.3307  0.7783
16748TIP3    H271736   3.014   6.467  13.939  1.2043 -0.9281 -0.1326
16749TIP3   OH271737   4.209   4.268  16.712  0.1096 -0.1366 -0.0513
16749TIP3    H171738   4.184   4.212  16.639  0.8055 -0.7836  0.1871
16749TIP3    H271739   4.259   4.340  16.672  2.1331 -1.4704 -0.0895
16750TIP3   OH271740   6.367   6.807   4.761  0.2894  0.0794  0.1584
16750TIP3    H171741   6.312   6.737   4.796  1.1247 -0.4873  0.3430
16750TIP3    H271742   6.454   6.789   4.795  0.9216  0.0929 -1.3590
16751TIP3   OH271743   3.559   6.219   4.571 -0.4914 -0.1293  0.0036
16751TIP3    H171744   3.646   6.179   4.569  0.1742  1.2006  1.0724
16751TIP3    H271745   3.576   6.313   4.571 -1.8393  0.1714  2.1383
16752TIP3   OH271746   0.171   4.827  13.120 -0.1391 -0.2164  0.2305
16752TIP3    H171747   0.207   4.916  13.113 -1.7962  0.4024 -1.6774
16752TIP3    H271748   0.193   4.798  13.208  1.2053  1.7449  0.6012
16753TIP3   OH271749   3.633   1.746  12.126 -0.3345 -0.2360 -0.1481
16753TIP3    H171750   3.718   1.727  12.165 -0.0365 -1.3695 -1.2986
16753TIP3    H271751   3.593   1.660  12.111  0.1142 -0.0035 -3.4677
16754TIP3   OH271752   4.542   0.326  11.724 -0.2981 -0.1305  0.6592
16754TIP3    H171753   4.569   0.234  11.724  0.6040  0.1199  1.1011
16754TIP3    H271754   4.536   0.349  11.816  1.3049  0.7496  0.5745
16755TIP3   OH271755   1.412   5.881   3.788 -0.1183 -0.1759  0.1797
16755TIP3    H171756   1.488   5.877   3.846  0.5343 -1.4381 -0.7117
16755TIP3    H271757   1.448   5.871   3.700 -1.1513  1.0643 -0.4145
16756TIP3   OH271758   1.212   1.691  14.223  0.1797 -0.5908 -0.0622
16756TIP3    H171759   1.245   1.689  14.133  1.1265  1.2752  0.1902
16756TIP3    H271760   1.117   1.700  14.214  0.4429  2.5153 -1.0038
16757TIP3   OH271761   6.011   1.296  11.280 -0.0428  0.1941  0.2485
16757TIP3    H171762   6.071   1.371  11.275 -0.9922  1.0074  0.8001
16757TIP3    H271763   5.996   1.283  11.373 -0.6382 -0.0721  0.1180
16758TIP3   OH271764   4.548   4.560   4.703  0.0446  0.3055 -0.3676
16758TIP3    H171765   4.636   4.593   4.718  0.0467 -0.1574  0.7773
16758TIP3    H271766   4.559   4.481   4.650  0.1589  1.2168 -1.7527
16759TIP3   OH271767   2.003   5.770   5.920  0.4943  0.4274 -0.3194
16759TIP3    H171768   1.935   5.811   5.972 -1.0533  0.6461 -2.3846
16759TIP3    H271769   1.966   5.685   5.895  1.4885  0.0286 -0.5138
16760TIP3   OH271770   1.299   3.580   2.729  0.1799 -0.3792 -0.8465
16760TIP3    H171771   1.308   3.519   2.802  0.1204 -2.0226 -2.1467
16760TIP3    H271772   1.205   3.595   2.721 -0.0742 -2.3770 -2.2334
16761TIP3   OH271773   0.835   1.995   4.518 -0.2684  0.3264  0.3443
16761TIP3    H171774   0.855   1.942   4.595 -1.3405  0.0284  0.4307
16761TIP3    H271775   0.760   2.048   4.544 -0.9165 -0.0817 -0.6108
16762TIP3   OH271776   2.606   0.329  12.598 -0.1531  0.1606  0.4436
16762TIP3    H171777   2.665   0.389  12.553  1.4679 -1.0134  0.9257
16762TIP3    H271778   2.540   0.307  12.532  0.2713  1.0388 -0.2970
16763TIP3   OH271779   1.195   2.046  17.144  0.8779 -0.7843  0.8539
16763TIP3    H171780   1.126   1.999  17.191 -1.1371 -1.0376 -2.0985
16763TIP3    H271781   1.242   1.977  17.096  1.8016 -0.3708  1.1454
16764TIP3   OH271782   0.752   5.719   4.709 -0.2208  0.2343  0.2898
16764TIP3    H171783   0.678   5.780   4.704 -2.3015 -2.1827 -0.5866
16764TIP3    H271784   0.721   5.649   4.766 -0.0125 -2.4637 -2.6139
16765TIP3   OH271785   5.160   3.534   2.232  0.0815 -0.0670  0.3330
16765TIP3    H171786   5.148   3.617   2.278 -1.5116  1.1062 -2.0207
16765TIP3    H271787   5.076   3.489   2.242  0.1777 -0.3892 -0.2602
16766TIP3   OH271788   4.445   1.331   2.914 -0.2582 -0.5340  0.0333
16766TIP3    H171789   4.471   1.417   2.879 -2.5068 -0.1500 -0.9183
16766TIP3    H271790   4.501   1.268   2.869  2.0517  0.4310  1.3958
16767TIP3   OH271791   5.750   4.103  15.471 -0.4981  0.1516 -0.1045
16767TIP3    H171792   5.727   4.017  15.436 -1.5621  0.1099  0.6627
16767TIP3    H271793   5.727   4.164  15.401 -0.5620 -0.1129 -0.3156
16768TIP3   OH271794   6.289   5.547  13.165 -0.0306  0.1214  0.7495
16768TIP3    H171795   6.351   5.530  13.093 -1.5304 -2.4511 -0.0897
16768TIP3    H271796   6.233   5.617  13.132  1.7499  1.8022  1.1332
16769TIP3   OH271797   2.837   4.771   3.521  0.2820  0.5059 -0.1433
16769TIP3    H171798   2.816   4.805   3.434 -1.0608 -0.3077 -0.1590
16769TIP3    H271799   2.822   4.676   3.515  0.4075  0.4007  0.9086
16770TIP3   OH271800   1.281   2.853   6.140 -0.0931 -0.0494  0.2775
16770TIP3    H171801   1.299   2.762   6.163 -2.0250 -0.4749  0.2762
16770TIP3    H271802   1.331   2.904   6.204  0.4859 -1.1098  0.7008
16771TIP3   OH271803   2.993   3.282   4.942  0.4868  0.7593 -0.1407
16771TIP3    H171804   2.903   3.252   4.931  0.5915 -0.6578  2.2122
16771TIP3    H271805   3.023   3.302   4.853 -0.2786 -4.3055 -1.8658
16772TIP3   OH271806   1.837   0.299  12.795 -0.0975  0.3166 -0.5328
16772TIP3    H171807   1.835   0.284  12.890  3.0693 -0.2083 -0.4415
16772TIP3    H271808   1.811   0.390  12.784  1.8360  1.1379  1.1302
16773TIP3   OH271809   3.222   0.845  11.985  0.0227  0.4121  0.1097
16773TIP3    H171810   3.248   0.880  11.900  1.1123 -2.4812 -0.8759
16773TIP3    H271811   3.144   0.793  11.967 -0.5705  0.8854  1.1826
16774TIP3   OH271812   0.205   0.004   2.722 -0.2351  0.2049  0.7046
16774TIP3    H171813   0.171   0.070   2.662  2.2948 -0.0461 -1.1472
16774TIP3    H271814   0.143  -0.068   2.715 -1.1704  1.0348  0.1086
16775TIP3   OH271815   2.834   1.704   4.497 -0.1816 -0.0331 -0.0254
16775TIP3    H171816   2.915   1.754   4.497 -0.2907  0.1496 -0.2317
16775TIP3    H271817   2.815   1.686   4.589 -0.9772  1.6732  0.1923
16776TIP3   OH271818   3.944   1.727  13.989 -0.4199 -0.1908  0.3525
16776TIP3    H171819   4.016   1.703  13.931 -0.6441  1.7355 -0.7933
16776TIP3    H271820   3.903   1.643  14.012 -1.4141 -0.9978 -3.6949
16777TIP3   OH271821   5.234   4.973  12.807 -0.4101  0.3487 -0.4207
16777TIP3    H171822   5.196   4.980  12.719  1.0603  0.8688 -1.0362
16777TIP3    H271823   5.158   4.971  12.866 -1.4059  0.2983 -1.6717
16778TIP3   OH271824   6.564   0.020   1.959  0.0152  0.2038  0.2531
16778TIP3    H171825   6.561   0.103   2.005 -0.9594  0.8428 -0.8764
16778TIP3    H271826   6.654   0.013   1.926 -0.5573  2.2634 -2.0712
16779TIP3   OH271827   2.587   0.025  11.086 -0.4639 -0.0036  0.0461
16779TIP3    H171828   2.554   0.054  11.001 -0.2062  0.3860  0.0820
16779TIP3    H271829   2.682   0.035  11.080 -0.4114 -0.3564  0.2404
16780TIP3   OH271830   0.011   2.380   4.973  0.3804 -0.1228  0.2667
16780TIP3    H171831   0.005   2.447   4.905 -1.8294  1.4266  1.8266
16780TIP3    H271832  -0.010   2.298   4.928 -1.6969  0.9470 -0.8572
16781TIP3   OH271833   3.171   4.067   1.819 -0.0559 -0.3202 -0.3487
16781TIP3    H171834   3.234   4.089   1.887  0.1690 -0.5606 -0.4759
16781TIP3    H271835   3.170   4.144   1.762  1.2870 -0.9000 -1.2088
16782TIP3   OH271836   5.659   1.107  14.424 -0.0364  0.0460  0.0817
16782TIP3    H171837   5.706   1.084  14.344  0.8002 -0.6321  0.7552
16782TIP3    H271838   5.631   1.023  14.460 -0.2031  0.3274  0.6261
16783TIP3   OH271839   1.431   3.599   0.879 -0.1299  0.2190 -0.2117
16783TIP3    H171840   1.379   3.611   0.800  0.6796 -2.0255 -1.1480
16783TIP3    H271841   1.368   3.610   0.950 -1.5175 -0.5781 -1.2591
16784TIP3   OH271842   1.125   4.042   6.483 -0.4160 -0.1301  0.6292
16784TIP3    H171843   1.066   4.107   6.447 -0.2051  0.2436  0.9512
16784TIP3    H271844   1.187   4.023   6.412  0.3608  1.0397  0.9629
16785TIP3   OH271845   2.103   1.005  13.414 -0.0320  0.3837 -0.0395
16785TIP3    H171846   2.010   1.021  13.431  0.1317  1.8442 -0.4073
16785TIP3    H271847   2.118   1.041  13.326  1.1475  1.3069  0.5182
16786TIP3   OH271848   4.559   4.953   3.152  0.5120  0.0515  0.0620
16786TIP3    H171849   4.633   4.895   3.134  0.2477 -0.7116  1.3264
16786TIP3    H271850   4.552   4.953   3.247 -2.8187 -2.1459 -0.0197
16787TIP3   OH271851   2.184   2.829  10.910  0.1700  0.3610  0.2788
16787TIP3    H171852   2.151   2.859  10.825 -1.2530 -0.0499  0.6511
16787TIP3    H271853   2.226   2.745  10.891  1.0925  0.9228 -0.2190
16788TIP3   OH271854   4.998   4.860   1.395 -0.2008 -0.2689 -0.3773
16788TIP3    H171855   4.919   4.911   1.375  1.6659  2.5543 -1.1424
16788TIP3    H271856   5.038   4.844   1.310  0.3134 -1.3087  0.0396
16789TIP3   OH271857   1.337   4.374  11.269 -0.2740 -0.9858 -0.2227
16789TIP3    H171858   1.365   4.324  11.346  1.0023  0.1503  0.0891
16789TIP3    H271859   1.294   4.309  11.213 -1.6144 -1.7716  1.6006
16790TIP3   OH271860   1.965   3.835  14.855 -0.1645  0.1401 -0.4201
16790TIP3    H171861   1.960   3.769  14.924  0.0813 -1.7495 -2.1314
16790TIP3    H271862   1.894   3.812  14.795 -0.0266  1.4142 -1.1079
16791TIP3   OH271863   3.283   5.737   5.157  0.5639  0.0425 -0.6665
16791TIP3    H171864   3.370   5.770   5.137 -0.2743  1.9443 -1.4101
16791TIP3    H271865   3.243   5.805   5.211  0.3133 -1.8703  1.7409
16792TIP3   OH271866   6.572   6.361   5.307  0.9386  0.4054  0.4851
16792TIP3    H171867   6.507   6.430   5.293 -0.0377 -0.8762 -1.7463
16792TIP3    H271868   6.633   6.371   5.234  0.9178 -0.9300  0.2645
16793TIP3   OH271869   6.738   5.890  13.842  0.0122  0.5595  0.2127
16793TIP3    H171870   6.687   5.809  13.839 -0.5408  0.9331 -1.6353
16793TIP3    H271871   6.824   5.863  13.874 -0.0307 -0.8348 -0.7839
16794TIP3   OH271872   6.321   2.921   4.364 -0.1924 -0.2704 -0.0598
16794TIP3    H171873   6.277   2.942   4.282 -0.0214  2.5840  0.4511
16794TIP3    H271874   6.316   3.002   4.415  4.1814 -0.1824  0.6565
16795TIP3   OH271875   1.406   6.054   5.592 -0.0750 -0.5493 -0.1928
16795TIP3    H171876   1.498   6.067   5.570  0.3919 -0.6505  1.5664
16795TIP3    H271877   1.376   5.986   5.532  0.6998  0.2163 -1.4782
16796TIP3   OH271878   3.085   3.956   4.751  0.2582 -0.1048  0.1037
16796TIP3    H171879   3.137   4.033   4.773 -1.3118  0.6511  1.4159
16796TIP3    H271880   3.100   3.942   4.657  0.5787  1.8115 -0.1639
16797TIP3   OH271881   4.376   4.020   2.886 -0.5132 -0.1605  0.0977
16797TIP3    H171882   4.389   3.971   2.967 -0.8733 -0.4876 -0.0360
16797TIP3    H271883   4.433   4.096   2.894 -0.4147 -0.2823  0.5816
16798TIP3   OH271884   4.340   3.511   5.056 -0.0804 -0.3199  0.2745
16798TIP3    H171885   4.321   3.530   4.964  0.3261 -1.8780 -0.1653
16798TIP3    H271886   4.317   3.591   5.102 -0.6615  0.3653 -1.1366
16799TIP3   OH271887   0.879   6.619   0.459 -0.3515 -0.3713  0.2450
16799TIP3    H171888   0.947   6.572   0.411 -0.3986 -1.5864  1.3229
16799TIP3    H271889   0.813   6.641   0.393 -0.0358 -1.2911 -0.3886
16800TIP3   OH271890   4.393   0.980   2.014  0.3276 -0.3607 -0.1744
16800TIP3    H171891   4.480   1.009   1.988  0.2155  1.1423  0.9708
16800TIP3    H271892   4.334   1.049   1.984 -0.3905 -0.9995 -0.2842
16801TIP3   OH271893   4.102   3.012  11.858 -0.1940  0.6410 -0.0410
16801TIP3    H171894   4.111   3.029  11.952 -1.8301 -0.7781  0.4502
16801TIP3    H271895   4.165   2.942  11.840 -1.4030 -0.6855  0.5826
16802TIP3   OH271896   3.059   0.217  16.918  0.1558 -0.8056  0.2216
16802TIP3    H171897   3.119   0.171  16.976  0.1774 -0.7302  0.2579
16802TIP3    H271898   2.979   0.227  16.969  0.9424  1.3846  1.1178
16803TIP3   OH271899   1.671   3.360   5.104  0.8562  0.4884  0.0607
16803TIP3    H171900   1.671   3.346   5.009 -0.3750 -0.2196  0.1506
16803TIP3    H271901   1.666   3.272   5.141 -0.4565  0.8325  0.7488
16804TIP3   OH271902   3.696   6.152   0.386  0.3264 -0.0441 -0.3256
16804TIP3    H171903   3.661   6.188   0.468 -0.1122  0.8341 -0.8771
16804TIP3    H271904   3.788   6.177   0.387  0.2745  0.1551 -0.1893
16805TIP3   OH271905   4.532   4.941  14.435 -0.7238 -0.0519  0.2384
16805TIP3    H171906   4.490   4.855  14.446 -2.3871  0.5195 -1.2177
16805TIP3    H271907   4.565   4.939  14.345 -0.0990  0.5694  0.4487
16806TIP3   OH271908   0.661   1.251  13.722 -0.0307  0.1519 -0.3276
16806TIP3    H171909   0.651   1.184  13.789  2.0944  0.8245  0.7647
16806TIP3    H271910   0.693   1.328  13.769 -3.0823  2.2830 -1.4018
16807TIP3   OH271911   6.554   1.298   1.012 -0.3700  0.3262 -0.0606
16807TIP3    H171912   6.492   1.225   1.013 -0.2434  0.1643 -1.3589
16807TIP3    H271913   6.634   1.260   0.974  1.7867 -0.3762  4.5222
16808TIP3   OH271914   3.560   3.536   1.403 -0.3975 -0.0398 -0.0218
16808TIP3    H171915   3.509   3.616   1.389  0.8713  0.7819 -0.0967
16808TIP3    H271916   3.553   3.488   1.321 -0.0941  0.6354 -0.4539
16809TIP3   OH271917   3.552   1.086  16.282  0.1616 -0.0655  0.4624
16809TIP3    H171918   3.466   1.123  16.262  0.0669 -0.6345 -0.2358
16809TIP3    H271919   3.613   1.159  16.274 -0.2254  0.2800  0.6902
16810TIP3   OH271920   3.605   5.009   3.287 -0.3094 -0.2611  0.0635
16810TIP3    H171921   3.687   5.007   3.337  0.4897 -0.4172 -1.2095
16810TIP3    H271922   3.589   5.102   3.272 -0.5637 -0.2118  0.6030
16811TIP3   OH271923   1.892   0.812  15.265 -0.3848  0.0172 -0.2161
16811TIP3    H171924   1.850   0.898  15.271  0.7543  0.6982 -1.4352
16811TIP3    H271925   1.838   0.755  15.319 -1.1796  1.4916  0.6084
16812TIP3   OH271926   3.931   5.775  17.174 -0.3204  0.0820  0.7455
16812TIP3    H171927   4.017   5.733  17.168  0.9669  2.5155  1.1178
16812TIP3    H271928   3.914   5.781  17.268 -1.6903 -1.7714  0.6763
16813TIP3   OH271929   5.768   4.710   4.460 -0.1971 -0.6477  0.1358
16813TIP3    H171930   5.844   4.696   4.404  0.0993  0.9373  0.0828
16813TIP3    H271931   5.758   4.806   4.463 -3.0609 -0.8013 -1.0313
16814TIP3   OH271932   4.281   4.421  13.198 -0.2292  0.4371 -0.4551
16814TIP3    H171933   4.190   4.406  13.222 -0.6523 -1.6321 -2.8933
16814TIP3    H271934   4.329   4.349  13.239 -0.2386 -0.3175 -1.7040
16815TIP3   OH271935   1.179   3.708   0.201  0.4953 -0.0917 -0.2108
16815TIP3    H171936   1.193   3.754   0.283  1.5240 -2.5070  1.0877
16815TIP3    H271937   1.097   3.660   0.213  1.1299 -1.2108 -0.1592
16816TIP3   OH271938   4.388   0.708  11.251  0.0146  0.3139  0.0380
16816TIP3    H171939   4.395   0.674  11.340  1.0186  2.0184  0.6576
16816TIP3    H271940   4.328   0.783  11.259 -1.4196 -0.6574 -1.1064
16817TIP3   OH271941   4.975   3.820   2.926  0.9049 -0.6637 -0.5520
16817TIP3    H171942   4.908   3.809   2.857 -1.5692  1.8912  1.2113
16817TIP3    H271943   5.034   3.887   2.891  0.4327 -0.3440 -0.7612
16818TIP3   OH271944   5.374   1.108   0.250  0.1647 -0.1374  0.6592
16818TIP3    H171945   5.382   1.200   0.275 -0.8155 -0.1040  0.8940
16818TIP3    H271946   5.375   1.109   0.154  0.5944  0.0703  0.6641
16819TIP3   OH271947   2.274   3.719   0.528 -0.0741  0.4952 -0.4630
16819TIP3    H171948   2.324   3.640   0.510 -0.5429 -0.8281  3.1650
16819TIP3    H271949   2.189   3.704   0.486  0.5846  0.1159 -1.6927
16820TIP3   OH271950   0.394   5.609  14.990  0.2280 -0.3474  0.1651
16820TIP3    H171951   0.434   5.687  15.029 -0.4742 -0.2918  0.7918
16820TIP3    H271952   0.397   5.544  15.059 -0.1727 -0.5412  0.0002
16821TIP3   OH271953   6.670   5.398  11.471  0.1223 -0.0491 -0.4075
16821TIP3    H171954   6.746   5.417  11.526 -0.2129  1.1470 -0.3380
16821TIP3    H271955   6.598   5.383  11.532 -0.9990  4.2197 -0.3461
16822TIP3   OH271956   5.458   6.652   3.326  0.4141 -0.6586  0.4658
16822TIP3    H171957   5.416   6.613   3.249 -1.8173  1.9119  0.2183
16822TIP3    H271958   5.538   6.693   3.292  0.5188 -1.2857 -0.0616
16823TIP3   OH271959   1.891   2.658   4.484 -0.6348  0.5689 -0.4004
16823TIP3    H171960   1.905   2.563   4.489  0.0896  0.6935  0.0036
16823TIP3    H271961   1.864   2.683   4.573  1.2863  1.0623  0.0795
16824TIP3   OH271962   3.125   1.670  13.190 -0.4047 -0.4844 -0.2880
16824TIP3    H171963   3.203   1.723  13.206 -0.5254 -0.5927  0.7074
16824TIP3    H271964   3.083   1.711  13.114  0.0097  0.2637 -0.1190
16825TIP3   OH271965   1.635   3.547   0.248 -0.2747 -0.2044 -0.3473
16825TIP3    H171966   1.620   3.641   0.234 -0.1481  0.0393  1.0389
16825TIP3    H271967   1.568   3.521   0.311  1.3404 -0.4185  1.3780
16826TIP3   OH271968   1.223   1.543  16.581 -0.4124  0.1466  0.3599
16826TIP3    H171969   1.200   1.537  16.488 -0.9309  1.2033  0.3984
16826TIP3    H271970   1.174   1.472  16.622 -0.3466 -0.1974 -0.1370
16827TIP3   OH271971   5.542   6.232   1.294 -0.3206 -0.3173  0.0799
16827TIP3    H171972   5.457   6.191   1.274  0.1597 -1.4700  0.3591
16827TIP3    H271973   5.606   6.165   1.273  0.4028 -0.3939  2.3118
16828TIP3   OH271974   2.211   1.089  13.159 -0.3271  0.0041  0.5444
16828TIP3    H171975   2.191   1.035  13.082  0.0643 -1.5269  1.4846
16828TIP3    H271976   2.233   1.174  13.122  1.7502 -1.1969 -1.2200
16829TIP3   OH271977   6.134   6.770  15.538  0.2231 -0.4874 -0.2497
16829TIP3    H171978   6.085   6.700  15.580  1.1998 -0.5929  0.7609
16829TIP3    H271979   6.206   6.789  15.598  0.3376  0.9584 -0.8009
16830TIP3   OH271980   3.454   1.737   1.868 -0.2346  0.3215 -0.2210
16830TIP3    H171981   3.513   1.752   1.942  1.5054 -1.1407 -1.2232
16830TIP3    H271982   3.367   1.729   1.909  0.7631 -1.2826  1.8196
16831TIP3   OH271983   6.108   4.849   1.424 -0.0451  0.1740  0.1818
16831TIP3    H171984   6.167   4.809   1.488 -0.4010 -0.1340  0.3246
16831TIP3    H271985   6.153   4.841   1.340 -0.3539 -1.0498  0.1154
16832TIP3   OH271986   5.963   3.716   3.381  0.6901 -0.2163  0.3330
16832TIP3    H171987   5.888   3.685   3.329  1.1595 -0.2942 -0.3075
16832TIP3    H271988   5.971   3.808   3.359  1.1604 -0.3517 -0.0712
16833TIP3   OH271989   3.767   2.664   4.580 -0.1885  0.3099  0.1879
16833TIP3    H171990   3.727   2.663   4.667  1.3675  0.2838  0.9377
16833TIP3    H271991   3.861   2.658   4.597  0.1170 -0.2412 -1.5260
16834TIP3   OH271992   1.031   4.017   3.989 -0.4308 -0.7127  0.2760
16834TIP3    H171993   1.123   3.997   3.968 -0.6703 -0.3932 -1.2226
16834TIP3    H271994   1.031   4.112   4.005 -0.3466 -0.8697  1.2992
16835TIP3   OH271995   5.739   5.658  15.446  0.1682 -0.3628  0.2555
16835TIP3    H171996   5.774   5.747  15.438  2.2023 -1.2129 -0.9355
16835TIP3    H271997   5.720   5.631  15.357 -0.3306 -1.1709  0.5973
16836TIP3   OH271998   2.920   4.698   1.299 -0.2356  0.0019  0.1276
16836TIP3    H171999   2.845   4.743   1.339 -2.2222 -0.6860 -2.5420
16836TIP3    H272000   2.907   4.606   1.320  1.1266  0.0850  1.4726
16837TIP3   OH272001   6.573   3.204  15.510 -0.1388 -0.2282  0.1330
16837TIP3    H172002   6.528   3.144  15.569 -2.2193  0.3118 -0.8350
16837TIP3    H272003   6.545   3.179  15.423  2.6629 -0.8243 -0.7089
16838TIP3   OH272004   5.971   3.803  10.322 -0.5299 -0.2461  0.4740
16838TIP3    H172005   5.964   3.709  10.338 -0.8061 -0.2426  0.3797
16838TIP3    H272006   6.014   3.838  10.400 -0.5470 -0.4312  0.5665
16839TIP3   OH272007   0.720   5.184   4.883 -0.1203  0.5515  0.5349
16839TIP3    H172008   0.646   5.126   4.896 -0.4397  1.1400  1.4556
16839TIP3    H272009   0.797   5.130   4.898 -0.2861 -0.3688 -1.6100
16840TIP3   OH272010   4.129   3.190   2.855 -0.2672 -0.1957 -0.6132
16840TIP3    H172011   4.046   3.192   2.902  0.4347  2.5016  0.7483
16840TIP3    H272012   4.132   3.104   2.814 -2.9171 -1.0271  0.7304
16841TIP3   OH272013   5.680   4.690  15.883 -0.2369 -0.2260  0.6610
16841TIP3    H172014   5.732   4.762  15.918 -1.0835  0.1113  1.2415
16841TIP3    H272015   5.743   4.636  15.835  0.3301  1.1779 -0.2330
16842TIP3   OH272016   6.113   3.160   1.430  0.7954  0.2734  0.0314
16842TIP3    H172017   6.098   3.162   1.335  1.2443  1.5797 -0.0286
16842TIP3    H272018   6.175   3.231   1.446 -0.6634  1.2971  1.5303
16843TIP3   OH272019   4.980   6.231   2.137  0.7796 -0.0418 -0.1990
16843TIP3    H172020   5.020   6.255   2.053  1.5008 -0.5111 -0.0032
16843TIP3    H272021   5.014   6.297   2.198  0.8033 -0.1015 -0.1472
16844TIP3   OH272022   3.183   4.306   1.660 -0.0243  0.2293  0.3474
16844TIP3    H172023   3.198   4.357   1.580 -0.8508  0.5578  0.3945
16844TIP3    H272024   3.129   4.363   1.715 -0.3099 -0.3964  0.7214
16845TIP3   OH272025   2.386   1.481  16.677  0.1941 -0.4116 -0.4321
16845TIP3    H172026   2.430   1.415  16.623  3.9572  1.7270 -0.3070
16845TIP3    H272027   2.419   1.465  16.766 -0.4336  0.4075 -0.0426
16846TIP3   OH272028   1.796   1.540  14.995 -0.0178  0.6004 -0.5386
16846TIP3    H172029   1.808   1.616  15.053  1.9696 -0.1409  0.1263
16846TIP3    H272030   1.723   1.491  15.034  2.0498 -0.5686  2.2757
16847TIP3   OH272031   1.963   4.984   4.680  0.5534 -0.2553  0.0034
16847TIP3    H172032   2.018   5.052   4.718  0.5313  0.0864 -0.5732
16847TIP3    H272033   1.999   4.970   4.592  0.1399 -0.5147 -0.1276
16848TIP3   OH272034   4.866   6.787  11.355 -0.4270 -0.0182  0.5377
16848TIP3    H172035   4.903   6.875  11.353 -0.8822  0.1728  0.4708
16848TIP3    H272036   4.891   6.748  11.271 -4.9626  2.0075 -2.1287
16849TIP3   OH272037   4.075   1.952  11.328  0.1404  0.2565  0.3169
16849TIP3    H172038   4.031   1.937  11.412  0.0436 -0.3976  0.1588
16849TIP3    H272039   4.168   1.944  11.348  0.0838 -1.5776  0.0893
16850TIP3   OH272040   1.286   4.259  15.811  0.0710 -0.2936  0.2611
16850TIP3    H172041   1.269   4.176  15.854 -1.3856  0.4156  1.1107
16850TIP3    H272042   1.340   4.308  15.873  1.1847 -0.6908 -0.3655
16851TIP3   OH272043   4.655   1.105   5.553  0.4863 -0.1896 -0.1682
16851TIP3    H172044   4.701   1.022   5.546  0.3400 -0.2899  0.0243
16851TIP3    H272045   4.685   1.142   5.636  0.6575  0.0171 -0.3205
16852TIP3   OH272046   6.187   2.378   3.484  0.2402  0.3736 -0.3391
16852TIP3    H172047   6.159   2.291   3.513  1.3305 -0.6105 -2.0577
16852TIP3    H272048   6.163   2.436   3.556  1.2128 -1.6260  1.7452
16853TIP3   OH272049   4.848   4.199   2.909  0.1329  0.7043  0.4692
16853TIP3    H172050   4.926   4.210   2.855 -0.1616  0.5365  0.0046
16853TIP3    H272051   4.788   4.267   2.878 -0.8255 -0.6779 -0.8444
16854TIP3   OH272052   2.432   1.808  13.751 -0.3397  0.2484 -0.2796
16854TIP3    H172053   2.510   1.752  13.747 -2.4198 -3.2505  2.0794
16854TIP3    H272054   2.411   1.813  13.844 -0.9955  4.2140 -0.4757
16855TIP3   OH272055   1.657   4.629  13.402  0.6531 -0.0993 -0.5433
16855TIP3    H172056   1.575   4.634  13.353  0.3379 -1.1326 -0.1389
16855TIP3    H272057   1.713   4.571  13.351  0.2224 -1.4119  0.4365
16856TIP3   OH272058   5.956   6.191  15.828 -0.0505 -0.4360  0.1960
16856TIP3    H172059   6.034   6.140  15.806 -0.5136 -1.0454 -0.0791
16856TIP3    H272060   5.914   6.141  15.899 -0.7220 -0.6747 -0.3481
16857TIP3   OH272061   5.437   3.283   2.817  0.2292 -0.0257 -0.4498
16857TIP3    H172062   5.364   3.224   2.838 -1.3352  1.3068 -1.7827
16857TIP3    H272063   5.515   3.232   2.837 -1.0365 -2.1036 -0.3949
16858TIP3   OH272064   0.487   1.697  13.317 -0.1362  0.0853 -0.6346
16858TIP3    H172065   0.434   1.628  13.356 -1.0328  1.3990  0.6057
16858TIP3    H272066   0.542   1.653  13.252  3.0506 -2.6591  3.4759
16859TIP3   OH272067   3.224   1.894  15.943  0.3745 -0.3360  0.5226
16859TIP3    H172068   3.156   1.872  16.006  0.8540  1.7518  1.8871
16859TIP3    H272069   3.185   1.964  15.890  1.2192  0.4497  0.9125
16860TIP3   OH272070   1.883   3.457   0.606  0.1953  0.0212 -0.4027
16860TIP3    H172071   1.845   3.502   0.681  1.8775 -0.2841  0.6896
16860TIP3    H272072   1.946   3.396   0.644  1.0893 -0.1567 -2.0655
16861TIP3   OH272073   1.610   2.883   0.418 -0.3017 -0.3831 -1.0117
16861TIP3    H172074   1.539   2.902   0.479 -0.6464 -0.9816 -1.2116
16861TIP3    H272075   1.586   2.930   0.338  0.7595  1.3948 -0.3343
16862TIP3   OH272076   6.334   0.134  14.897  0.2479 -0.1611  0.2455
16862TIP3    H172077   6.340   0.045  14.864 -0.5333 -0.5888  1.2047
16862TIP3    H272078   6.407   0.180  14.855 -0.1462 -0.8838 -1.3062
16863TIP3   OH272079   2.170   3.196   0.585 -0.0010 -0.0186  0.5030
16863TIP3    H172080   2.161   3.163   0.675  1.8156 -1.7584  0.1189
16863TIP3    H272081   2.123   3.132   0.532 -0.5379  0.6715  0.1332
16864TIP3   OH272082   2.163   4.237   4.508  0.3101 -0.0376 -0.0626
16864TIP3    H172083   2.235   4.214   4.567 -0.5447 -1.3286  0.5178
16864TIP3    H272084   2.105   4.161   4.510  0.3833 -0.2735 -2.8054
16865TIP3   OH272085   6.045   6.037   0.896 -0.3120 -0.2505  0.0766
16865TIP3    H172086   6.060   5.943   0.889 -0.0385 -0.2923  1.0699
16865TIP3    H272087   6.082   6.073   0.815 -0.0840 -0.9603 -0.1426
16866TIP3   OH272088   0.303   2.584   6.480 -0.0446 -0.1140 -0.0695
16866TIP3    H172089   0.384   2.579   6.429  0.1684  0.7431  0.1808
16866TIP3    H272090   0.234   2.558   6.419  0.5552 -2.3783  0.1155
16867TIP3   OH272091   6.299   4.377   3.655 -0.1968  0.5832  0.2812
16867TIP3    H172092   6.273   4.360   3.746 -1.4664  0.9521  0.0054
16867TIP3    H272093   6.347   4.459   3.659  3.1303 -1.2134  1.1375
16868TIP3   OH272094   2.967   4.784  12.508  0.1747 -0.2924  0.2692
16868TIP3    H172095   3.050   4.832  12.510 -0.2038  0.3574  0.6872
16868TIP3    H272096   2.901   4.851  12.493 -0.0712 -1.0933 -3.2737
16869TIP3   OH272097   5.816   4.805   0.162 -0.2022  0.3235  0.2583
16869TIP3    H172098   5.899   4.847   0.138 -0.6229  0.5336 -0.8921
16869TIP3    H272099   5.758   4.878   0.184 -0.0410  0.1675  1.2714
16870TIP3   OH272100   0.195   4.144   0.098  0.0344 -0.5267 -0.3931
16870TIP3    H172101   0.209   4.212   0.164 -0.9416  1.0716 -1.7672
16870TIP3    H272102   0.145   4.076   0.144  0.2656  0.0617  0.7700
16871TIP3   OH272103   3.611   5.725  13.693 -0.4711 -0.6466 -0.7508
16871TIP3    H172104   3.587   5.807  13.651 -0.6367  0.1324  0.7832
16871TIP3    H272105   3.550   5.717  13.767 -0.1781 -1.9330 -0.6171
16872TIP3   OH272106   3.159   4.655  12.313  0.0871  0.6892 -0.2123
16872TIP3    H172107   3.153   4.586  12.247  0.1747 -1.0378  1.5192
16872TIP3    H272108   3.070   4.688  12.321  0.2501  1.6550 -1.8887
16873TIP3   OH272109   2.421   2.114   3.212  0.3071 -0.1585  0.4053
16873TIP3    H172110   2.491   2.080   3.156 -0.8881 -0.3433 -1.0436
16873TIP3    H272111   2.422   2.057   3.289  1.2267 -0.6522  0.0462
16874TIP3   OH272112   2.504   5.788   1.541 -0.2740 -0.0236 -0.2964
16874TIP3    H172113   2.584   5.744   1.568 -0.7108 -0.6944 -0.0802
16874TIP3    H272114   2.531   5.845   1.469  0.4112 -0.1875 -0.1702
16875TIP3   OH272115   2.665   2.095   2.529  0.8386 -0.1306 -0.3307
16875TIP3    H172116   2.634   2.080   2.618  1.1454 -1.3543 -0.4150
16875TIP3    H272117   2.622   2.177   2.502  0.6684  0.1973  0.8934
16876TIP3   OH272118   1.641   2.709   3.565 -0.2971  0.1576 -0.2204
16876TIP3    H172119   1.548   2.730   3.571 -0.3169  0.1106 -0.3431
16876TIP3    H272120   1.673   2.712   3.655 -0.6158 -0.7126 -0.0678
16877TIP3   OH272121   4.770   5.114  11.864  0.0379 -0.0267  0.2206
16877TIP3    H172122   4.728   5.152  11.788 -2.6537 -0.8687  1.1906
16877TIP3    H272123   4.825   5.184  11.899 -0.2887  1.0289 -1.2961
16878TIP3   OH272124   0.595   0.781   4.480 -0.2844  0.3448 -0.2007
16878TIP3    H172125   0.598   0.848   4.412  0.7402  0.0483 -0.4629
16878TIP3    H272126   0.504   0.750   4.480 -0.4730  0.8893 -0.8926
16879TIP3   OH272127   1.109   0.036   4.988  0.0448 -0.2352  0.4146
16879TIP3    H172128   1.139  -0.004   4.907 -0.0281  1.3145 -0.4277
16879TIP3    H272129   1.189   0.055   5.037  0.1272 -0.5647  0.4098
16880TIP3   OH272130   3.229   4.003  12.001 -0.0052  0.2811 -0.5746
16880TIP3    H172131   3.253   4.056  12.076 -0.6872  0.2575 -0.3340
16880TIP3    H272132   3.135   4.015  11.991 -0.0805 -0.4381 -0.8561
16881TIP3   OH272133   3.125   3.500  13.177 -0.5519 -0.1590 -0.5153
16881TIP3    H172134   3.052   3.538  13.129 -0.2960 -1.3507 -1.9340
16881TIP3    H272135   3.186   3.572  13.191 -1.5429  0.6361 -0.1650
16882TIP3   OH272136   3.434   5.467   0.084  0.1315 -0.1754  0.3169
16882TIP3    H172137   3.449   5.494  -0.006  0.3003 -1.1920  0.0337
16882TIP3    H272138   3.417   5.549   0.131  0.7812  0.4277 -0.4818
16883TIP3   OH272139   1.151   2.804   3.730  0.4441  0.4447 -1.1781
16883TIP3    H172140   1.085   2.862   3.768  1.5074  2.7555 -2.6196
16883TIP3    H272141   1.101   2.743   3.676 -0.7691 -0.6193  0.9720
16884TIP3   OH272142   1.922   1.796   4.414 -0.0464 -0.0782  0.0071
16884TIP3    H172143   1.939   1.754   4.330 -0.7401 -0.4225  0.0245
16884TIP3    H272144   1.877   1.878   4.392  0.3416  0.1416  0.0200
16885TIP3   OH272145   1.448   4.350  12.873  0.0993  0.2576  0.2587
16885TIP3    H172146   1.475   4.268  12.831  0.9146 -0.1498  1.5291
16885TIP3    H272147   1.381   4.386  12.814  0.8309 -0.5323 -1.1084
16886TIP3   OH272148   4.768   2.876  11.654  0.4639  0.0332  0.2892
16886TIP3    H172149   4.717   2.955  11.637  2.2268  1.1864  0.1111
16886TIP3    H272150   4.853   2.893  11.613 -0.3088 -3.6287 -3.5746
16887TIP3   OH272151   0.337   4.420   5.819 -0.3667 -0.3258 -0.1934
16887TIP3    H172152   0.267   4.362   5.788 -2.1658  0.8325  1.4900
16887TIP3    H272153   0.415   4.389   5.773 -1.8982 -1.8620 -1.9436
16888TIP3   OH272154   2.241   2.477  13.661 -0.3314  0.2327 -0.4866
16888TIP3    H172155   2.165   2.534  13.647 -1.0007 -0.6141 -0.4246
16888TIP3    H272156   2.306   2.533  13.703 -1.0201  0.9180 -0.3054
16889TIP3   OH272157   0.033   6.691   0.323 -0.2387  0.1497 -0.3439
16889TIP3    H172158   0.096   6.710   0.393 -0.7723  2.0909 -0.3348
16889TIP3    H272159  -0.049   6.731   0.352 -1.1902 -1.2715 -0.9203
16890TIP3   OH272160   6.551   0.549  13.562  0.3975 -0.3396 -0.4709
16890TIP3    H172161   6.561   0.632  13.516 -0.6556 -0.1857 -0.4487
16890TIP3    H272162   6.627   0.543  13.619  0.8079  0.3026 -0.9465
16891TIP3   OH272163   0.407   3.290  13.815  0.3592 -0.2880  0.2999
16891TIP3    H172164   0.365   3.225  13.872 -1.6168  1.6224  1.1636
16891TIP3    H272165   0.348   3.297  13.740  0.8849  0.0507 -0.0843
16892TIP3   OH272166   4.505   6.386  16.903  0.2449  0.2278 -0.2667
16892TIP3    H172167   4.586   6.392  16.954  0.4564  2.5444 -0.7376
16892TIP3    H272168   4.457   6.313  16.941  1.3743  0.4845  1.7818
16893TIP3   OH272169   4.515   6.023  12.523  0.5338 -0.3697  0.0634
16893TIP3    H172170   4.537   5.994  12.611  0.0307 -4.1330 -0.9113
16893TIP3    H272171   4.428   5.987  12.506  1.0136 -0.5875 -2.3216
16894TIP3   OH272172   3.885   1.007  10.746 -0.0544  0.2788  0.0590
16894TIP3    H172173   3.828   1.069  10.791  0.1958 -0.3964  1.3528
16894TIP3    H272174   3.965   1.005  10.799  0.3664 -0.3313 -0.5776
16895TIP3   OH272175   2.444   2.233  15.443 -0.3798  0.1726 -0.1449
16895TIP3    H172176   2.364   2.218  15.494 -0.6510  2.0882  0.0821
16895TIP3    H272177   2.496   2.154  15.457 -3.2033 -2.3463 -2.3270
16896TIP3   OH272178   1.983   2.746  14.769 -0.0944 -0.1008  0.1413
16896TIP3    H172179   2.076   2.758  14.786  0.0821  1.7412 -1.7249
16896TIP3    H272180   1.974   2.655  14.743  1.5784  0.1892 -1.6769
16897TIP3   OH272181   4.585   5.361   0.808  0.7441 -0.0598 -0.8585
16897TIP3    H172182   4.572   5.286   0.749  0.4059 -0.0218 -0.8384
16897TIP3    H272183   4.658   5.410   0.770  1.6514 -0.9552 -0.2911
16898TIP3   OH272184   1.995   6.014   4.495  0.2108  0.1694  0.2959
16898TIP3    H172185   2.028   5.931   4.531 -1.8208  0.0420  2.1420
16898TIP3    H272186   1.981   5.996   4.402  2.4317 -0.6255  0.0462
16899TIP3   OH272187   5.318   6.387  13.770 -0.3429 -0.0946  0.4733
16899TIP3    H172188   5.410   6.412  13.774  0.3525 -2.5016  1.0208
16899TIP3    H272189   5.299   6.377  13.677 -0.6631  2.2984  0.2298
16900TIP3   OH272190   3.119   5.628   4.469  0.3949 -0.7386 -0.3489
16900TIP3    H172191   3.165   5.646   4.387 -0.5827 -1.9993 -1.2022
16900TIP3    H272192   3.154   5.693   4.530  1.3771  0.0239 -1.6618
16901TIP3   OH272193   5.806   3.369   1.310 -0.0109 -1.2019  0.1428
16901TIP3    H172194   5.838   3.387   1.222 -1.0327  0.4628  0.0632
16901TIP3    H272195   5.881   3.384   1.366 -0.1053  0.9030 -0.2006
16902TIP3   OH272196   1.654   6.301  12.645  0.0172  0.1801 -0.2481
16902TIP3    H172197   1.625   6.243  12.715 -0.0880 -0.5991 -0.9255
16902TIP3    H272198   1.700   6.244  12.583  1.7063  1.1330  0.0614
16903TIP3   OH272199   4.914   1.147   4.872 -0.5125  0.7376 -0.1257
16903TIP3    H172200   4.955   1.080   4.817  1.1439  1.4792  0.1279
16903TIP3    H272201   4.832   1.168   4.827  0.0832  0.2503 -1.5143
16904TIP3   OH272202   0.214   5.320   0.452 -0.3499 -0.1506 -0.4297
16904TIP3    H172203   0.286   5.260   0.433 -0.3001 -1.0786  2.2606
16904TIP3    H272204   0.227   5.344   0.544 -2.6603  0.8081 -0.2835
16905TIP3   OH272205   1.097   1.341  16.731 -0.3528 -0.3080 -0.6053
16905TIP3    H172206   1.066   1.298  16.810  0.3806 -0.4191 -0.3742
16905TIP3    H272207   1.116   1.270  16.670  1.4706 -0.3834 -0.0009
16906TIP3   OH272208   5.846   5.545  14.272 -0.0345 -0.6126 -0.0105
16906TIP3    H172209   5.770   5.488  14.273 -0.6002  0.1303  0.0483
16906TIP3    H272210   5.900   5.515  14.345  0.1483 -1.6794 -0.5630
16907TIP3   OH272211   3.260   3.430   0.800 -0.4695 -0.5388 -0.4708
16907TIP3    H172212   3.167   3.426   0.777 -0.4634  0.9603 -0.8770
16907TIP3    H272213   3.272   3.359   0.863 -2.0321 -0.3792  0.0639
16908TIP3   OH272214   5.664   2.538   4.242  0.1307 -0.2963  0.1314
16908TIP3    H172215   5.599   2.491   4.190 -0.0947  1.3353 -1.0969
16908TIP3    H272216   5.623   2.622   4.261  1.4385  0.3085  0.3167
16909TIP3   OH272217   4.984   4.659   1.841 -0.2197  0.6884  0.0179
16909TIP3    H172218   4.982   4.564   1.830 -1.9173  0.6280  0.5983
16909TIP3    H272219   4.956   4.694   1.756  0.1500  0.6689 -0.1139
16910TIP3   OH272220   4.803   1.935   1.973  0.1280 -0.6051 -0.1343
16910TIP3    H172221   4.722   1.981   1.997  0.1931 -0.4861 -0.1414
16910TIP3    H272222   4.837   1.984   1.898  0.7577 -0.0107  0.5206
16911TIP3   OH272223   1.203   2.725   4.740  0.4967  0.1571 -0.2179
16911TIP3    H172224   1.210   2.707   4.834 -0.3852  1.5019  0.1319
16911TIP3    H272225   1.188   2.639   4.700 -2.7025 -0.1066  1.2780
16912TIP3   OH272226   4.400   5.873  15.513  0.0170 -0.6371  0.5662
16912TIP3    H172227   4.336   5.943  15.512 -0.0530 -0.6624  1.7511
16912TIP3    H272228   4.450   5.884  15.432 -0.2905  0.4876  0.5238
16913TIP3   OH272229   2.849   6.453  14.705 -0.0657 -0.1594 -0.5039
16913TIP3    H172230   2.863   6.481  14.614 -0.7599  0.6625 -0.3721
16913TIP3    H272231   2.936   6.427  14.736  0.3829  0.6544 -1.0480
16914TIP3   OH272232   0.504   4.326   3.731 -0.7479 -0.4197 -0.4195
16914TIP3    H172233   0.541   4.407   3.695 -1.4008  0.2328  0.3343
16914TIP3    H272234   0.463   4.353   3.813  2.5267 -2.1971  2.0273
16915TIP3   OH272235   2.676   6.349   0.961  0.4182 -0.1000  0.5971
16915TIP3    H172236   2.615   6.422   0.951 -0.4042 -1.0374 -3.4280
16915TIP3    H272237   2.750   6.371   0.904  0.9200 -1.6560  0.5859
16916TIP3   OH272238   0.391   3.608   1.452 -0.0307 -0.1196 -0.1565
16916TIP3    H172239   0.328   3.557   1.400 -1.2228 -0.7102  1.7936
16916TIP3    H272240   0.338   3.670   1.501  0.9761 -0.1511  1.0132
16917TIP3   OH272241   5.738   3.935  15.847 -0.1580 -0.4495  0.4038
16917TIP3    H172242   5.682   3.896  15.914  0.9651  0.2472  1.8075
16917TIP3    H272243   5.680   3.996  15.800 -0.7929 -0.3834  1.2450
16918TIP3   OH272244   4.019   3.666  15.677 -0.1754  0.5485 -0.2868
16918TIP3    H172245   4.081   3.706  15.738  0.4523 -1.7463  0.6629
16918TIP3    H272246   4.072   3.604  15.626 -0.6458  2.4122 -3.3331
16919TIP3   OH272247   1.084   6.153   0.832 -0.1457 -0.1668  0.1263
16919TIP3    H172248   1.153   6.181   0.892  0.0921 -2.6991  1.1512
16919TIP3    H272249   1.060   6.232   0.784  1.4220  1.4008  1.7925
16920TIP3   OH272250   5.252   6.190  16.755 -0.2013 -0.0524  0.1337
16920TIP3    H172251   5.174   6.167  16.806 -0.4915 -1.1712 -0.7660
16920TIP3    H272252   5.322   6.138  16.793  0.2306  1.2376  1.1902
16921TIP3   OH272253   2.477   5.915  16.768  0.5000  0.2460  0.0096
16921TIP3    H172254   2.435   5.889  16.686  0.0407 -0.4362  0.4474
16921TIP3    H272255   2.444   6.003  16.785 -0.8153 -0.2991  0.3735
16922TIP3   OH272256   1.033   3.075  15.383 -0.2561 -0.4942  0.0231
16922TIP3    H172257   1.088   3.030  15.319 -0.0401  0.9728 -0.8830
16922TIP3    H272258   0.953   3.023  15.387 -0.4001 -0.4737 -1.7004
16923TIP3   OH272259   0.342   2.420  13.903 -0.6881  0.2293  0.4263
16923TIP3    H172260   0.415   2.360  13.922  0.0249  0.3571 -1.6062
16923TIP3    H272261   0.272   2.392  13.961  0.0646 -1.7456  0.4577
16924TIP3   OH272262   2.560   3.143  12.049  0.1588 -0.3620 -0.1232
16924TIP3    H172263   2.649   3.164  12.018  0.4648 -1.1833  0.1776
16924TIP3    H272264   2.555   3.048  12.045 -0.4137 -0.3736  0.6778
16925TIP3   OH272265   2.577   0.205   4.517  0.4159 -0.3214  0.1976
16925TIP3    H172266   2.610   0.245   4.598  0.5077  1.6985 -0.7710
16925TIP3    H272267   2.617   0.257   4.447 -1.2574 -0.7089 -1.1103
16926TIP3   OH272268   2.659   4.153   6.583 -0.1103  0.1107 -0.2015
16926TIP3    H172269   2.698   4.090   6.644 -0.8882 -2.0329 -1.8109
16926TIP3    H272270   2.566   4.151   6.603  0.0114  1.9743  0.7452
16927TIP3   OH272271   4.034   3.052   2.109 -0.2784 -0.3492 -0.3496
16927TIP3    H172272   4.096   3.121   2.085 -0.8096  1.0138  1.9338
16927TIP3    H272273   3.973   3.094   2.168 -1.0850 -2.6188  0.5420
16928TIP3   OH272274   0.306   4.247  16.591 -0.4650  0.0543 -0.0971
16928TIP3    H172275   0.269   4.172  16.545  0.3184 -0.7237  0.5057
16928TIP3    H272276   0.251   4.257  16.669 -0.8488  0.4089 -0.4061
16929TIP3   OH272277   4.597   3.023  12.274 -0.2064 -0.0175  0.2978
16929TIP3    H172278   4.619   3.070  12.193  0.8626 -0.0276  0.5693
16929TIP3    H272279   4.640   3.074  12.343  0.3878 -1.0158  0.6712
16930TIP3   OH272280   6.593   5.861  17.155  0.1086  0.3718  0.1117
16930TIP3    H172281   6.626   5.771  17.147 -1.0511 -0.2528  1.8000
16930TIP3    H272282   6.642   5.898  17.229 -1.9148 -0.1361  1.7986
16931TIP3   OH272283   4.366   5.725   5.459 -0.1917 -0.1339  0.3267
16931TIP3    H172284   4.352   5.809   5.416 -2.5100 -0.0098  1.1727
16931TIP3    H272285   4.309   5.664   5.411  1.7135 -1.3424 -0.5006
16932TIP3   OH272286   6.629   1.947   5.221  0.4696  0.3624 -0.6389
16932TIP3    H172287   6.546   1.933   5.175  0.3441 -0.6227 -0.1264
16932TIP3    H272288   6.696   1.941   5.152  0.1471  0.8239 -0.9986
16933TIP3   OH272289   3.536   1.154   4.550 -0.2467 -0.4886 -0.4826
16933TIP3    H172290   3.524   1.101   4.471 -1.2311 -0.3287 -0.4538
16933TIP3    H272291   3.458   1.210   4.553 -1.6812 -2.3560  2.0501
16934TIP3   OH272292   3.765   6.361  15.053  0.1334  0.4222  0.0719
16934TIP3    H172293   3.749   6.448  15.088 -0.0857  0.7737 -0.8550
16934TIP3    H272294   3.691   6.345  14.994 -0.1079 -0.6150  0.6241
16935TIP3   OH272295   4.894   5.183  12.997 -0.0350  0.0123 -0.1171
16935TIP3    H172296   4.937   5.146  13.074 -0.0517 -0.0689 -0.1464
16935TIP3    H272297   4.811   5.135  12.990 -0.5844  0.8439  0.5174
16936TIP3   OH272298   5.647   5.297   6.190  0.0100 -0.2489  0.0292
16936TIP3    H172299   5.675   5.349   6.265  1.9421 -1.3377  0.1257
16936TIP3    H272300   5.694   5.334   6.115 -0.7354 -0.1395 -0.4014
16937TIP3   OH272301   3.341   5.094  15.336 -0.3971  0.0501  0.1825
16937TIP3    H172302   3.389   5.155  15.280 -1.7714 -0.1202 -1.2385
16937TIP3    H272303   3.385   5.009  15.322 -0.5052  0.0799 -0.3596
16938TIP3   OH272304   4.914   6.766   3.394 -0.0467  0.0752  0.1924
16938TIP3    H172305   4.947   6.677   3.402 -2.2288 -0.6499  2.4414
16938TIP3    H272306   4.834   6.757   3.341 -1.0104  0.4373  1.5421
16939TIP3   OH272307   0.909   3.256   6.253 -0.2775 -0.1822  0.7748
16939TIP3    H172308   0.855   3.186   6.289 -1.6796 -0.0893 -1.0228
16939TIP3    H272309   0.991   3.213   6.229 -0.4580 -0.8272  1.2986
16940TIP3   OH272310   5.702   2.734  15.755  0.1815  0.0690  0.2837
16940TIP3    H172311   5.747   2.806  15.712  0.5261 -0.3192 -0.0075
16940TIP3    H272312   5.691   2.668  15.687  0.6783 -0.5236  0.7655
16941TIP3   OH272313   4.898   2.413  11.640 -0.4639 -0.2743 -0.5391
16941TIP3    H172314   4.890   2.461  11.722 -0.1294 -0.6560 -0.2764
16941TIP3    H272315   4.811   2.375  11.626 -0.2547 -1.0488  0.1742
16942TIP3   OH272316   2.950   4.171   0.309 -0.3425 -0.3779  0.1538
16942TIP3    H172317   3.006   4.113   0.257  0.9421  0.6870  0.2770
16942TIP3    H272318   2.974   4.152   0.400  2.2789  2.2358  0.1821
16943TIP3   OH272319   2.474   3.629   4.243 -0.8298 -0.1215 -0.3067
16943TIP3    H172320   2.502   3.707   4.195 -0.2429  0.8798  1.5599
16943TIP3    H272321   2.555   3.581   4.260 -0.6040  0.9460  1.9858
16944TIP3   OH272322   4.842   1.329  14.186 -0.2530 -0.0928 -0.6871
16944TIP3    H172323   4.841   1.337  14.091  0.6555 -1.6244 -0.8668
16944TIP3    H272324   4.831   1.235  14.202  0.4271  0.0351  0.6887
16945TIP3   OH272325   4.872   1.555   0.159 -0.4211 -0.0465 -0.9497
16945TIP3    H172326   4.888   1.551   0.253 -1.2879  1.6786 -0.6867
16945TIP3    H272327   4.951   1.519   0.120  1.2051  1.8526  0.4034
16946TIP3   OH272328   5.924   2.730  10.829  0.7554  0.5097 -0.2665
16946TIP3    H172329   5.913   2.724  10.924  0.8310  1.6168 -0.1736
16946TIP3    H272330   5.893   2.646  10.795 -0.7097  0.6587  0.6170
16947TIP3   OH272331   0.396   2.542  16.424  0.0318 -0.1798 -0.2316
16947TIP3    H172332   0.446   2.473  16.469  0.4476 -0.6044 -1.3114
16947TIP3    H272333   0.325   2.563  16.484  1.2500  0.1253  1.1511
16948TIP3   OH272334   2.874   0.710   2.837 -0.1943  0.1199 -0.4051
16948TIP3    H172335   2.835   0.689   2.752 -1.6449 -0.7533  0.4385
16948TIP3    H272336   2.803   0.749   2.887 -0.3553 -2.3224  1.4744
16949TIP3   OH272337   1.065   4.735   0.716  0.2531 -0.0875 -0.0657
16949TIP3    H172338   1.058   4.660   0.658  1.2693  1.3089 -2.1030
16949TIP3    H272339   0.978   4.741   0.757 -0.8095 -0.6372 -2.0980
16950TIP3   OH272340   1.688   6.387  15.898 -0.3567 -0.4221  0.2215
16950TIP3    H172341   1.677   6.322  15.967  0.8628  0.3339  1.1734
16950TIP3    H272342   1.680   6.471  15.942 -0.3992  0.0872 -0.7156
16951TIP3   OH272343   5.240   1.705   5.727 -0.4865  0.2669  0.0948
16951TIP3    H172344   5.248   1.797   5.750  2.0799  0.0164  0.4882
16951TIP3    H272345   5.300   1.660   5.786 -2.2323 -1.7965  0.4222
16952TIP3   OH272346   0.550   4.179   1.032  0.6394 -0.2797 -0.9239
16952TIP3    H172347   0.553   4.085   1.050  1.0112 -0.5091 -2.1330
16952TIP3    H272348   0.457   4.202   1.040  0.6830 -0.4752  0.5779
16953TIP3   OH272349   1.573   1.791  16.684 -0.5312  0.0913  0.3977
16953TIP3    H172350   1.607   1.858  16.743  0.2719 -0.6750  0.8305
16953TIP3    H272351   1.536   1.724  16.742 -0.2530 -0.3924  0.0291
16954TIP3   OH272352   0.634   0.638  13.465 -0.0922 -0.0240 -0.3192
16954TIP3    H172353   0.604   0.723  13.499  1.5967  0.6757 -0.4915
16954TIP3    H272354   0.631   0.579  13.540  3.0149  1.3486  1.0488
16955TIP3   OH272355   5.133   6.379   1.959  0.3077  0.3014 -0.3868
16955TIP3    H172356   5.111   6.440   2.030  0.8710 -0.2860  0.3131
16955TIP3    H272357   5.229   6.372   1.964  0.5183  1.4554 -2.2152
16956TIP3   OH272358   5.421   1.232   1.585  0.3401  0.1768 -0.7878
16956TIP3    H172359   5.489   1.297   1.603  0.4945  0.1428 -1.2267
16956TIP3    H272360   5.470   1.150   1.569  0.2462  0.3122 -1.8169
16957TIP3   OH272361   6.091   2.268   5.805  0.5616  0.2646  0.1188
16957TIP3    H172362   6.182   2.265   5.834  0.6686 -1.1442 -0.2771
16957TIP3    H272363   6.089   2.214   5.725 -0.4919  0.8067 -0.2488
16958TIP3   OH272364   1.669   3.935  12.452 -0.0154  0.1797  0.7899
16958TIP3    H172365   1.741   3.928  12.390 -0.8190  0.8294 -0.2620
16958TIP3    H272366   1.628   3.848  12.452  0.2962  0.0323  0.8046
16959TIP3   OH272367   5.329   6.230  12.974  0.9963  0.4470 -0.3730
16959TIP3    H172368   5.263   6.299  12.976 -1.6396 -1.7799 -2.6956
16959TIP3    H272369   5.364   6.231  12.885  2.0582 -0.2362  0.0064
16960TIP3   OH272370   0.553   1.949   1.354 -0.1573  0.3384  0.5013
16960TIP3    H172371   0.477   1.916   1.307  0.2299 -1.8875  1.3163
16960TIP3    H272372   0.535   1.929   1.446  1.0039  0.5986  0.8003
16961TIP3   OH272373   1.649   5.903  12.161  0.2930  0.0601  0.7608
16961TIP3    H172374   1.625   5.983  12.209  2.2442  0.4701  1.1136
16961TIP3    H272375   1.568   5.877  12.117 -0.2531  2.6240  0.0611
16962TIP3   OH272376   6.783   5.030  15.147 -0.0046 -0.1243 -0.2586
16962TIP3    H172377   6.874   5.027  15.175 -0.3643  0.4977  1.0823
16962TIP3    H272378   6.752   4.939  15.154 -0.2396  0.0767  2.0687
16963TIP3   OH272379   1.581   4.642   3.332  0.1625 -0.3113 -0.3844
16963TIP3    H172380   1.644   4.575   3.305  0.4125 -0.6437  0.9227
16963TIP3    H272381   1.496   4.604   3.312  0.3522  0.3187 -2.5657
16964TIP3   OH272382   5.028   2.660   2.549 -0.1454  0.5570  0.1954
16964TIP3    H172383   5.077   2.606   2.488 -0.4842 -0.0653  0.4712
16964TIP3    H272384   5.084   2.737   2.563 -0.4453  1.1423 -1.5694
16965TIP3   OH272385   4.421   1.891  13.985  0.3159  0.9205  0.7586
16965TIP3    H172386   4.363   1.940  14.044 -1.0031 -0.8586  1.0062
16965TIP3    H272387   4.460   1.958  13.929 -0.9798  2.3126  1.4503
16966TIP3   OH272388   6.607   5.009   5.842  0.6907 -0.4939  0.0706
16966TIP3    H172389   6.629   4.924   5.880  2.1143 -0.2536 -0.1641
16966TIP3    H272390   6.528   5.036   5.890 -0.3927 -2.3685 -0.5466
16967TIP3   OH272391   6.774   1.151   4.323  0.2584 -0.1986 -0.0954
16967TIP3    H172392   6.830   1.073   4.320  0.1188 -0.2772 -1.3738
16967TIP3    H272393   6.686   1.118   4.303  0.2622  0.3325 -1.0375
16968TIP3   OH272394   0.449   2.583  12.742 -0.2796  0.0972  0.1005
16968TIP3    H172395   0.421   2.492  12.730  1.9785 -0.6037 -0.3673
16968TIP3    H272396   0.521   2.577  12.805 -0.4989  1.6622  0.5394
16969TIP3   OH272397   0.011   4.837  12.611  0.2177 -0.3152 -0.2284
16969TIP3    H172398  -0.022   4.747  12.620 -0.5180  0.0696  1.2059
16969TIP3    H272399   0.096   4.835  12.654 -0.1760 -0.1342  0.5683
16970TIP3   OH272400   5.293   2.346  11.296  0.1198  0.5142  0.4402
16970TIP3    H172401   5.212   2.315  11.338  0.2632  1.0901  1.1618
16970TIP3    H272402   5.319   2.274  11.240 -0.7857  0.2334  0.3575
16971TIP3   OH272403   4.809   1.924   1.027 -0.0545 -0.2289  0.4976
16971TIP3    H172404   4.799   1.832   1.051  1.2495 -0.8791 -1.2579
16971TIP3    H272405   4.894   1.949   1.062 -0.6469  0.5049  1.4560
16972TIP3   OH272406   5.981   2.834  12.667  0.3936  0.2768  0.3102
16972TIP3    H172407   5.992   2.771  12.738 -3.3359  0.4012  1.2204
16972TIP3    H272408   6.022   2.914  12.699  0.1117 -0.0991  1.6859
16973TIP3   OH272409   1.861   6.404  14.301 -0.1051  0.3462 -0.4069
16973TIP3    H172410   1.871   6.499  14.293  0.2107  0.3877  0.3817
16973TIP3    H272411   1.945   6.368  14.272 -0.1389  0.3205 -0.4726
16974TIP3   OH272412   5.730   5.030   6.141  0.0856 -0.3506 -0.2115
16974TIP3    H172413   5.762   5.028   6.231 -0.2911  0.8066 -0.0357
16974TIP3    H272414   5.739   5.122   6.114 -1.0222 -0.4208 -0.9032
16975TIP3   OH272415   0.750   6.622   0.183 -0.1206 -0.0060  0.0504
16975TIP3    H172416   0.659   6.633   0.155  0.2326  1.0536 -0.7273
16975TIP3    H272417   0.775   6.536   0.149 -0.7495 -0.1981  0.0556
16976TIP3   OH272418   2.897   6.444  12.957 -0.5297  0.0943 -0.7476
16976TIP3    H172419   2.827   6.454  13.022 -1.6927  1.9019 -2.1870
16976TIP3    H272420   2.974   6.422  13.009 -1.2973  1.9228  1.3420
16977TIP3   OH272421   3.223   2.182   3.750 -0.0558 -0.6957 -0.3081
16977TIP3    H172422   3.141   2.187   3.700  0.8774  0.4074 -1.8669
16977TIP3    H272423   3.196   2.170   3.841 -1.9104 -1.0087 -0.8590
16978TIP3   OH272424   1.598   2.756  16.263 -0.0195  0.1814  0.1095
16978TIP3    H172425   1.602   2.851  16.246  1.3233  0.1965  0.4110
16978TIP3    H272426   1.623   2.716  16.180 -1.5184  0.0291 -0.3115
16979TIP3   OH272427   2.417   1.036   0.401  0.2328 -0.1015  0.0897
16979TIP3    H172428   2.385   1.111   0.451 -0.0271 -0.2807  0.1947
16979TIP3    H272429   2.411   1.063   0.310 -2.0598 -0.8254 -0.0188
16980TIP3   OH272430   1.577   4.688  12.736 -0.2942 -0.0392  0.4822
16980TIP3    H172431   1.484   4.665  12.745 -0.3160 -0.2947 -0.2711
16980TIP3    H272432   1.609   4.696  12.825 -1.3824  1.4616  0.7827
16981TIP3   OH272433   1.084   5.640   2.699 -0.2418  0.1699 -0.1524
16981TIP3    H172434   1.067   5.728   2.664 -1.5653  0.2705  0.6847
16981TIP3    H272435   1.042   5.640   2.785  0.0707 -1.1645  0.0132
16982TIP3   OH272436   2.468   4.375  13.853  0.1108  0.0594 -0.6200
16982TIP3    H172437   2.550   4.383  13.901 -1.1033  2.1921  1.3534
16982TIP3    H272438   2.403   4.418  13.910 -1.4970  2.8820 -4.1460
16983TIP3   OH272439   4.536   2.379   5.540 -0.5067  0.2536  0.0975
16983TIP3    H172440   4.506   2.297   5.580  0.2771  0.3695  0.9604
16983TIP3    H272441   4.526   2.444   5.609  1.7325  0.2862  0.4610
16984TIP3   OH272442   0.464   4.353   0.670 -0.3234 -0.2879  0.4663
16984TIP3    H172443   0.480   4.422   0.734 -0.0425  0.3939 -0.3216
16984TIP3    H272444   0.547   4.304   0.666 -0.2631 -0.1859  0.4598
16985TIP3   OH272445   5.056   0.630   5.236  0.1685  0.2867  0.3417
16985TIP3    H172446   5.091   0.620   5.148  0.9468  0.6575  0.5983
16985TIP3    H272447   5.020   0.719   5.238  0.6292  0.4709  0.5557
16986TIP3   OH272448   3.926   1.613   4.881  0.1582 -0.6011 -0.5118
16986TIP3    H172449   3.836   1.635   4.902  1.1806  1.8485  1.8771
16986TIP3    H272450   3.941   1.528   4.923 -0.3348  0.2556  1.5224
16987TIP3   OH272451   3.871   3.893  15.245  0.1515 -0.1657  0.2212
16987TIP3    H172452   3.891   3.799  15.247  1.6117  0.1336  1.6561
16987TIP3    H272453   3.818   3.907  15.324 -0.3603  0.1592 -0.1778
16988TIP3   OH272454   6.036   2.036   1.189 -0.1404 -0.1859  0.0808
16988TIP3    H172455   6.129   2.021   1.174  0.8842  2.7281  2.3617
16988TIP3    H272456   6.008   2.089   1.114  1.1982  2.3192  1.2195
16989TIP3   OH272457   0.924   1.324   1.084  0.5980  0.0880  0.6662
16989TIP3    H172458   0.838   1.350   1.117  0.6220 -0.8387  1.4981
16989TIP3    H272459   0.971   1.406   1.071  1.0160  0.5369  4.0751
16990TIP3   OH272460   4.114   0.608   5.423  0.2028  0.8149  0.8201
16990TIP3    H172461   4.184   0.581   5.482 -0.1733 -0.5378  0.6891
16990TIP3    H272462   4.091   0.696   5.452  0.5781  0.4934  2.1718
16991TIP3   OH272463   1.074   0.141  15.063  0.2108  0.0296 -0.2021
16991TIP3    H172464   1.076   0.163  15.156 -0.9308 -0.7033  0.0161
16991TIP3    H272465   1.032   0.055  15.060  2.3858 -1.0602 -1.2122
16992TIP3   OH272466   5.597   0.883  13.567 -0.2169 -0.5489  0.4949
16992TIP3    H172467   5.586   0.871  13.472  1.3441  1.7735 -0.0521
16992TIP3    H272468   5.645   0.806  13.595 -1.3943 -1.6742 -0.4172
16993TIP3   OH272469   0.474   1.138   2.989 -0.1561 -0.1181  0.0436
16993TIP3    H172470   0.398   1.155   3.045  0.5174 -0.5451  1.1097
16993TIP3    H272471   0.498   1.047   3.006  0.3307 -0.1239 -0.6112
16994TIP3   OH272472   1.511   1.525   5.016 -0.4910  0.2505 -0.1131
16994TIP3    H172473   1.582   1.463   5.000 -0.1566  0.5932 -0.0013
16994TIP3    H272474   1.499   1.570   4.932 -0.5645  0.2049 -0.1270
16995TIP3   OH272475   3.155   2.720   3.448 -0.6430  0.0657  0.0286
16995TIP3    H172476   3.126   2.630   3.463 -1.8580 -0.0749 -2.6311
16995TIP3    H272477   3.243   2.711   3.410  0.6798  0.2378  2.8290
16996TIP3   OH272478   6.292   6.261  14.054  0.1954  0.4835  0.1297
16996TIP3    H172479   6.327   6.208  14.126 -0.5429  0.1848  0.2808
16996TIP3    H272480   6.369   6.286  14.003  0.6096 -0.2828  0.3629
16997TIP3   OH272481   3.040   4.992   2.537 -0.5526  1.0084 -0.6889
16997TIP3    H172482   3.005   5.041   2.611  1.4681 -0.8023  1.6016
16997TIP3    H272483   3.100   5.053   2.495 -2.5167  2.4233 -1.6322
16998TIP3   OH272484   3.217   4.331  16.819 -0.3141  0.3575 -0.0101
16998TIP3    H172485   3.292   4.364  16.770  0.5282 -0.1937  0.8661
16998TIP3    H272486   3.220   4.377  16.902 -0.3961 -0.3363  0.3868
16999TIP3   OH272487   6.582   0.045  13.766 -0.2496  0.3660 -0.7310
16999TIP3    H172488   6.612   0.022  13.678 -2.0320 -0.9626 -1.0551
16999TIP3    H272489   6.501   0.094  13.752  0.3268  1.6072  0.1480
17000TIP3   OH272490   1.742   1.738  15.184  0.5017  0.2628 -0.6372
17000TIP3    H172491   1.764   1.826  15.155  1.9312 -0.3376 -1.4599
17000TIP3    H272492   1.791   1.726  15.265 -0.0992  0.3833 -0.2425
17001TIP3   OH272493   5.783   4.922   0.534 -0.4992 -0.4366  0.9968
17001TIP3    H172494   5.787   4.983   0.461  1.0179  0.4474  1.7674
17001TIP3    H272495   5.691   4.922   0.560 -0.7846  0.3761  0.0355
17002TIP3   OH272496   1.712   1.108  16.571  0.1372 -0.6063 -0.2971
17002TIP3    H172497   1.802   1.079  16.558  0.6787  0.6273  0.4958
17002TIP3    H272498   1.681   1.131  16.484  1.1448  0.4389 -0.4112
17003TIP3   OH272499   1.878   6.443  12.798 -0.6200  0.1547  0.3344
17003TIP3    H172500   1.943   6.462  12.730  0.5073 -1.8001  0.7970
17003TIP3    H272501   1.811   6.391  12.754 -1.0844  0.8511  0.2092
17004TIP3   OH272502   4.236   4.217   0.430 -0.1409  0.3726  0.4052
17004TIP3    H172503   4.260   4.306   0.402 -0.8214  0.8370  1.2595
17004TIP3    H272504   4.286   4.203   0.511 -1.3324  0.6557  1.2111
17005TIP3   OH272505   0.186   6.706   1.219  0.1637 -0.5983 -0.2351
17005TIP3    H172506   0.101   6.749   1.216  1.2680  1.7020 -0.7540
17005TIP3    H272507   0.195   6.679   1.310 -0.0498  1.5458  0.4811
17006TIP3   OH272508   5.859   1.814  12.471 -0.2195 -0.7599 -0.1255
17006TIP3    H172509   5.954   1.821  12.467 -0.1044 -1.3769  1.0131
17006TIP3    H272510   5.831   1.899  12.507 -0.0601 -0.7410 -0.0434
17007TIP3   OH272511   4.805   1.477  16.263 -0.1609 -0.4309  0.6361
17007TIP3    H172512   4.739   1.534  16.223  1.4304  2.2460  1.6310
17007TIP3    H272513   4.773   1.462  16.352 -0.8124 -1.5587  0.2335
17008TIP3   OH272514   1.995   2.802  12.335 -0.7667 -0.1966 -0.1719
17008TIP3    H172515   1.914   2.771  12.295 -2.0232  1.8807  0.6007
17008TIP3    H272516   1.967   2.857  12.407  1.4054 -1.1763  1.5377
17009TIP3   OH272517   2.218   5.807   1.435  0.5243  0.2279 -0.3459
17009TIP3    H172518   2.205   5.894   1.474  1.3226  0.5920 -0.8742
17009TIP3    H272519   2.307   5.810   1.400  0.7857 -1.0265  0.1850
17010TIP3   OH272520   2.438   4.949   2.138 -0.2999 -0.3572  0.4633
17010TIP3    H172521   2.345   4.931   2.153 -0.6222  0.8995  0.0993
17010TIP3    H272522   2.483   4.878   2.183 -1.4082 -0.4204  1.5443
17011TIP3   OH272523   6.411   2.548  13.692 -0.9366  0.1275 -0.5310
17011TIP3    H172524   6.339   2.501  13.735 -0.5075  0.0400  0.1078
17011TIP3    H272525   6.430   2.496  13.613 -0.6761 -0.6108  0.0098
17012TIP3   OH272526   5.314   0.112   6.046  0.2827 -0.0454 -0.7326
17012TIP3    H172527   5.249   0.128   5.977  0.4110  0.9052 -0.6439
17012TIP3    H272528   5.278   0.157   6.123  0.5263 -0.4320 -0.3925
17013TIP3   OH272529   5.885   6.309  13.459 -0.0065  0.4428  0.1100
17013TIP3    H172530   5.947   6.237  13.458 -0.2506  0.1869 -1.9480
17013TIP3    H272531   5.939   6.387  13.446  0.2073  0.6378  1.8836
17014TIP3   OH272532   6.203   6.265   2.069  0.6088  0.1227  0.0911
17014TIP3    H172533   6.263   6.192   2.060 -1.5882 -1.5617 -2.1572
17014TIP3    H272534   6.123   6.227   2.106 -0.1362  1.6610  0.1668
17015TIP3   OH272535   3.023   6.406   4.955  0.8137 -0.2158  0.3066
17015TIP3    H172536   3.079   6.483   4.967 -1.2733  1.5969 -0.7260
17015TIP3    H272537   2.959   6.412   5.026 -1.2476  0.8750 -1.5148
17016TIP3   OH272538   4.333   2.905   3.795 -0.0028 -0.4533  0.3120
17016TIP3    H172539   4.268   2.835   3.800  1.1377 -1.4728  1.6878
17016TIP3    H272540   4.297   2.974   3.851  0.0322 -0.9828  1.0136
17017TIP3   OH272541   3.555   2.294   5.074 -0.1434 -0.2112  0.3257
17017TIP3    H172542   3.465   2.281   5.043 -0.1545 -0.8518  0.6112
17017TIP3    H272543   3.600   2.335   5.000 -1.1525  2.0025  0.8587
17018TIP3   OH272544   5.619   3.256   3.125  0.3570  0.3430 -0.3927
17018TIP3    H172545   5.575   3.214   3.199  0.2419 -0.2799 -0.8091
17018TIP3    H272546   5.577   3.341   3.117 -0.4847 -0.0729 -0.5154
17019TIP3   OH272547   5.893   2.486   5.612 -0.1635 -0.8665 -0.4914
17019TIP3    H172548   5.855   2.400   5.630 -0.8692 -0.6132 -0.7594
17019TIP3    H272549   5.987   2.472   5.622 -0.2254 -1.8035 -1.0516
17020TIP3   OH272550   3.052   0.915   5.806 -0.0489  0.3103  0.5414
17020TIP3    H172551   3.110   0.847   5.772  0.7269  1.5460 -0.7160
17020TIP3    H272552   3.110   0.981   5.843 -0.5628  1.6372 -0.8494
17021TIP3   OH272553   0.175   3.707  11.645  0.2922  0.1357 -0.0133
17021TIP3    H172554   0.115   3.764  11.692  0.2602  0.2302 -0.1671
17021TIP3    H272555   0.193   3.753  11.563  1.8061  0.8333  0.6929
17022TIP3   OH272556   3.101   1.781  14.454 -0.7213 -0.7786  0.0229
17022TIP3    H172557   3.159   1.729  14.398 -0.6595 -1.8786  1.0679
17022TIP3    H272558   3.034   1.719  14.483 -1.6180  0.1367 -0.0266
17023TIP3   OH272559   6.420   3.209  16.890  0.2538  0.6016 -0.3169
17023TIP3    H172560   6.478   3.259  16.833  2.1715  0.1631  1.1488
17023TIP3    H272561   6.430   3.249  16.976  1.6384 -2.0149  0.8566
17024TIP3   OH272562   4.866   1.805   0.001 -0.6792  0.3856  0.1095
17024TIP3    H172563   4.805   1.803  -0.072  0.2711 -0.1681 -0.6916
17024TIP3    H272564   4.873   1.714   0.029  1.1775  0.1259 -1.0297
17025TIP3   OH272565   2.685   4.763  16.496  0.3055 -0.0330  0.4522
17025TIP3    H172566   2.778   4.759  16.517  0.4180 -0.3038 -0.0852
17025TIP3    H272567   2.678   4.728  16.407 -0.2651  0.3022  0.3560
17026TIP3   OH272568   1.606   2.837  11.220  0.0894  0.0437 -0.7470
17026TIP3    H172569   1.649   2.757  11.252  0.5841  0.2579 -0.8650
17026TIP3    H272570   1.546   2.862  11.290 -1.7011 -1.6472 -1.5862
17027TIP3   OH272571   4.461   4.770   4.330 -0.0134 -0.0163 -0.1532
17027TIP3    H172572   4.373   4.795   4.302  0.4467 -0.6852 -2.4076
17027TIP3    H272573   4.475   4.684   4.290  1.4860 -0.1427  0.5850
17028TIP3   OH272574   4.353   2.213  13.772  0.1864  0.4253 -0.4697
17028TIP3    H172575   4.437   2.166  13.779 -0.4578 -0.5651  1.5204
17028TIP3    H272576   4.337   2.246  13.861 -2.0706 -0.4548 -0.4752
17029TIP3   OH272577   2.692   2.321  14.347  0.3727 -0.3228 -1.0381
17029TIP3    H172578   2.657   2.236  14.320  1.0355 -0.7740 -0.5237
17029TIP3    H272579   2.756   2.300  14.415 -0.0377  0.6625 -0.3289
17030TIP3   OH272580   0.932   1.091  13.115 -0.9214 -0.8291  0.0633
17030TIP3    H172581   0.984   1.130  13.185 -0.9713  0.7643 -0.7524
17030TIP3    H272582   0.844   1.086  13.151 -0.9735  0.1062  0.0898
17031TIP3   OH272583   1.896   3.597   3.565 -0.6533  0.2448 -0.1837
17031TIP3    H172584   1.824   3.603   3.628 -1.1245  2.8039 -0.8517
17031TIP3    H272585   1.859   3.548   3.492 -1.5710  1.0571 -0.2909
17032TIP3   OH272586   2.303   0.677   2.382  0.2158  0.0998 -0.1133
17032TIP3    H172587   2.379   0.645   2.334 -0.5462  0.9542 -1.9993
17032TIP3    H272588   2.325   0.768   2.404  0.0551  0.0986  0.0542
17033TIP3   OH272589   2.888   0.681  14.029  0.4459 -0.3173  0.3410
17033TIP3    H172590   2.931   0.595  14.031  0.3079 -0.5840 -2.9524
17033TIP3    H272591   2.800   0.663  13.995  0.7147  1.1637 -1.2963
17034TIP3   OH272592   1.375   5.694  11.905 -0.0537 -0.3910  0.1562
17034TIP3    H172593   1.297   5.650  11.939 -0.0910 -0.1886  0.3320
17034TIP3    H272594   1.370   5.783  11.940 -0.5327  0.0774 -1.0456
17035TIP3   OH272595   4.443   3.286   4.547 -0.0488 -0.2821  0.5886
17035TIP3    H172596   4.489   3.366   4.571 -0.3115 -0.0489  0.3124
17035TIP3    H272597   4.513   3.225   4.521  0.0139  0.9870 -2.6852
17036TIP3   OH272598   6.757   4.215   2.715 -0.3424 -0.2483 -0.2534
17036TIP3    H172599   6.674   4.246   2.751  0.0912  1.0994 -0.3249
17036TIP3    H272600   6.738   4.195   2.624 -0.2893  1.5261 -0.6893
17037TIP3   OH272601   0.629   5.046   5.181  0.2801 -0.2972  0.4755
17037TIP3    H172602   0.705   5.021   5.234  0.2301  0.3718  0.8720
17037TIP3    H272603   0.554   5.030   5.238 -0.0045 -2.2182 -0.3670
17038TIP3   OH272604   4.450   4.643   1.177  0.1445  0.3432 -0.0695
17038TIP3    H172605   4.425   4.730   1.147 -0.9421  0.1472  0.2394
17038TIP3    H272606   4.539   4.654   1.210  0.3324  1.1495 -0.8088
17039TIP3   OH272607   3.038   6.011  14.318 -0.2194 -0.0914  0.0363
17039TIP3    H172608   3.049   6.026  14.225 -0.5369  0.0348  0.0179
17039TIP3    H272609   2.990   6.088  14.350 -0.1935 -0.1762  0.2833
17040TIP3   OH272610   2.432   0.489   4.007 -0.0559  0.4305  0.3068
17040TIP3    H172611   2.486   0.534   4.071 -0.5457 -1.7694  2.4000
17040TIP3    H272612   2.483   0.412   3.983  0.5110  1.5989 -2.7527
17041TIP3   OH272613   0.650   1.017   1.206  0.5954  0.5336  0.2871
17041TIP3    H172614   0.741   0.988   1.197  0.7889  1.4187 -0.9142
17041TIP3    H272615   0.656   1.107   1.237  0.1530  0.7003 -0.0845
17042TIP3   OH272616   2.176   4.319   6.146  0.1285 -0.9447 -0.0033
17042TIP3    H172617   2.229   4.250   6.184  1.0258 -0.7264 -0.8057
17042TIP3    H272618   2.236   4.366   6.088 -1.1433 -1.2386 -1.6405
17043TIP3   OH272619   4.387   2.739  12.730 -0.0100  0.6834  0.2353
17043TIP3    H172620   4.360   2.831  12.739 -0.5433  0.6168 -0.6492
17043TIP3    H272621   4.482   2.742  12.735  0.1221  1.5547 -1.9375
17044TIP3   OH272622   4.820   6.673   2.613  0.1262  0.4780 -0.5845
17044TIP3    H172623   4.751   6.712   2.666 -2.0670  0.5943 -3.2933
17044TIP3    H272624   4.803   6.579   2.617 -0.2422  0.5092 -1.2899
17045TIP3   OH272625   3.541   3.463   1.114 -0.1604  0.1223 -0.3846
17045TIP3    H172626   3.533   3.372   1.085 -1.6878  0.3016 -0.5642
17045TIP3    H272627   3.561   3.513   1.035  0.9562 -0.0684 -0.2436
17046TIP3   OH272628   5.545   1.017  14.942 -0.4832  0.5571  0.5202
17046TIP3    H172629   5.534   1.066  14.860 -1.1168  0.1025  0.3197
17046TIP3    H272630   5.540   1.084  15.010  1.0433  1.0762  0.1690
17047TIP3   OH272631   1.409   5.940  12.040 -0.4804 -0.5463  0.4041
17047TIP3    H172632   1.394   6.005  11.971  1.1357  1.2642  1.6220
17047TIP3    H272633   1.355   5.970  12.113  1.0473  0.0979  1.3260
17048TIP3   OH272634   2.247   3.114  12.878  0.4073 -0.0254  0.2656
17048TIP3    H172635   2.325   3.124  12.823  2.4368 -1.7594  2.5892
17048TIP3    H272636   2.270   3.160  12.959 -1.7102  0.8340  0.4404
17049TIP3   OH272637   0.989   0.832   1.402 -0.6144 -0.4846 -0.1287
17049TIP3    H172638   0.927   0.904   1.410  0.9554  0.8921  0.0259
17049TIP3    H272639   1.057   0.864   1.343  0.0922 -1.8659 -0.1177
17050TIP3   OH272640   4.261   5.161  17.226 -0.4788 -0.0760  0.1658
17050TIP3    H172641   4.224   5.105  17.295 -1.1660  0.4852  0.2611
17050TIP3    H272642   4.330   5.108  17.187 -0.2718 -0.5104  1.1030
17051TIP3   OH272643   1.678   3.617  12.830 -0.0952 -0.5178  0.5554
17051TIP3    H172644   1.678   3.537  12.883 -0.2250  0.0534  1.4501
17051TIP3    H272645   1.749   3.605  12.768  0.0584 -1.2144  0.8570
17052TIP3   OH272646   1.770   1.231   2.604 -0.0269 -0.4248 -0.1807
17052TIP3    H172647   1.687   1.270   2.575  0.5557 -0.1957 -1.6582
17052TIP3    H272648   1.811   1.300   2.656 -1.6230 -1.2620  2.4086
17053TIP3   OH272649   1.327   1.362  16.359 -0.4409 -0.4005  0.0337
17053TIP3    H172650   1.356   1.415  16.285  1.7333 -1.2003  0.2547
17053TIP3    H272651   1.358   1.409  16.436 -0.1668 -1.0351  0.3135
17054TIP3   OH272652   4.834   2.398  16.328  0.0644 -0.2351  0.5961
17054TIP3    H172653   4.801   2.393  16.418  1.3845  0.2513  1.1360
17054TIP3    H272654   4.759   2.426  16.276 -0.7253 -0.5498  1.5416
17055TIP3   OH272655   2.908   3.828  16.759  0.2493 -0.4715 -0.2453
17055TIP3    H172656   2.978   3.781  16.715  1.4110 -0.8375  1.8834
17055TIP3    H272657   2.892   3.904  16.703  0.6028 -1.6508 -2.0372
17056TIP3   OH272658   1.471   3.216  17.095  0.1222 -0.0497 -0.1374
17056TIP3    H172659   1.379   3.216  17.121 -0.6381 -3.0703 -2.3095
17056TIP3    H272660   1.507   3.136  17.134  1.7964  0.9264  0.4185
17057TIP3   OH272661   4.895   3.179  11.597  0.3126 -0.0680  0.1021
17057TIP3    H172662   4.920   3.158  11.687  0.9144 -1.2629 -0.3154
17057TIP3    H272663   4.817   3.233  11.606  0.4637 -0.0129  1.3418
17058TIP3   OH272664   2.608   4.109   3.383  0.0042  0.2575 -0.3184
17058TIP3    H172665   2.589   4.024   3.345 -0.3366  0.8681 -1.5637
17058TIP3    H272666   2.702   4.120   3.370  0.3576 -0.6001  1.3037
17059TIP3   OH272667   3.973   4.059   2.370  0.2207 -0.1791  0.1582
17059TIP3    H172668   4.014   4.031   2.452  0.0113 -0.1217  0.2829
17059TIP3    H272669   4.045   4.097   2.319  0.0219  1.5453  1.0844
17060TIP3   OH272670   4.846   3.849   4.443 -0.2232 -0.6430 -0.3727
17060TIP3    H172671   4.754   3.856   4.466  0.3745  0.2073  2.0637
17060TIP3    H272672   4.870   3.759   4.466  0.1586 -0.0546  1.7153
17061TIP3   OH272673   0.149   3.977   2.729 -0.3489  0.0401 -0.7887
17061TIP3    H172674   0.079   3.919   2.698 -1.0121  1.0144 -1.1499
17061TIP3    H272675   0.111   4.065   2.727  1.1580  0.7078 -1.8155
17062TIP3   OH272676   2.374   6.361  10.657  0.0526  0.3330  0.2605
17062TIP3    H172677   2.378   6.265  10.656  3.2354  0.3583  0.2943
17062TIP3    H272678   2.318   6.383  10.583  0.7671 -1.5747 -0.9510
17063TIP3   OH272679   1.397   4.704   5.370 -0.0893  0.3253 -0.6632
17063TIP3    H172680   1.307   4.695   5.340 -0.8155  1.8652  0.9201
17063TIP3    H272681   1.405   4.642   5.443 -1.4181  3.3710  2.3165
17064TIP3   OH272682   0.991   2.788  16.370  0.4845 -0.6380  0.4416
17064TIP3    H172683   0.959   2.877  16.356  0.3539 -0.8465 -0.6981
17064TIP3    H272684   0.912   2.734  16.373  0.6146 -0.8614 -0.0587
17065TIP3   OH272685   3.165   2.231   2.630  0.3688 -0.2021  0.2012
17065TIP3    H172686   3.077   2.240   2.594  0.5419  0.3325 -0.0916
17065TIP3    H272687   3.217   2.296   2.584  0.4922  0.8594  1.7729
17066TIP3   OH272688   5.366   6.199  10.782 -0.1810  0.1006 -0.1958
17066TIP3    H172689   5.314   6.142  10.724 -1.3827 -0.4241  1.3405
17066TIP3    H272690   5.396   6.140  10.851  0.0009  1.0072  0.5022
17067TIP3   OH272691   1.882   2.878   5.328  0.1598 -0.1979 -0.1746
17067TIP3    H172692   1.939   2.913   5.397 -0.7060  0.6524  0.1210
17067TIP3    H272693   1.942   2.853   5.258  0.8801  1.0127 -0.0161
17068TIP3   OH272694   0.188   6.112   3.335 -0.0195 -0.2229  0.4009
17068TIP3    H172695   0.271   6.074   3.364 -0.5030 -2.9241 -1.3324
17068TIP3    H272696   0.209   6.201   3.309  2.1959 -0.6567  0.5579
17069TIP3   OH272697   3.281   3.986  11.111 -0.2626  0.1403 -0.1125
17069TIP3    H172698   3.355   4.043  11.133  2.3277 -1.8712 -2.7840
17069TIP3    H272699   3.312   3.898  11.129 -1.3724 -0.8752 -2.7298
17070TIP3   OH272700   2.909   5.510  12.215  0.3346  0.5326  0.9084
17070TIP3    H172701   2.937   5.419  12.211 -0.1827  0.3786 -3.0935
17070TIP3    H272702   2.986   5.557  12.248  2.1490 -0.9219 -0.9763
17071TIP3   OH272703   0.222   2.745   0.480 -0.4445 -0.2498 -0.8574
17071TIP3    H172704   0.206   2.651   0.490  0.6498 -0.7378 -3.1307
17071TIP3    H272705   0.135   2.784   0.481 -0.9047 -1.2110  0.3814
17072TIP3   OH272706   4.776   0.294  17.172  0.4195 -0.4820 -0.1616
17072TIP3    H172707   4.812   0.373  17.132  0.1677 -0.8513 -1.1236
17072TIP3    H272708   4.694   0.279  17.127  0.1245 -0.9107  0.4979
17073TIP3   OH272709   2.350   1.700   2.035  0.0073  0.2720 -0.1685
17073TIP3    H172710   2.330   1.791   2.059 -0.9494  0.3396 -1.1905
17073TIP3    H272711   2.445   1.700   2.023  0.1591  0.8774  0.8746
17074TIP3   OH272712   1.445   3.015   3.097 -0.5479 -0.3418  0.2027
17074TIP3    H172713   1.495   2.938   3.071 -1.4379 -1.7413  2.3091
17074TIP3    H272714   1.400   2.988   3.178  0.0604  2.7707  1.7331
17075TIP3   OH272715   3.957   6.557  12.714  0.0065 -0.2689 -0.7192
17075TIP3    H172716   3.907   6.490  12.667 -0.5608  0.6380 -1.4370
17075TIP3    H272717   3.958   6.632  12.655 -0.9646  1.0148  0.7962
17076TIP3   OH272718   6.607   1.564  14.677 -0.1367  0.1867 -0.7943
17076TIP3    H172719   6.600   1.650  14.718  1.9405 -0.8864  2.1417
17076TIP3    H272720   6.691   1.564  14.633 -0.0141 -0.3865 -0.5768
17077TIP3   OH272721   2.960   0.603  12.846  0.2691  0.1668  0.0432
17077TIP3    H172722   3.009   0.635  12.770 -0.3565 -0.1349 -0.4976
17077TIP3    H272723   3.026   0.562  12.902  0.7390  0.4139 -0.3202
17078TIP3   OH272724   6.757   5.187  17.233  0.2831 -0.2152 -0.1308
17078TIP3    H172725   6.669   5.150  17.237  0.0187  0.0104 -2.2693
17078TIP3    H272726   6.756   5.259  17.297 -0.9789 -0.4216  0.1074
17079TIP3   OH272727   1.932   5.212   2.792  0.2538 -0.4395 -0.3203
17079TIP3    H172728   1.896   5.283   2.739  2.1364  0.4382 -0.4846
17079TIP3    H272729   1.854   5.169   2.829 -0.9773  2.4476  0.7843
17080TIP3   OH272730   6.740   1.078  14.980  0.2250 -0.1956  0.2361
17080TIP3    H172731   6.762   1.069  14.888  1.4922 -0.0079  0.5095
17080TIP3    H272732   6.733   1.173  14.994  0.7163 -0.1973  0.4897
17081TIP3   OH272733   2.786   2.465   2.018 -0.1879  0.1506 -0.3360
17081TIP3    H172734   2.790   2.561   2.022  0.4649  0.1327 -0.5153
17081TIP3    H272735   2.731   2.447   1.942  1.4844  0.3838 -1.6471
17082TIP3   OH272736   0.690   2.760   0.738 -0.6562  0.6387  0.2036
17082TIP3    H172737   0.715   2.669   0.757  1.2872  0.5511 -2.1736
17082TIP3    H272738   0.659   2.757   0.647 -0.7186  2.3270  0.1469
17083TIP3   OH272739   2.773   0.662  13.431 -0.8704 -0.3262 -0.7966
17083TIP3    H172740   2.760   0.571  13.402 -0.0413 -0.2953 -1.2811
17083TIP3    H272741   2.803   0.654  13.522  1.4314 -0.6708 -1.5296
17084TIP3   OH272742   2.744   0.276   2.055  0.5349 -0.3773 -0.2478
17084TIP3    H172743   2.818   0.298   1.997  0.3691 -1.5436 -0.9328
17084TIP3    H272744   2.742   0.180   2.055 -0.4343 -0.3646  0.4775
17085TIP3   OH272745   4.682   4.725   5.254 -0.5597 -0.2035  0.4610
17085TIP3    H172746   4.594   4.747   5.286 -0.3673  0.9253  0.2630
17085TIP3    H272747   4.714   4.659   5.316 -1.4827 -0.5149  0.6240
17086TIP3   OH272748   5.391   6.592   1.961 -0.3575  0.0311  0.0923
17086TIP3    H172749   5.473   6.622   1.922  0.1560  1.3994  2.0755
17086TIP3    H272750   5.409   6.503   1.990  0.3507  0.2231  0.2585
17087TIP3   OH272751   3.117   1.308  16.608 -0.0937 -0.8711 -0.2440
17087TIP3    H172752   3.104   1.400  16.632 -0.6846 -0.5076 -1.8413
17087TIP3    H272753   3.186   1.309  16.542 -0.9214 -1.4290 -1.1484
17088TIP3   OH272754   3.210   5.219   2.152 -0.0298  0.2124 -0.0739
17088TIP3    H172755   3.218   5.270   2.071 -1.7123 -0.5919 -0.8000
17088TIP3    H272756   3.135   5.258   2.198 -1.3595 -1.5153 -0.6495
17089TIP3   OH272757   5.330   0.873  13.362 -0.4665  0.5232  0.4106
17089TIP3    H172758   5.301   0.846  13.274  0.9627  1.2737 -0.3367
17089TIP3    H272759   5.304   0.801  13.419  0.2735 -0.9014 -0.9617
17090TIP3   OH272760   2.934   6.265  16.367 -0.9310  0.1600  0.4548
17090TIP3    H172761   2.891   6.349  16.355 -2.2493 -0.4847  0.3957
17090TIP3    H272762   2.969   6.267  16.456 -2.5384  0.1190  1.1215
17091TIP3   OH272763   4.896   2.988   1.927  0.3830  0.6764  0.8418
17091TIP3    H172764   4.964   2.920   1.932 -0.0860 -0.0084 -1.1949
17091TIP3    H272765   4.904   3.022   1.838 -0.6100  2.0433  1.2517
17092TIP3   OH272766   3.777   0.449  11.465 -0.2902  1.2490 -0.5655
17092TIP3    H172767   3.712   0.392  11.425  1.0651 -1.5457  0.8591
17092TIP3    H272768   3.729   0.495  11.534 -1.2499  1.0726 -1.1033
17093TIP3   OH272769   5.557   3.439  16.914 -0.5333  0.3455  0.2427
17093TIP3    H172770   5.600   3.516  16.876 -1.9274  0.4691 -1.2170
17093TIP3    H272771   5.579   3.368  16.854  1.8768 -0.8028  2.2954
17094TIP3   OH272772   5.592   5.036  11.033  0.0503 -0.3300  0.2540
17094TIP3    H172773   5.533   5.088  11.087 -0.4564  0.3978 -0.9568
17094TIP3    H272774   5.605   5.088  10.953  0.7766 -1.3570 -0.3305
17095TIP3   OH272775   2.879   2.213   5.921  0.4685 -0.3135  0.0333
17095TIP3    H172776   2.849   2.140   5.976  0.9119 -0.0498  0.6372
17095TIP3    H272777   2.883   2.288   5.981 -1.2236  0.5401 -0.8466
17096TIP3   OH272778   4.666   1.786  11.047 -0.3658  0.0471  0.5732
17096TIP3    H172779   4.580   1.829  11.044 -1.4250 -1.9496  0.7330
17096TIP3    H272780   4.672   1.751  11.136 -0.6712 -2.2098 -0.2265
17097TIP3   OH272781   4.923   3.760  13.279 -0.4507  0.6044 -0.5701
17097TIP3    H172782   4.961   3.755  13.192  1.8129 -1.4908  0.4181
17097TIP3    H272783   4.996   3.783  13.336 -1.5989  0.6426  0.9641
17098TIP3   OH272784   2.905   5.063   0.287 -0.4199  0.3205  0.7215
17098TIP3    H172785   2.923   4.985   0.234  0.8969  1.0535  0.0593
17098TIP3    H272786   2.950   5.046   0.370 -0.3743  0.2610  0.6843
17099TIP3   OH272787   1.365   6.391   4.911  0.0877 -0.3918  0.0294
17099TIP3    H172788   1.324   6.395   4.824  1.7593  0.5018 -0.7558
17099TIP3    H272789   1.430   6.321   4.904 -0.4230 -0.9929  0.9092
17100TIP3   OH272790   5.815   2.720   5.049  0.2562  0.4908  0.8029
17100TIP3    H172791   5.864   2.686   5.123  0.3263 -1.8435 -0.2272
17100TIP3    H272792   5.882   2.753   4.989  0.3214  0.6100  0.9410
17101TIP3   OH272793   0.309   6.374   5.757  0.1271 -0.0935 -0.1215
17101TIP3    H172794   0.362   6.453   5.766  0.0921  0.0451 -1.0001
17101TIP3    H272795   0.220   6.406   5.742 -0.6316 -0.3159  3.1737
17102TIP3   OH272796   2.376   6.766   5.023 -0.0788  0.0968  0.0290
17102TIP3    H172797   2.385   6.678   4.986  0.0183  0.3901 -0.6680
17102TIP3    H272798   2.311   6.757   5.092 -0.9974 -0.2798 -0.8693
17103TIP3   OH272799   4.834   2.964   2.336  0.0467 -0.5507 -0.2004
17103TIP3    H172800   4.775   2.974   2.261 -1.7800 -0.3943  1.1846
17103TIP3    H272801   4.875   3.051   2.345 -2.9052  0.8011  1.4496
17104TIP3   OH272802   3.143   6.445   1.763 -0.4165  0.2507  0.2500
17104TIP3    H172803   3.093   6.462   1.842 -1.5932 -0.3713 -0.3448
17104TIP3    H272804   3.079   6.450   1.692  0.2454 -1.1019 -0.4734
17105TIP3   OH272805   6.307   1.399   6.756  0.6495  0.6781 -0.6925
17105TIP3    H172806   6.356   1.352   6.822  0.2971  0.9535 -0.2305
17105TIP3    H272807   6.343   1.368   6.672  1.7098  0.9775 -0.3715
17106TIP3   OH272808   0.392   0.908  17.015  0.4171 -0.1842 -0.0912
17106TIP3    H172809   0.357   0.966  16.947 -1.8251 -0.7107  0.5325
17106TIP3    H272810   0.342   0.930  17.093  0.5104 -1.9701  0.5098
17107TIP3   OH272811   3.730   2.509  14.759  0.0322  0.3200 -0.3889
17107TIP3    H172812   3.738   2.414  14.754 -1.4265  0.2248 -1.7775
17107TIP3    H272813   3.802   2.541  14.704 -0.1847 -0.0329 -0.8892
17108TIP3   OH272814   4.122   3.364  13.691  0.6241  0.1335 -0.3150
17108TIP3    H172815   4.105   3.287  13.637 -1.2550 -0.1342  0.5612
17108TIP3    H272816   4.111   3.438  13.632  1.1261 -0.2297 -0.8664
17109TIP3   OH272817   2.270   2.953  14.230 -0.4507 -0.0949 -0.1595
17109TIP3    H172818   2.300   3.025  14.174 -0.9002  0.0546 -0.2139
17109TIP3    H272819   2.240   2.995  14.310 -0.4131 -0.2500 -0.0640
17110TIP3   OH272820   6.383   2.359   2.390  0.4677  0.0345  0.1878
17110TIP3    H172821   6.292   2.343   2.415  0.2548  1.9623  0.7965
17110TIP3    H272822   6.410   2.432   2.445  2.0861  0.1332 -0.6843
17111TIP3   OH272823   4.777   3.709   0.028  0.1244 -0.0695  0.1250
17111TIP3    H172824   4.712   3.765   0.070  0.4285  0.1384  0.3188
17111TIP3    H272825   4.834   3.770  -0.019 -0.2900 -0.3045 -0.7074
17112TIP3   OH272826   0.278   1.755   1.543 -0.4993 -0.3906 -0.1705
17112TIP3    H172827   0.304   1.668   1.571  0.3153  0.1837  0.9877
17112TIP3    H272828   0.354   1.810   1.563 -0.5562  0.3978 -1.9528
17113TIP3   OH272829   5.268   2.971  13.795  0.6378 -0.5063 -0.1912
17113TIP3    H172830   5.187   3.021  13.784  1.5272  0.7614 -1.3415
17113TIP3    H272831   5.276   2.919  13.716  1.2846 -0.0924 -0.4103
17114TIP3   OH272832   2.143   5.428  12.160  0.6815 -0.1813 -0.0456
17114TIP3    H172833   2.107   5.504  12.114 -0.3289 -0.8286 -0.3743
17114TIP3    H272834   2.066   5.383  12.195  1.4472  1.0946  3.6663
17115TIP3   OH272835   6.774   2.430   4.153 -0.0718 -0.4409  0.2955
17115TIP3    H172836   6.695   2.466   4.112 -0.3684 -1.3725  0.0126
17115TIP3    H272837   6.846   2.474   4.109 -0.2092 -3.4670 -3.5678
17116TIP3   OH272838   6.339   5.532  11.529 -0.3070 -1.0668 -0.6420
17116TIP3    H172839   6.371   5.446  11.555  0.6979 -0.5106  0.0036
17116TIP3    H272840   6.390   5.594  11.581 -0.9576 -0.0725 -1.1531
17117TIP3   OH272841   4.192   5.378  14.948  0.3890 -0.6530 -0.5442
17117TIP3    H172842   4.157   5.352  14.863  1.2587 -0.1506 -1.0727
17117TIP3    H272843   4.243   5.303  14.977  0.1920 -0.7789 -0.5240
17118TIP3   OH272844   3.855   6.792   3.891 -0.2225 -0.1077  0.6077
17118TIP3    H172845   3.836   6.704   3.859 -3.6095 -0.9327  4.1715
17118TIP3    H272846   3.947   6.788   3.920  0.0745 -2.0183 -0.4908
17119TIP3   OH272847   0.892   1.156  13.604  0.1682 -0.0522  0.1751
17119TIP3    H172848   0.826   1.206  13.652  0.5223 -0.1680  0.7834
17119TIP3    H272849   0.972   1.166  13.655  0.7294  0.4163 -0.7643
17120TIP3   OH272850   4.497   5.693   0.967 -0.3069 -0.2643  0.0590
17120TIP3    H172851   4.464   5.699   1.056 -0.4791  0.0338 -0.0228
17120TIP3    H272852   4.418   5.683   0.913 -0.2143 -0.3003 -0.0704
17121TIP3   OH272853   3.462   1.377  12.949  0.2626 -0.2310 -0.1497
17121TIP3    H172854   3.540   1.336  12.986 -0.2869 -1.2526 -0.1126
17121TIP3    H272855   3.475   1.471  12.965  1.9045 -0.2838 -0.9494
17122TIP3   OH272856   2.911   4.047  16.612 -0.1689 -0.4959 -0.1096
17122TIP3    H172857   2.979   4.013  16.553 -0.7471 -1.2050 -0.3759
17122TIP3    H272858   2.858   4.104  16.556  1.3910  1.7758  0.5502
17123TIP3   OH272859   6.276   3.650  16.539 -0.0984  0.0224  0.4934
17123TIP3    H172860   6.332   3.575  16.558 -1.4432 -0.8646  1.1083
17123TIP3    H272861   6.328   3.704  16.479  1.2065 -0.9925  0.6652
17124TIP3   OH272862   0.226   1.134  14.012 -0.0640 -0.1929  0.6107
17124TIP3    H172863   0.182   1.183  14.081 -1.2481  0.0644 -0.3054
17124TIP3    H272864   0.177   1.052  14.005 -0.2698 -0.0008 -0.2715
17125TIP3   OH272865   4.303   4.834   3.974 -0.3451  0.0139  0.2618
17125TIP3    H172866   4.369   4.798   3.915 -1.7081 -0.8994 -0.7360
17125TIP3    H272867   4.336   4.812   4.062  0.7452 -0.2837 -0.1973
17126TIP3   OH272868   1.784   3.987   4.042 -0.8660  0.3886 -0.1225
17126TIP3    H172869   1.838   4.039   4.102 -1.4757  0.4098  0.4241
17126TIP3    H272870   1.710   4.043   4.022 -1.5036 -0.2427  0.4283
17127TIP3   OH272871   2.158   5.212   6.265  0.5440 -0.8396 -0.0796
17127TIP3    H172872   2.144   5.126   6.304  0.1883  0.4533  2.9347
17127TIP3    H272873   2.082   5.263   6.293  1.1864  0.6925 -1.0336
17128TIP3   OH272874   5.303   3.277   4.854 -0.2325  0.1510 -0.2174
17128TIP3    H172875   5.213   3.291   4.823 -0.7325 -0.9548  0.6715
17128TIP3    H272876   5.345   3.362   4.842 -1.7815  1.0849  0.6203
17129TIP3   OH272877   3.513   4.285   5.144  0.6053 -0.4036 -0.0260
17129TIP3    H172878   3.561   4.220   5.197  0.3320 -1.2832 -0.8323
17129TIP3    H272879   3.562   4.288   5.062  1.0866  1.0331  0.2855
17130TIP3   OH272880   5.822   6.711  10.982  0.0684 -0.4102 -0.2149
17130TIP3    H172881   5.877   6.775  10.936  0.2944  0.4178  1.1421
17130TIP3    H272882   5.841   6.628  10.939  0.0100  0.3559 -1.8239
17131TIP3   OH272883   6.348   5.453  12.655 -0.4157 -0.5037  0.1817
17131TIP3    H172884   6.283   5.383  12.665 -0.1946 -0.5239  1.6216
17131TIP3    H272885   6.432   5.407  12.650 -0.3041 -0.3658  0.7409
17132TIP3   OH272886   4.996   5.829   3.470  0.2654 -0.3091  0.0369
17132TIP3    H172887   4.959   5.747   3.438 -0.5883 -0.0564  0.3302
17132TIP3    H272888   5.054   5.858   3.400 -0.5871 -0.4180 -0.7393
17133TIP3   OH272889   1.284   1.692  14.659 -0.0995  0.3118 -0.1674
17133TIP3    H172890   1.299   1.648  14.742  1.4030  0.9408 -0.0730
17133TIP3    H272891   1.217   1.758  14.679  0.0569  0.2813  0.4749
17134TIP3   OH272892   5.127   3.686  16.538 -0.2695 -0.3354 -0.0139
17134TIP3    H172893   5.042   3.700  16.497 -1.4468 -3.1642  1.1996
17134TIP3    H272894   5.125   3.742  16.616 -1.0388 -0.3393 -0.0189
17135TIP3   OH272895   6.302   2.848   1.013 -0.8461 -0.2361 -0.5933
17135TIP3    H172896   6.397   2.839   1.025 -0.8179 -3.2550 -2.1656
17135TIP3    H272897   6.266   2.762   1.034 -3.1759  0.6280 -0.7510
17136TIP3   OH272898   3.286   2.282  15.738 -0.2219  0.0270 -0.5428
17136TIP3    H172899   3.260   2.332  15.661  0.0654 -0.6021 -1.0569
17136TIP3    H272900   3.381   2.296  15.745 -0.1487 -0.3942 -0.6545
17137TIP3   OH272901   3.132   3.073  13.236  0.4974 -0.2172 -0.0992
17137TIP3    H172902   3.092   3.004  13.289 -0.3803 -0.4582 -1.0490
17137TIP3    H272903   3.212   3.033  13.202 -0.1796 -0.8962 -0.9223
17138TIP3   OH272904   0.161   5.721   2.933  0.0494 -0.4274  0.1047
17138TIP3    H172905   0.218   5.674   2.873 -1.1234 -0.8718 -0.7043
17138TIP3    H272906   0.220   5.760   2.997  1.2728 -0.6058 -0.8783
17139TIP3   OH272907   0.005   5.205   1.945  0.2641  0.0293  0.1581
17139TIP3    H172908   0.016   5.228   2.038  1.4877 -1.1681  0.3415
17139TIP3    H272909  -0.089   5.197   1.934 -0.0086  1.6455  0.9121
17140TIP3   OH272910   1.567   1.918   2.057  0.2577 -0.0176 -0.6537
17140TIP3    H172911   1.612   1.834   2.049  0.1843 -0.2772  1.2184
17140TIP3    H272912   1.541   1.923   2.149 -1.3957  1.2189 -1.1340
17141TIP3   OH272913   3.730   5.860   1.796  0.6191  0.5015  0.5176
17141TIP3    H172914   3.751   5.886   1.706 -0.7175  0.2376  0.1018
17141TIP3    H272915   3.637   5.879   1.806  0.3259 -1.0901  1.2483
17142TIP3   OH272916   5.416   3.553  12.788  0.3570  0.1164 -0.4804
17142TIP3    H172917   5.436   3.464  12.817 -0.6675  0.0522  0.0623
17142TIP3    H272918   5.324   3.550  12.763 -0.1659  1.4054  1.1225
17143TIP3   OH272919   6.617   1.259  11.668 -0.1000  0.1367 -0.2476
17143TIP3    H172920   6.683   1.209  11.620 -0.8243 -0.1367 -0.9761
17143TIP3    H272921   6.623   1.226  11.758  0.8915  0.2659 -0.2543
17144TIP3   OH272922   5.670   0.560  10.780 -0.3400  0.4638 -0.4169
17144TIP3    H172923   5.695   0.547  10.871 -0.5523  0.6877 -0.3265
17144TIP3    H272924   5.713   0.488  10.733  2.6274  2.2055 -0.6359
17145TIP3   OH272925   5.896   6.444  14.472  0.5604  0.5029  0.0131
17145TIP3    H172926   5.936   6.496  14.542 -0.5048  1.1420  0.1718
17145TIP3    H272927   5.807   6.427  14.503  0.5775 -0.5797 -0.4898
17146TIP3   OH272928   3.820   5.833  10.900 -0.4478 -0.2072  0.5136
17146TIP3    H172929   3.890   5.779  10.938 -0.5753 -0.5579  0.2567
17146TIP3    H272930   3.839   5.835  10.807 -1.2983 -1.1032  0.2991
17147TIP3   OH272931   6.105   3.773   5.613 -0.5004 -0.2916 -0.6925
17147TIP3    H172932   6.050   3.716   5.667 -0.0329  0.6565  0.8552
17147TIP3    H272933   6.053   3.852   5.600 -0.1137  0.0013 -0.5073
17148TIP3   OH272934   2.448   2.471  16.395  0.5135 -0.3340 -0.2733
17148TIP3    H172935   2.441   2.420  16.476  1.4243  1.7288  1.1881
17148TIP3    H272936   2.504   2.418  16.339  1.2074 -1.0938  1.0733
17149TIP3   OH272937   0.081   4.218   4.566  0.6275 -0.1836  0.0717
17149TIP3    H172938   0.111   4.220   4.656 -0.1779  2.1805  0.3506
17149TIP3    H272939  -0.011   4.189   4.572  0.5178  0.1541  0.0354
17150TIP3   OH272940   0.317   2.470  14.869 -0.0468 -0.3960  0.3016
17150TIP3    H172941   0.375   2.535  14.909 -0.7415  0.3456  0.1227
17150TIP3    H272942   0.317   2.493  14.776 -1.1447  0.0242  0.3981
17151TIP3   OH272943   4.012   4.693  16.006  0.5802  0.2242  0.1842
17151TIP3    H172944   4.011   4.689  15.910  0.9787 -1.5284  0.2205
17151TIP3    H272945   4.095   4.737  16.027  1.8809 -1.8644 -0.2826
17152TIP3   OH272946   4.548   6.453  13.310  0.0011  0.8302 -0.0667
17152TIP3    H172947   4.515   6.373  13.270  0.9535  0.8390 -0.8960
17152TIP3    H272948   4.573   6.427  13.399  1.9854 -0.2533 -0.8826
17153TIP3   OH272949   2.062   0.333  16.848  0.1878 -0.3911  0.6059
17153TIP3    H172950   2.137   0.373  16.892 -0.2579  0.4009  0.6637
17153TIP3    H272951   1.986   0.372  16.891 -0.2512 -0.4858 -0.0769
17154TIP3   OH272952   1.658   5.491   3.263  0.2481  0.3813  0.5733
17154TIP3    H172953   1.688   5.442   3.186  0.1861  0.0259  0.7741
17154TIP3    H272954   1.710   5.572   3.261  0.4541  0.2463  0.3180
17155TIP3   OH272955   3.045   1.613  14.104 -0.7419 -0.0399  0.0067
17155TIP3    H172956   2.960   1.632  14.066  0.2736  1.0512 -1.8999
17155TIP3    H272957   3.107   1.625  14.031  1.1281  0.1075  1.5383
17156TIP3   OH272958   5.492   5.862   0.519 -0.2066 -0.4155 -0.4376
17156TIP3    H172959   5.453   5.835   0.602 -0.7146 -1.5153 -1.0139
17156TIP3    H272960   5.581   5.889   0.542  0.3527 -2.5892  0.2202
17157TIP3   OH272961   6.066   4.544   1.472  0.1111 -0.0422  0.1651
17157TIP3    H172962   6.044   4.618   1.530  1.4727 -0.0470  0.7089
17157TIP3    H272963   6.013   4.471   1.506 -0.1948  0.3268  0.4920
17158TIP3   OH272964   4.316   3.625  11.895 -0.4806 -0.2865  1.0946
17158TIP3    H172965   4.287   3.655  11.981 -1.0798  0.9653  0.4782
17158TIP3    H272966   4.360   3.701  11.856  0.7058 -1.1495  0.6878
17159TIP3   OH272967   5.077   4.206  11.526 -0.3346 -0.4993 -0.1023
17159TIP3    H172968   5.041   4.148  11.594 -0.1732 -1.5594 -0.8830
17159TIP3    H272969   5.075   4.293  11.565 -0.9838 -0.9651  0.9646
17160TIP3   OH272970   5.296   4.809  13.170 -0.5872  0.2364 -0.1105
17160TIP3    H172971   5.264   4.816  13.260 -1.5291  1.9319 -0.5415
17160TIP3    H272972   5.218   4.817  13.116 -0.1417 -1.5809 -1.1044
17161TIP3   OH272973   1.260   0.557  10.317  0.8189 -0.2637  0.6685
17161TIP3    H172974   1.271   0.475  10.269  0.2980  0.7524 -1.3122
17161TIP3    H272975   1.322   0.552  10.389  1.0905 -2.2101  0.3400
17162TIP3   OH272976   2.716   5.349  15.514 -0.1124 -0.5252 -0.1164
17162TIP3    H172977   2.708   5.409  15.440  0.6956 -0.4201 -0.1245
17162TIP3    H272978   2.787   5.289  15.490 -0.2515 -0.8716  0.3140
17163TIP3   OH272979   1.654   1.778   3.578 -0.6932 -0.1489 -0.4622
17163TIP3    H172980   1.705   1.844   3.625 -1.4385 -0.0850  0.2727
17163TIP3    H272981   1.690   1.694   3.609 -0.3003 -0.1001 -0.7775
17164TIP3   OH272982   3.439   4.778   4.842  0.2827 -0.1485 -0.1790
17164TIP3    H172983   3.404   4.778   4.753 -0.3214  0.5846  0.0511
17164TIP3    H272984   3.491   4.697   4.847 -0.7632 -0.8796 -0.7576
17165TIP3   OH272985   2.146   5.533  13.790  0.7435  0.5808 -0.3214
17165TIP3    H172986   2.224   5.477  13.789  0.4579  0.1839 -0.4221
17165TIP3    H272987   2.180   5.620  13.809  1.4926  0.8046 -2.3888
17166TIP3   OH272988   2.678   2.933  12.797  0.0592  0.0404 -0.7702
17166TIP3    H172989   2.756   2.971  12.757  0.5876  0.8127  0.9030
17166TIP3    H272990   2.702   2.921  12.889 -2.2400  1.7105  0.1531
17167TIP3   OH272991   0.515   4.640  11.049  0.1850  0.0567  0.0796
17167TIP3    H172992   0.532   4.550  11.075  0.6673  0.2940  0.6162
17167TIP3    H272993   0.421   4.651  11.061  0.3034 -0.0208  1.1763
17168TIP3   OH272994   6.341   1.646  16.907 -0.3314 -0.0568 -0.2120
17168TIP3    H172995   6.328   1.648  16.812 -0.3152 -1.7901 -0.2918
17168TIP3    H272996   6.371   1.557  16.925  1.2305  0.6995  1.2464
17169TIP3   OH272997   0.548   0.774   2.087 -0.2538 -0.4237  1.1141
17169TIP3    H172998   0.539   0.847   2.027  1.4971 -0.2041  1.0548
17169TIP3    H272999   0.610   0.715   2.044  0.4769 -0.6149  2.3571
17170TIP3   OH273000   3.935   4.537   4.039 -0.7175 -0.4356  0.2403
17170TIP3    H173001   3.970   4.626   4.040 -0.1453 -0.6405 -0.4311
17170TIP3    H273002   3.849   4.544   4.081 -0.6053  0.3969  0.3486
17171TIP3   OH273003   1.604   0.178   5.000  0.2157  0.1601  0.0135
17171TIP3    H173004   1.590   0.151   4.910 -0.4909 -2.0894  0.7196
17171TIP3    H273005   1.646   0.103   5.042  0.2231  1.0047  1.6410
17172TIP3   OH273006   1.182   1.465   2.332 -0.3538 -0.4401  0.0206
17172TIP3    H173007   1.158   1.457   2.425  0.6424 -2.2097  0.1691
17172TIP3    H273008   1.127   1.536   2.299 -3.6024 -2.2951  1.0171
17173TIP3   OH273009   3.389   3.589  17.164  0.1790  0.5572  0.2029
17173TIP3    H173010   3.320   3.536  17.205  0.8699 -0.1195  0.5133
17173TIP3    H273011   3.470   3.543  17.184  0.6634  0.9318 -0.8152
17174TIP3   OH273012   2.619   0.581   2.687  0.1719  0.3531  0.4947
17174TIP3    H173013   2.614   0.514   2.756  0.6296  0.2434  0.4252
17174TIP3    H273014   2.591   0.535   2.608  0.0235  0.3715  0.5375
17175TIP3   OH273015   0.219   6.544  10.512  0.0176  0.0391 -0.9694
17175TIP3    H173016   0.165   6.474  10.548  1.1800 -0.2022  0.3674
17175TIP3    H273017   0.276   6.500  10.449  1.0720 -0.3245  0.2134
17176TIP3   OH273018   4.281   0.390  13.413  0.2408 -0.7788 -0.2819
17176TIP3    H173019   4.309   0.351  13.329  1.6900 -1.9484  0.6902
17176TIP3    H273020   4.216   0.328  13.447  0.9928 -1.2836  0.2773
17177TIP3   OH273021   5.281   3.465  15.101  0.1509 -0.0596 -0.1384
17177TIP3    H173022   5.312   3.391  15.049  1.1828  0.6060 -0.5169
17177TIP3    H273023   5.353   3.529  15.096 -0.4267  0.6817  0.7442
17178TIP3   OH273024   2.093   3.368   1.994 -0.7275  0.1112 -0.3259
17178TIP3    H173025   2.132   3.374   1.906 -1.3765  2.1353 -0.5329
17178TIP3    H273026   2.000   3.351   1.978 -1.1618  2.0438 -0.1633
17179TIP3   OH273027   2.857   0.198   5.315 -0.0466 -0.0292 -0.2124
17179TIP3    H173028   2.928   0.144   5.348 -1.4835 -0.6482  2.1528
17179TIP3    H273029   2.869   0.283   5.358  0.9218  0.9217 -2.1887
17180TIP3   OH273030   4.006   6.720  11.853 -0.1817 -0.1784  0.2504
17180TIP3    H173031   4.097   6.741  11.874  0.2836 -1.3802 -0.4276
17180TIP3    H273032   3.974   6.673  11.930 -0.4777  0.9128  0.8008
17181TIP3   OH273033   4.028   0.194  17.116  0.1326  0.0596 -0.6492
17181TIP3    H173034   3.937   0.194  17.143 -0.0246 -1.9130 -1.0330
17181TIP3    H273035   4.028   0.153  17.030  1.5002 -1.2207 -0.0969
17182TIP3   OH273036   2.772   0.379   4.087 -0.1747 -0.1383 -0.3791
17182TIP3    H173037   2.782   0.469   4.058  0.4867  0.3590  1.2774
17182TIP3    H273038   2.859   0.340   4.075  0.1429  0.1111  0.9637
17183TIP3   OH273039   5.820   0.002  13.249 -0.2763 -0.0481 -0.2824
17183TIP3    H173040   5.739  -0.034  13.287 -0.2008  0.0794 -0.0025
17183TIP3    H273041   5.806  -0.004  13.154 -1.4260  1.7825 -0.2739
17184TIP3   OH273042   2.165   0.891   5.948 -0.4217 -0.2854  0.0045
17184TIP3    H173043   2.236   0.919   5.890 -0.8347 -0.7462 -0.7464
17184TIP3    H273044   2.121   0.972   5.972 -0.3034 -0.0909 -0.4144
17185TIP3   OH273045   3.860   5.906  16.293  0.1174 -0.0294 -0.3906
17185TIP3    H173046   3.920   5.980  16.282  0.2733  0.2731  2.0562
17185TIP3    H273047   3.780   5.933  16.247  0.4492  1.3010 -0.2377
17186TIP3   OH273048   6.348   0.750   1.626 -0.0436  0.9347 -0.0567
17186TIP3    H173049   6.350   0.670   1.678  1.5426  0.6529 -0.4990
17186TIP3    H273050   6.434   0.790   1.640 -0.0033  1.4310 -1.5429
17187TIP3   OH273051   6.067   4.856  17.183  0.2501  0.0846  0.2582
17187TIP3    H173052   6.108   4.770  17.171 -2.2565 -1.8045  3.5267
17187TIP3    H273053   6.131   4.907  17.232  0.4806 -1.2136  1.3757
17188TIP3   OH273054   6.087   4.165   5.801 -0.1995 -0.2135  0.0044
17188TIP3    H173055   6.102   4.079   5.841 -1.5504  0.0791  1.2353
17188TIP3    H273056   6.115   4.228   5.868 -0.4512  0.2958 -0.3628
17189TIP3   OH273057   1.688   3.570  14.135 -0.0845 -0.1005 -0.4482
17189TIP3    H173058   1.636   3.599  14.060 -1.1301  1.9868  0.9841
17189TIP3    H273059   1.728   3.651  14.168 -0.0934 -0.8699  1.5521
17190TIP3   OH273060   4.358   5.640  12.355 -0.0339  0.2662  0.1291
17190TIP3    H173061   4.412   5.627  12.433  0.3853 -2.5681 -0.5027
17190TIP3    H273062   4.323   5.729  12.364  1.7015  0.8152  2.4403
17191TIP3   OH273063   4.371   5.320  11.957  0.0052 -0.4268  0.0704
17191TIP3    H173064   4.393   5.303  12.049  1.1031 -1.7762 -0.4050
17191TIP3    H273065   4.445   5.284  11.908  0.1720  1.6007 -1.3077
17192TIP3   OH273066   5.851   0.027  13.970  0.0627 -0.3542 -0.0455
17192TIP3    H173067   5.808   0.024  14.056 -1.2145 -0.2950 -0.6724
17192TIP3    H273068   5.837  -0.060  13.933 -0.7510  0.1071 -0.8378
17193TIP3   OH273069   1.951   0.508  15.601 -0.0014  0.4835  0.1079
17193TIP3    H173070   1.990   0.483  15.517  0.6695 -0.0961  0.5801
17193TIP3    H273071   1.871   0.555  15.577 -2.1503 -3.2825 -0.8954
17194TIP3   OH273072   6.163   2.219   1.972  0.1131 -0.5583 -0.0773
17194TIP3    H173073   6.241   2.274   1.973 -0.6002  0.4904  1.2146
17194TIP3    H273074   6.095   2.275   1.936 -0.4699 -0.8174  0.5939
17195TIP3   OH273075   4.702   5.741  12.108 -0.3078  0.1209 -0.3576
17195TIP3    H173076   4.683   5.799  12.182 -0.9074 -0.7148  0.1601
17195TIP3    H273077   4.647   5.664  12.123  1.2389 -1.0552 -0.4584
17196TIP3   OH273078   4.641   0.572   1.303  0.3246  0.2203  0.4109
17196TIP3    H173079   4.673   0.662   1.298  1.1044 -0.1144 -1.9701
17196TIP3    H273080   4.651   0.538   1.214 -0.5188 -2.0366  1.1072
17197TIP3   OH273081   5.205   6.743  10.828  0.7462 -0.2165  0.3020
17197TIP3    H173082   5.135   6.691  10.789  1.2308 -1.8414  1.5088
17197TIP3    H273083   5.206   6.824  10.778 -1.4010 -0.5299 -0.3137
17198TIP3   OH273084   0.851   2.296  12.791  0.0056  0.3003 -0.3282
17198TIP3    H173085   0.924   2.326  12.846 -0.4746  0.7773  0.0593
17198TIP3    H273086   0.882   2.307  12.702  0.4194  0.4721 -0.1650
17199TIP3   OH273087   3.896   0.877  13.002  0.4104  0.2534 -0.2060
17199TIP3    H173088   3.845   0.853  12.925 -0.8053  0.6066  0.4698
17199TIP3    H273089   3.831   0.896  13.070  1.4481 -0.5119  1.0655
17200TIP3   OH273090   6.419   6.482  16.945 -0.0481 -0.4762 -0.2714
17200TIP3    H173091   6.505   6.460  16.908 -0.8776 -0.3820 -2.4111
17200TIP3    H273092   6.404   6.415  17.011  0.1520 -2.7264 -2.3707
17201TIP3   OH273093   4.046   2.586   0.788 -0.4115 -0.2668  0.1315
17201TIP3    H173094   3.958   2.622   0.804  0.2977  1.6715 -0.1022
17201TIP3    H273095   4.091   2.594   0.872  1.1300  3.5832 -0.8829
17202TIP3   OH273096   6.576   4.151  11.427  1.1495  0.0177 -0.0929
17202TIP3    H173097   6.532   4.068  11.409 -0.7594  0.7055  1.0611
17202TIP3    H273098   6.669   4.131  11.422  0.7620 -2.4796  1.3873
17203TIP3   OH273099   5.964   1.704   3.744  0.3020  0.2048 -0.7323
17203TIP3    H173100   5.889   1.730   3.691 -1.1937  0.7130  1.5085
17203TIP3    H273101   5.933   1.709   3.834  2.5853 -1.0895  0.2093
17204TIP3   OH273102   1.251   2.551   1.451  0.1567 -0.0375 -0.4216
17204TIP3    H173103   1.324   2.489   1.452 -0.1112 -0.3651  1.1243
17204TIP3    H273104   1.280   2.621   1.393  1.0594 -0.9064 -1.0531
17205TIP3   OH273105   2.136   5.448   5.165 -0.0108  0.8139 -0.2256
17205TIP3    H173106   2.082   5.496   5.227  0.0363  1.4206 -0.6443
17205TIP3    H273107   2.083   5.372   5.140  0.1048  0.3772  0.7958
17206TIP3   OH273108   0.864   4.381   4.099 -0.2293  0.0746 -0.0354
17206TIP3    H173109   0.881   4.423   4.184 -0.6119 -1.0497  0.6143
17206TIP3    H273110   0.827   4.296   4.121 -0.7585 -0.0566 -1.3508
17207TIP3   OH273111   2.585   3.235   2.437  0.0808 -0.2665 -0.1650
17207TIP3    H173112   2.551   3.242   2.526  0.6464 -0.4995  0.0779
17207TIP3    H273113   2.550   3.311   2.391 -1.1219 -0.7389 -0.0519
17208TIP3   OH273114   0.177   0.488  12.865 -0.3964  0.0430  0.4640
17208TIP3    H173115   0.270   0.470  12.879  0.0206  2.0826  0.5065
17208TIP3    H273116   0.146   0.411  12.816  1.4618 -0.3501 -0.1904
17209TIP3   OH273117   3.704   6.723   0.928  0.0931 -0.0377 -0.3467
17209TIP3    H173118   3.631   6.782   0.910  0.0247 -0.4093 -1.4100
17209TIP3    H273119   3.782   6.775   0.910  0.0307 -0.2811 -1.4568
17210TIP3   OH273120   6.258   4.390  11.874  0.1522 -0.2051 -0.4525
17210TIP3    H173121   6.198   4.390  11.799 -1.7126  0.8907  0.9598
17210TIP3    H273122   6.286   4.481  11.883  1.1454 -0.5028 -0.3830
17211TIP3   OH273123   4.066   6.648  14.452  0.0697 -0.4282  0.1248
17211TIP3    H173124   4.092   6.662  14.543  0.6591 -1.3852  0.1267
17211TIP3    H273125   4.060   6.553  14.443  1.4006 -0.4371 -1.1839
17212TIP3   OH273126   4.518   4.700   0.027 -0.2347 -0.1842 -0.2235
17212TIP3    H173127   4.504   4.776   0.083  1.9023 -0.5813  0.9395
17212TIP3    H273128   4.592   4.654   0.066  0.1393 -1.5145 -2.3161
17213TIP3   OH273129   2.271   1.374   3.335  0.0910  0.1012  0.2270
17213TIP3    H173130   2.256   1.468   3.325 -0.6315 -0.0251  0.0959
17213TIP3    H273131   2.184   1.334   3.328  0.5542 -0.7148 -1.3101
17214TIP3   OH273132   1.412   5.794  15.191 -0.1791  0.5246  0.7140
17214TIP3    H173133   1.447   5.878  15.161  2.5008 -1.0052 -0.7869
17214TIP3    H273134   1.486   5.750  15.231 -1.3451 -1.4152  0.8577
17215TIP3   OH273135   4.944   4.073  11.723  0.3592 -0.4311  0.5114
17215TIP3    H173136   4.918   4.019  11.798  1.0051  1.2221  1.9888
17215TIP3    H273137   4.872   4.135  11.713  0.7852  0.0555  0.4731
17216TIP3   OH273138   1.574   4.591  13.988  0.2682 -0.6617  0.1686
17216TIP3    H173139   1.545   4.678  13.958  1.3510 -0.5885 -0.7199
17216TIP3    H273140   1.514   4.570  14.060 -0.6647  0.3689 -0.2704
17217TIP3   OH273141   1.543   2.395   0.307  0.2039 -0.4620  0.5299
17217TIP3    H173142   1.521   2.425   0.395 -0.1391 -0.8384  0.5751
17217TIP3    H273143   1.508   2.463   0.249  0.7613 -0.0248  0.6954
17218TIP3   OH273144   5.525   0.133  11.003  0.1269 -0.2110  0.6949
17218TIP3    H173145   5.500   0.223  11.024  1.0885  0.1387  0.4151
17218TIP3    H273146   5.449   0.081  11.027 -1.2215  0.8895 -0.9906
17219TIP3   OH273147   6.397   3.901  14.674 -0.3618 -0.1825  0.2873
17219TIP3    H173148   6.431   3.987  14.697  1.6877 -0.7974 -0.1530
17219TIP3    H273149   6.435   3.842  14.739  0.5262 -1.0826 -0.9743
17220TIP3   OH273150   5.106   4.919   0.059  0.3960  0.2862 -0.0362
17220TIP3    H173151   5.154   4.983   0.007  0.5770  0.0758 -0.1305
17220TIP3    H273152   5.015   4.927   0.030  0.3779  0.6624  0.1189
17221TIP3   OH273153   3.284   4.973  15.875  0.0288  0.4549 -0.0989
17221TIP3    H173154   3.376   4.948  15.881  0.6032  2.0700 -1.4817
17221TIP3    H273155   3.254   4.974  15.966  1.2694 -0.4319  0.3548
17222TIP3   OH273156   3.385   2.491  15.327 -0.5155 -0.5467 -0.2331
17222TIP3    H173157   3.337   2.437  15.390 -0.2373  1.4737  1.8712
17222TIP3    H273158   3.336   2.483  15.245 -2.0644 -1.7438  0.7638
17223TIP3   OH273159   3.874   1.427  13.694 -0.1078  0.1116 -0.0819
17223TIP3    H173160   3.904   1.392  13.610  1.6735  0.8832  0.1736
17223TIP3    H273161   3.827   1.508  13.671  0.8734  0.6306 -0.3334
17224TIP3   OH273162   6.218   0.377  13.223  0.1243 -0.0226  0.8130
17224TIP3    H173163   6.143   0.394  13.166  1.4110  1.8977 -0.4197
17224TIP3    H273164   6.282   0.334  13.166 -0.2205 -2.3336  2.0319
17225TIP3   OH273165   4.660   5.550  15.825 -0.1263 -0.0178  0.4745
17225TIP3    H173166   4.574   5.591  15.832 -0.4812 -0.9004  1.8733
17225TIP3    H273167   4.692   5.546  15.915  1.5357  0.5709 -0.0450
17226TIP3   OH273168   1.064   5.692  11.072  0.1112 -0.0318 -0.6955
17226TIP3    H173169   1.062   5.727  11.160  0.9989  0.5082 -0.8726
17226TIP3    H273170   0.975   5.703  11.038 -0.5263 -1.2665  0.5033
17227TIP3   OH273171   0.052   2.673   0.154  0.4826 -0.3222 -0.5362
17227TIP3    H173172  -0.039   2.666   0.182  1.1900  1.4616  2.7696
17227TIP3    H273173   0.076   2.764   0.173  3.3663 -1.1398  0.2731
17228TIP3   OH273174   3.034   6.449   2.291 -0.0037  0.2267  0.1360
17228TIP3    H173175   3.015   6.399   2.211 -0.4557  0.3382  0.1725
17228TIP3    H273176   2.948   6.462   2.333  0.3517 -0.8577  1.2534
17229TIP3   OH273177   1.238   6.750   5.765 -0.9111 -0.3698 -0.0656
17229TIP3    H173178   1.273   6.830   5.806 -1.4937  0.4850 -1.1978
17229TIP3    H273179   1.180   6.712   5.832 -1.3617  0.6598  0.1419
17230TIP3   OH273180   3.144   4.302  14.086 -0.0056 -0.6204 -0.4212
17230TIP3    H173181   3.172   4.253  14.163 -0.4010 -2.2437 -1.2511
17230TIP3    H273182   3.126   4.390  14.118 -0.5219 -1.3553  1.4155
17231TIP3   OH273183   1.355   3.407   0.079  0.2652  0.1497  0.0037
17231TIP3    H173184   1.310   3.453   0.008  1.2490  1.6161  0.2689
17231TIP3    H273185   1.290   3.402   0.149  0.3805  2.0598  0.3149
17232TIP3   OH273186   5.744   3.422  15.986 -0.4395 -0.0341  0.2560
17232TIP3    H173187   5.827   3.374  15.981 -0.3250  0.1840  0.0819
17232TIP3    H273188   5.702   3.389  16.066 -0.2344 -0.2199  0.2877
17233TIP3   OH273189   5.123   1.603  12.567  0.8744 -0.0167 -0.6692
17233TIP3    H173190   5.107   1.552  12.488  0.4146 -1.1202  0.1177
17233TIP3    H273191   5.061   1.676  12.562 -0.9011 -1.4317 -0.1457
17234TIP3   OH273192   0.780   1.980  14.337 -0.0855  0.5412  0.2677
17234TIP3    H173193   0.800   1.929  14.415 -0.4094 -0.0875 -0.0577
17234TIP3    H273194   0.847   1.955  14.274 -0.1752  0.6097  0.1445
17235TIP3   OH273195   3.971   3.235   0.703 -0.8399 -0.6309 -0.3472
17235TIP3    H173196   3.981   3.143   0.678  0.0993 -0.5858 -0.1809
17235TIP3    H273197   4.039   3.281   0.653  1.0546 -0.5218  2.1738
17236TIP3   OH273198   5.767   2.856   2.486 -0.3138  0.8459 -0.2642
17236TIP3    H173199   5.851   2.891   2.456 -0.6839  2.8869  0.9010
17236TIP3    H273200   5.787   2.813   2.569 -0.3254  0.7379 -0.3165
17237TIP3   OH273201   6.300   1.944  16.206 -0.2305  0.2314  0.0348
17237TIP3    H173202   6.361   1.917  16.274  1.7621  2.4122 -0.7597
17237TIP3    H273203   6.218   1.962  16.252  1.0676  1.6563  1.8783
17238TIP3   OH273204   4.621   3.976  16.358  0.0868  0.4982  0.3608
17238TIP3    H173205   4.546   3.920  16.337  0.2540  0.5008 -0.2593
17238TIP3    H273206   4.675   3.974  16.279  0.8471  0.3311  0.8805
17239TIP3   OH273207   6.258   0.144   0.579  0.0688 -0.3431  0.4052
17239TIP3    H173208   6.268   0.055   0.546 -2.9726 -0.6407 -0.0383
17239TIP3    H273209   6.216   0.133   0.665 -0.8039  0.6267  0.1307
17240TIP3   OH273210   5.159   6.735   1.869 -0.2837 -0.1839  0.2675
17240TIP3    H173211   5.068   6.708   1.882 -0.5888  1.0935  0.9273
17240TIP3    H273212   5.210   6.676   1.924 -0.9149  0.3701  1.4980
17241TIP3   OH273213   0.159   6.208   1.241 -0.1577 -0.2953 -0.1517
17241TIP3    H173214   0.181   6.301   1.240 -0.1682 -0.2728  0.8005
17241TIP3    H273215   0.114   6.194   1.324  0.1204 -1.2086 -0.1338
17242TIP3   OH273216   1.248   1.505   3.960 -0.3857  0.4363  0.5355
17242TIP3    H173217   1.280   1.448   3.889  0.4198  0.3220  0.9756
17242TIP3    H273218   1.273   1.459   4.040  1.9125  2.2457  0.9418
17243TIP3   OH273219   1.610   0.326   0.922 -0.2437  0.0493 -0.5505
17243TIP3    H173220   1.660   0.406   0.940 -1.9461  1.1747 -0.6147
17243TIP3    H273221   1.638   0.265   0.991  0.0999  1.1724  0.3431
17244TIP3   OH273222   4.038   4.754   0.190  0.2549  0.0658 -0.2026
17244TIP3    H173223   4.022   4.664   0.218 -0.8214  0.2167 -0.2968
17244TIP3    H273224   3.956   4.801   0.210 -0.6283  0.2054 -3.5479
17245TIP3   OH273225   4.998   0.971  17.249  0.0920 -0.2232 -0.2859
17245TIP3    H173226   5.021   0.890  17.295 -0.6520  0.6522  1.7606
17245TIP3    H273227   4.927   0.946  17.190 -0.8393 -0.9123  1.0620
17246TIP3   OH273228   3.338   0.399  12.090 -0.5871  0.5933  0.0194
17246TIP3    H173229   3.318   0.413  11.997 -1.7851  0.5497  0.2580
17246TIP3    H273230   3.252   0.395  12.132 -0.0931 -0.6995  0.9382
17247TIP3   OH273231   0.584   1.542  12.476 -0.0219 -0.2034 -0.2166
17247TIP3    H173232   0.499   1.569  12.510  0.2601  1.4365 -0.7121
17247TIP3    H273233   0.563   1.489  12.399 -0.6076 -0.1830 -0.0735
17248TIP3   OH273234   1.364   5.134   5.874 -0.8035  0.3740  0.6886
17248TIP3    H173235   1.276   5.166   5.854 -0.5108 -0.0151 -1.5343
17248TIP3    H273236   1.420   5.180   5.811 -0.2734 -3.7128 -2.2491
17249TIP3   OH273237   0.611   4.618   5.849  0.4134  0.3774 -0.3828
17249TIP3    H173238   0.563   4.681   5.796 -1.3887 -0.9446 -0.4486
17249TIP3    H273239   0.674   4.578   5.789  0.5690  1.0786 -0.6959
17250TIP3   OH273240   2.575   1.677   0.285  0.5407  0.2953 -0.1780
17250TIP3    H173241   2.527   1.595   0.274  0.2731  0.5023 -0.5752
17250TIP3    H273242   2.516   1.733   0.336  0.4268  0.4903 -0.5215
17251TIP3   OH273243   1.042   4.837  12.043 -0.0122 -0.3491 -0.0533
17251TIP3    H173244   1.078   4.754  12.074  1.2106  0.5786  1.1803
17251TIP3    H273245   0.952   4.837  12.074 -0.2225 -1.4822 -0.6226
17252TIP3   OH273246   4.823   4.859   5.595  0.1711 -0.4809 -0.1434
17252TIP3    H173247   4.746   4.917   5.602 -0.3371 -1.0692 -0.7371
17252TIP3    H273248   4.890   4.902   5.649 -1.1682 -0.9529  2.0387
17253TIP3   OH273249   4.283   6.163  13.978  0.5218  0.0530  0.3293
17253TIP3    H173250   4.292   6.179  14.072  4.6106  1.1683 -0.0507
17253TIP3    H273251   4.351   6.098  13.958 -1.9489 -2.1828 -1.5672
17254TIP3   OH273252   2.988   4.658  15.803 -0.1610  0.2884 -0.0998
17254TIP3    H173253   2.901   4.683  15.835 -0.1712 -0.2035  0.2698
17254TIP3    H273254   3.026   4.739  15.770 -0.4414  0.6615  0.4868
17255TIP3   OH273255   5.131   0.174   2.166 -0.3054  0.5700 -0.1916
17255TIP3    H173256   5.215   0.150   2.125 -0.2515 -3.1955  1.6889
17255TIP3    H273257   5.153   0.249   2.222  1.2031  1.2008 -1.5354
17256TIP3   OH273258   1.544   5.172  14.354  0.3031  0.5080 -0.2952
17256TIP3    H173259   1.557   5.122  14.274 -0.1947 -1.2108  0.6619
17256TIP3    H273260   1.544   5.107  14.424 -2.0639  1.5968  0.8395
17257TIP3   OH273261   4.178   1.615  17.158 -0.6185 -0.1957  0.1514
17257TIP3    H173262   4.183   1.706  17.184  0.1869 -0.8648  2.6036
17257TIP3    H273263   4.084   1.595  17.158 -0.8500  0.7714 -1.1274
17258TIP3   OH273264   5.997   0.045   2.716 -0.0172 -0.3183  0.1151
17258TIP3    H173265   5.942   0.056   2.638  0.1492 -1.6539 -0.2274
17258TIP3    H273266   6.025  -0.046   2.711  0.5156 -0.2344  1.4139
17259TIP3   OH273267   4.220   6.542  12.175 -0.1086  0.5415  0.0657
17259TIP3    H173268   4.308   6.540  12.140 -0.4301 -0.6547 -0.7170
17259TIP3    H273269   4.193   6.450  12.180 -0.9874  0.8262  1.1331
17260TIP3   OH273270   6.458   6.236  17.063 -0.8067  0.1610 -0.0570
17260TIP3    H173271   6.460   6.163  17.001 -1.7020 -0.1095  0.2182
17260TIP3    H273272   6.446   6.195  17.149  0.7505  0.5138  0.3501
17261TIP3   OH273273   2.933   1.121   6.435  0.2740  0.3518  0.4610
17261TIP3    H173274   2.855   1.176   6.432 -0.5829 -0.6187  2.9734
17261TIP3    H273275   2.901   1.032   6.427  1.4287  0.0209 -1.0581
17262TIP3   OH273276   5.368   6.529   3.114 -0.1337 -0.0753  0.1299
17262TIP3    H173277   5.334   6.440   3.107 -0.7835  0.0021  1.8053
17262TIP3    H273278   5.293   6.584   3.090  0.3748  0.0444 -1.2763
17263TIP3   OH273279   0.641   1.951   3.252  0.0590 -0.3705  0.0479
17263TIP3    H173280   0.579   1.892   3.210  4.1844 -3.0062 -3.1095
17263TIP3    H273281   0.699   1.894   3.302  1.8855  1.4662  0.1848
17264TIP3   OH273282   4.179   1.838  12.220 -0.5463  0.7010 -0.2055
17264TIP3    H173283   4.090   1.844  12.186 -0.6746 -2.1164 -0.5701
17264TIP3    H273284   4.172   1.867  12.311 -1.6258  1.4558 -0.5131
17265TIP3   OH273285   2.655   3.686  16.076  0.4652 -0.9228 -0.0393
17265TIP3    H173286   2.660   3.622  16.005 -1.0790 -0.5397 -0.5319
17265TIP3    H273287   2.603   3.643  16.144  0.2560 -0.5590  0.0342
17266TIP3   OH273288   0.766   3.112   5.970  0.3315 -0.1482 -0.1069
17266TIP3    H173289   0.704   3.146   6.034  0.2370  0.1328 -0.3435
17266TIP3    H273290   0.804   3.034   6.011  0.1845 -0.0374  0.2392
17267TIP3   OH273291   2.427   1.077  14.326  0.0197 -0.5585  0.0847
17267TIP3    H173292   2.455   1.118  14.408  0.8494 -0.4293 -0.2610
17267TIP3    H273293   2.392   0.992  14.352  0.1528 -0.4629  0.5824
17268TIP3   OH273294   5.122   0.845   6.193 -0.4032 -0.0177 -0.6980
17268TIP3    H173295   5.102   0.848   6.099  0.6482 -0.0949 -0.9380
17268TIP3    H273296   5.196   0.785   6.199 -0.4473  0.0076  0.1904
17269TIP3   OH273297   6.319   0.463  12.671  0.5053  0.9021  0.0674
17269TIP3    H173298   6.261   0.426  12.738  0.6869 -1.9692 -1.2226
17269TIP3    H273299   6.407   0.438  12.698  0.4965 -1.3703 -1.7563
17270TIP3   OH273300   3.963   3.877   0.766 -0.1528  0.0867 -0.0814
17270TIP3    H173301   3.994   3.904   0.853 -2.2166  0.3060  0.6407
17270TIP3    H273302   4.003   3.940   0.706  1.1094  0.0910  0.7075
17271TIP3   OH273303   6.617   1.216   2.939  0.2626 -0.3384 -0.0430
17271TIP3    H173304   6.596   1.145   2.879 -0.4889 -1.1075  1.1131
17271TIP3    H273305   6.600   1.296   2.888  1.5109 -0.9342 -1.4898
17272TIP3   OH273306   0.245   3.391   6.096 -0.6479  0.0464 -0.0587
17272TIP3    H173307   0.223   3.469   6.148 -1.1053 -0.1068 -0.0249
17272TIP3    H273308   0.273   3.327   6.162 -0.3959  0.1335 -0.0765
17273TIP3   OH273309   0.081   0.217   5.528  0.1087 -0.0484 -0.0495
17273TIP3    H173310  -0.002   0.263   5.516 -0.0011  0.0642  1.0375
17273TIP3    H273311   0.097   0.173   5.444  0.7344  2.7610 -1.5217
17274TIP3   OH273312   2.337   0.999   4.860 -0.2943 -0.4665  0.1316
17274TIP3    H173313   2.396   1.048   4.917 -0.9375 -1.5521  1.8096
17274TIP3    H273314   2.317   1.060   4.788 -0.0228  1.2460  1.4326
17275TIP3   OH273315   1.636   1.440   6.090 -0.0568 -0.2425  0.0307
17275TIP3    H173316   1.563   1.502   6.094  0.6090  0.5684 -0.0205
17275TIP3    H273317   1.601   1.365   6.041 -0.4086  0.7756 -1.3646
17276TIP3   OH273318   2.840   0.784  12.349  0.2140 -0.0003 -0.8654
17276TIP3    H173319   2.867   0.785  12.257  0.9802 -0.0934 -0.6441
17276TIP3    H273320   2.910   0.738  12.395 -0.1183  0.1204 -0.2167
17277TIP3   OH273321   3.990   2.408  13.240  0.1369  0.0786 -0.3203
17277TIP3    H173322   3.951   2.322  13.224  2.2728 -0.5698 -2.7644
17277TIP3    H273323   3.991   2.416  13.335 -3.8802 -0.6875 -0.0410
17278TIP3   OH273324   6.497   2.715   4.408  0.1829 -0.6494  0.7681
17278TIP3    H173325   6.493   2.803   4.370  0.2536 -1.1954 -0.5320
17278TIP3    H273326   6.430   2.716   4.477 -1.3770 -0.2419 -0.6780
17279TIP3   OH273327   2.580   4.819   0.290 -0.9656  0.3202 -0.0734
17279TIP3    H173328   2.608   4.834   0.200  0.1366  0.2067  0.2380
17279TIP3    H273329   2.634   4.746   0.320  0.9851  2.3589  1.6751
17280TIP3   OH273330   5.463   6.442   6.216 -0.2389  0.1333  0.4380
17280TIP3    H173331   5.478   6.510   6.151  0.1911  0.2255  0.6258
17280TIP3    H273332   5.503   6.476   6.296  1.7056 -1.1071  0.0884
17281TIP3   OH273333   0.765   0.142   6.706  0.4109 -0.0123  0.5818
17281TIP3    H173334   0.719   0.206   6.760 -0.8697 -0.1895 -0.2647
17281TIP3    H273335   0.849   0.185   6.685 -1.2488  2.4517 -1.7889
17282TIP3   OH273336   1.390   6.431   2.906 -0.1765  0.3123 -0.3983
17282TIP3    H173337   1.365   6.349   2.949  1.3314  1.2179  2.4679
17282TIP3    H273338   1.418   6.405   2.818  1.3427 -2.4529  0.7855
17283TIP3   OH273339   0.483   3.377  13.304 -0.3906 -0.1130  0.1164
17283TIP3    H173340   0.563   3.430  13.302 -0.9286  0.6859 -0.7297
17283TIP3    H273341   0.514   3.287  13.291  0.2969  0.2867 -1.1711
17284TIP3   OH273342   0.868   3.267   0.744  0.0761 -0.1612  0.3792
17284TIP3    H173343   0.798   3.296   0.687 -0.0088 -1.5603 -0.2698
17284TIP3    H273344   0.858   3.320   0.824 -1.7649 -0.4063  0.3466
17285TIP3   OH273345   2.732   5.000   5.213 -0.2625  0.3920 -0.4065
17285TIP3    H173346   2.745   4.962   5.300 -1.2516  0.3876 -0.2554
17285TIP3    H273347   2.754   5.092   5.224 -1.2624  0.5780  0.0678
17286TIP3   OH273348   5.023   4.391  16.040  0.7121 -0.7262  0.0489
17286TIP3    H173349   5.017   4.322  16.105 -2.3710  1.0385  1.8814
17286TIP3    H273350   5.009   4.347  15.956 -2.0407 -2.3616  1.2124
17287TIP3   OH273351   1.095   5.688  14.897 -0.2855 -0.0777  0.5758
17287TIP3    H173352   1.186   5.662  14.885 -0.0611  1.3581 -1.5201
17287TIP3    H273353   1.100   5.775  14.938 -0.6718  0.2231  0.0013
17288TIP3   OH273354   4.904   5.374   1.305 -0.5676  0.0433 -1.0836
17288TIP3    H173355   4.905   5.409   1.394 -0.3569 -0.2923 -0.9525
17288TIP3    H273356   4.918   5.450   1.248  0.5245  0.0834 -0.7776
17289TIP3   OH273357   6.047   1.861  15.511 -0.6689 -0.4685 -0.2684
17289TIP3    H173358   6.000   1.940  15.485 -0.7249 -0.1484  0.7634
17289TIP3    H273359   6.125   1.894  15.556 -1.2523 -0.9701  1.1744
17290TIP3   OH273360   6.337   6.736  13.978 -0.1478 -0.1760  0.5562
17290TIP3    H173361   6.268   6.801  13.988  0.2928  0.3921  0.0102
17290TIP3    H273362   6.300   6.655  14.013 -1.5093 -0.1645 -0.7551
17291TIP3   OH273363   0.362   4.108   1.692 -0.0740 -0.8372  0.3130
17291TIP3    H173364   0.413   4.078   1.616 -0.3651 -2.5028  0.7384
17291TIP3    H273365   0.301   4.173   1.655  2.1812  1.1240 -0.2293
17292TIP3   OH273366   4.039   0.440   0.606 -0.1762  0.0442  0.0682
17292TIP3    H173367   4.103   0.511   0.601 -0.9201  0.8215  1.2176
17292TIP3    H273368   3.956   0.483   0.626 -0.3319 -1.2489  2.5027
17293TIP3   OH273369   4.389   5.766   2.273  0.1269  0.4190 -0.2866
17293TIP3    H173370   4.307   5.766   2.323  0.1209  0.8138 -0.2934
17293TIP3    H273371   4.456   5.741   2.337  0.3566  2.4835  0.3383
17294TIP3   OH273372   0.866   1.722   1.968  0.3079  0.2930  0.2808
17294TIP3    H173373   0.804   1.762   2.029  0.1391  0.9179 -0.3010
17294TIP3    H273374   0.936   1.786   1.959 -0.0675  0.5708 -0.8175
17295TIP3   OH273375   5.211   5.743   1.184  0.4954  0.1592  0.0773
17295TIP3    H173376   5.231   5.806   1.253 -1.8683 -1.3871  2.3693
17295TIP3    H273377   5.192   5.798   1.107 -0.8709  2.2746  1.7833
17296TIP3   OH273378   0.865   0.458   1.754  0.2599  0.8507  0.3239
17296TIP3    H173379   0.945   0.483   1.801  0.7983  2.0900 -1.1402
17296TIP3    H273380   0.837   0.539   1.711 -0.6919 -0.0219 -0.7538
17297TIP3   OH273381   6.811   5.322   3.299  0.0646  0.1176 -0.0551
17297TIP3    H173382   6.759   5.395   3.334  0.4485 -0.8310  2.7567
17297TIP3    H273383   6.856   5.286   3.375  0.4635 -2.6277 -1.4677
17298TIP3   OH273384   2.410   1.495  15.994  0.1444 -0.2829 -0.1564
17298TIP3    H173385   2.421   1.402  16.012  2.0097 -0.3561 -1.4126
17298TIP3    H273386   2.395   1.534  16.080 -0.6675 -1.7168  0.3898
17299TIP3   OH273387   6.813   4.879   4.165 -0.9629  0.2124 -0.1724
17299TIP3    H173388   6.784   4.799   4.120 -0.2011  0.5252 -1.2413
17299TIP3    H273389   6.860   4.847   4.242  1.9960 -0.5656 -2.1185
17300TIP3   OH273390   1.361   5.608  10.508  0.0859 -0.3438  0.7110
17300TIP3    H173391   1.373   5.686  10.453 -0.2939  0.1801  1.3597
17300TIP3    H273392   1.380   5.535  10.449  0.3034  0.2283  0.0493
17301TIP3   OH273393   1.016   6.642  12.047  0.1716 -0.2919 -0.5661
17301TIP3    H173394   0.939   6.691  12.020  0.2350 -0.7343 -1.5678
17301TIP3    H273395   1.031   6.578  11.977  1.3685 -0.3002 -0.3311
17302TIP3   OH273396   2.482   6.789   4.410 -0.1876 -0.3518  0.4364
17302TIP3    H173397   2.519   6.865   4.455  1.2792 -1.4097  1.1041
17302TIP3    H273398   2.516   6.796   4.321 -2.3002  1.2173 -0.3128
17303TIP3   OH273399   0.593   2.020  13.477 -0.1923 -0.0251  0.8945
17303TIP3    H173400   0.628   2.076  13.409  1.9198  1.1874  2.8711
17303TIP3    H273401   0.665   1.960  13.499 -0.5849  0.0358  2.4781
17304TIP3   OH273402   4.801   4.548  12.122  0.2625  0.5037 -0.9640
17304TIP3    H173403   4.873   4.571  12.180  1.4876 -1.6143 -1.5278
17304TIP3    H273404   4.726   4.538  12.179  1.4688 -1.6877  0.3793
17305TIP3   OH273405   2.288   2.603  10.868 -0.3312  0.7906  0.6035
17305TIP3    H173406   2.295   2.520  10.821 -0.9411  1.0196  0.0927
17305TIP3    H273407   2.314   2.582  10.958  1.9983  0.6086 -0.0566
17306TIP3   OH273408   0.495   6.744  16.300 -0.2718 -0.1508  0.6248
17306TIP3    H173409   0.508   6.691  16.379  0.4292  0.1042  0.6871
17306TIP3    H273410   0.562   6.712  16.239 -1.4970 -1.0981 -0.2782
17307TIP3   OH273411   4.161   1.345  14.905 -0.1800 -0.3235 -0.4414
17307TIP3    H173412   4.179   1.263  14.859  0.2181  0.1200 -1.0923
17307TIP3    H273413   4.115   1.399  14.841  0.5156  0.3582 -0.3753
17308TIP3   OH273414   5.450   3.264  14.676 -0.6198  0.0890 -0.2423
17308TIP3    H173415   5.377   3.203  14.669 -1.1911  0.9277 -2.1626
17308TIP3    H273416   5.484   3.272  14.587 -0.1600  2.0678  0.0606
17309TIP3   OH273417   4.080   3.981   2.643  0.5939  0.2239  0.5102
17309TIP3    H173418   4.014   4.008   2.707  0.0874 -1.9892  0.9884
17309TIP3    H273419   4.105   3.893   2.669  1.8901  0.0382 -1.1712
17310TIP3   OH273420   0.271   4.058   1.254  0.1710  0.4419  0.0569
17310TIP3    H173421   0.241   4.114   1.325 -2.3866 -1.0050  0.2578
17310TIP3    H273422   0.334   3.998   1.295  1.0886  1.5921  0.3584
17311TIP3   OH273423   6.306   0.011  16.552 -0.0145 -0.5802 -0.2816
17311TIP3    H173424   6.270   0.076  16.613 -0.1715  0.3779 -1.3682
17311TIP3    H273425   6.229  -0.022  16.505  0.3694  0.9839 -2.1428
17312TIP3   OH273426   2.598   1.958  17.160  0.5587  0.3986  0.2310
17312TIP3    H173427   2.580   1.982  17.251 -1.0516  2.5049 -0.5409
17312TIP3    H273428   2.692   1.943  17.157  0.4003 -1.6796  2.5965
17313TIP3   OH273429   2.098   3.995   1.772  0.2188 -0.6879 -0.1111
17313TIP3    H173430   2.033   3.960   1.833  0.8815 -0.5254  0.7062
17313TIP3    H273431   2.155   3.920   1.752  0.7499 -0.4495  0.4704
17314TIP3   OH273432   0.907   4.349   0.365  0.2960  0.1260 -0.2779
17314TIP3    H173433   0.979   4.313   0.313 -0.9018 -1.1462 -1.1282
17314TIP3    H273434   0.839   4.368   0.301  0.5767  3.3058  0.2246
17315TIP3   OH273435   5.799   4.857  11.052 -0.0125 -0.5220 -0.1398
17315TIP3    H173436   5.728   4.915  11.079  1.0306  0.8063 -0.1822
17315TIP3    H273437   5.879   4.900  11.081  0.8167 -1.8339 -0.3668
17316TIP3   OH273438   0.774   5.971   0.339 -0.1766  0.0805  0.2731
17316TIP3    H173439   0.701   5.930   0.385 -0.1917  0.2282  0.3819
17316TIP3    H273440   0.822   5.898   0.300  0.0173 -0.0721  0.7899
17317TIP3   OH273441   3.227   0.524   4.344 -0.1973 -0.0573 -0.4091
17317TIP3    H173442   3.307   0.502   4.392  0.4843 -1.4512 -2.0673
17317TIP3    H273443   3.254   0.526   4.252 -1.6036  1.7837 -0.8357
17318TIP3   OH273444   6.503   2.641  11.758  0.3549 -0.1438  0.2261
17318TIP3    H173445   6.466   2.587  11.688  0.4096 -0.6696  0.6031
17318TIP3    H273446   6.464   2.607  11.838  0.3939  0.3741  0.4683
17319TIP3   OH273447   2.043   3.209  14.111 -0.4157  0.1227  0.0453
17319TIP3    H173448   2.039   3.179  14.202 -0.7793 -0.4042 -0.1363
17319TIP3    H273449   2.136   3.214  14.091 -0.3278  0.6559  0.5818
17320TIP3   OH273450   1.503   1.678  17.241  0.5828  0.4162 -0.2570
17320TIP3    H173451   1.523   1.585  17.242  0.3564  0.3654 -0.2327
17320TIP3    H273452   1.410   1.682  17.264  0.9933  0.7550  1.4890
17321TIP3   OH273453   6.713   2.271   3.841  0.0387  0.6861 -0.6624
17321TIP3    H173454   6.619   2.276   3.822 -0.2097  1.1128  0.5631
17321TIP3    H273455   6.719   2.210   3.914  0.7594  0.3898 -0.9635
17322TIP3   OH273456   0.810   4.890   3.032 -0.0841 -0.1459 -0.0878
17322TIP3    H173457   0.749   4.899   3.105 -0.3693 -1.5333 -0.1327
17322TIP3    H273458   0.890   4.855   3.072  0.1240  0.1061 -0.2813
17323TIP3   OH273459   6.037   0.598  16.746 -0.5932 -0.2919  0.8718
17323TIP3    H173460   6.085   0.549  16.812  1.1464 -0.1584 -0.2276
17323TIP3    H273461   6.049   0.690  16.770  0.4847 -0.2161  0.1389
17324TIP3   OH273462   5.451   6.394  14.902  0.1870  0.7827 -0.3470
17324TIP3    H173463   5.464   6.363  14.992  1.9747  0.6660 -0.5982
17324TIP3    H273464   5.463   6.489  14.908 -2.2207  1.1164 -0.0822
17325TIP3   OH273465   1.712   4.575  15.181 -0.3417  0.4755 -0.2617
17325TIP3    H173466   1.650   4.554  15.252 -0.1557 -2.7444 -0.9055
17325TIP3    H273467   1.788   4.521  15.200  0.1237  0.3385 -2.3645
17326TIP3   OH273468   3.687   2.996   0.697  0.1772  0.2004 -0.0507
17326TIP3    H173469   3.780   2.979   0.713  0.5362  0.0727 -2.0344
17326TIP3    H273470   3.661   2.930   0.633 -2.1195 -1.7281  2.5856
17327TIP3   OH273471   3.341   2.143   4.581 -0.5200 -0.5167  0.0453
17327TIP3    H173472   3.299   2.223   4.552  1.4165  0.9193  0.9446
17327TIP3    H273473   3.324   2.139   4.675 -1.6387 -1.8709 -0.1777
17328TIP3   OH273474   0.897   0.334   3.391  0.6456  0.3044  0.2034
17328TIP3    H173475   0.880   0.242   3.372  2.2163  0.0311 -0.0282
17328TIP3    H273476   0.983   0.335   3.433 -1.1546  1.2620  4.3175
17329TIP3   OH273477   2.011   4.516   4.593  0.2100  0.1451  0.2612
17329TIP3    H173478   1.994   4.532   4.501 -1.9839 -1.2967  0.3250
17329TIP3    H273479   2.004   4.602   4.634  0.3486  0.6771 -0.8009
17330TIP3   OH273480   6.083   1.385   3.017  0.0784 -0.0352 -0.3053
17330TIP3    H173481   6.160   1.349   2.973 -0.7652 -0.3900 -1.5287
17330TIP3    H273482   6.074   1.331   3.096  0.6642 -0.4671 -0.5269
17331TIP3   OH273483   1.177   6.716  11.245  0.0517 -0.0069  0.2484
17331TIP3    H173484   1.198   6.649  11.180  0.0494  0.1002  0.1366
17331TIP3    H273485   1.224   6.794  11.216 -1.5653  0.6502 -0.7814
17332TIP3   OH273486   5.440   1.754   5.451 -0.2809 -0.3921  0.2002
17332TIP3    H173487   5.399   1.720   5.371 -1.5372 -1.0305  1.0936
17332TIP3    H273488   5.457   1.676   5.504  0.4522  0.0389  0.6118
17333TIP3   OH273489   3.319   4.117   0.348  0.1491 -1.0452 -0.0692
17333TIP3    H173490   3.295   4.183   0.413 -0.8721 -0.9790 -0.4953
17333TIP3    H273491   3.314   4.034   0.396 -1.3506 -1.0717 -0.2167
17334TIP3   OH273492   2.336   3.262  14.796  0.0386 -0.1268 -0.6833
17334TIP3    H173493   2.253   3.249  14.752  1.0243  1.2469 -3.1761
17334TIP3    H273494   2.315   3.318  14.872 -1.2161  0.8071 -1.6773
17335TIP3   OH273495   6.238   5.211   3.905  0.6177  0.2073 -0.3600
17335TIP3    H173496   6.201   5.123   3.913  2.5276 -0.4666  3.6765
17335TIP3    H273497   6.316   5.199   3.851  1.5189 -0.9346  1.1082
17336TIP3   OH273498   4.860   6.556   5.715 -0.1825  0.2325  0.3111
17336TIP3    H173499   4.865   6.617   5.642  1.6054  0.6325  0.7132
17336TIP3    H273500   4.873   6.611   5.793 -1.3434 -0.2842  0.9013
17337TIP3   OH273501   3.890   5.887   0.187 -0.0142 -0.1733  0.1984
17337TIP3    H173502   3.794   5.882   0.190  0.0395 -1.3030  0.4605
17337TIP3    H273503   3.917   5.873   0.278  0.3942  0.5959  0.2052
17338TIP3   OH273504   5.793   0.163  14.861  0.0705 -0.0266 -0.9120
17338TIP3    H173505   5.845   0.154  14.941 -0.3035 -0.3266 -0.7030
17338TIP3    H273506   5.850   0.130  14.792 -0.0516 -0.9046 -0.6040
17339TIP3   OH273507   4.521   3.302  13.518 -1.0512 -0.1465 -0.2538
17339TIP3    H173508   4.461   3.252  13.463 -1.5875 -2.5061  2.2689
17339TIP3    H273509   4.464   3.365  13.563 -0.6839  1.4531 -1.9145
17340TIP3   OH273510   5.805   2.742   5.589  0.0422  0.1356  0.0772
17340TIP3    H173511   5.756   2.750   5.671 -1.0009  0.3584 -0.5462
17340TIP3    H273512   5.816   2.648   5.577 -4.9333 -0.4896 -2.3573
17341TIP3   OH273513   6.319   1.573  12.866  0.1469 -0.1493 -0.4087
17341TIP3    H173514   6.290   1.507  12.928 -0.0467  0.9846  0.7566
17341TIP3    H273515   6.353   1.523  12.792  0.8700 -1.5685  0.8163
17342TIP3   OH273516   4.465   2.481   0.078  0.2343 -0.0889 -0.1599
17342TIP3    H173517   4.519   2.451   0.150 -0.4589 -0.6493  0.1395
17342TIP3    H273518   4.399   2.413   0.067 -1.6045  1.4277  0.7820
17343TIP3   OH273519   5.490   2.932   4.759 -0.1938  0.3435 -0.2652
17343TIP3    H173520   5.543   2.967   4.687  0.7824  0.6220  0.5783
17343TIP3    H273521   5.488   2.837   4.742  3.5539 -0.2146  1.5202
17344TIP3   OH273522   4.111   3.350   1.203  0.2190  0.1209  0.1280
17344TIP3    H173523   4.096   3.303   1.121 -0.0755  0.0490  0.2232
17344TIP3    H273524   4.094   3.442   1.181 -1.5075 -0.0784  0.5068
17345TIP3   OH273525   4.107   4.464   3.800  0.1140 -0.0807 -0.0120
17345TIP3    H173526   4.043   4.504   3.859  0.1604 -0.7281  0.4879
17345TIP3    H273527   4.069   4.476   3.712 -0.5448 -0.1752  0.2503
17346TIP3   OH273528   2.165   2.993  16.949  0.0283  0.0542  0.5006
17346TIP3    H173529   2.136   3.067  17.001 -0.2371  0.8171 -0.6938
17346TIP3    H273530   2.170   3.027  16.860  2.0483 -0.7677  0.2523
17347TIP3   OH273531   2.816   0.657   2.451 -0.0035  0.4460  0.0632
17347TIP3    H173532   2.870   0.710   2.392 -1.0859  0.3185 -1.0708
17347TIP3    H273533   2.751   0.718   2.486 -0.2943  0.1969 -0.0401
17348TIP3   OH273534   4.297   5.861   2.563  0.6653  0.2328 -0.0041
17348TIP3    H173535   4.250   5.838   2.643  1.8066 -1.5870  0.1927
17348TIP3    H273536   4.240   5.831   2.492  0.8941 -0.7135  0.2029
17349TIP3   OH273537   3.236   0.914  16.490 -0.3486  0.1276  0.1761
17349TIP3    H173538   3.259   0.998  16.529  0.4567 -0.0718  0.1465
17349TIP3    H273539   3.163   0.934  16.430  0.4958  0.9874 -0.5961
17350TIP3   OH273540   2.878   5.731   4.559  0.6288  0.6899  0.2589
17350TIP3    H173541   2.960   5.703   4.519  1.3939  0.6372  1.8099
17350TIP3    H273542   2.861   5.667   4.628 -0.1418  1.3208  0.6730
17351TIP3   OH273543   4.689   5.116   1.517  0.2437  0.5243 -0.1892
17351TIP3    H173544   4.640   5.178   1.464 -1.5475  0.5395  1.3997
17351TIP3    H273545   4.717   5.166   1.593  0.4985 -0.1464  0.1644
17352TIP3   OH273546   2.905   2.489  15.000 -0.0109  0.2639  0.0335
17352TIP3    H173547   2.963   2.448  14.936 -0.0756 -0.0602  0.1809
17352TIP3    H273548   2.826   2.509  14.950  0.5830  1.5999 -0.4050
17353TIP3   OH273549   0.560   3.494  10.958 -0.4337 -0.7987  0.4339
17353TIP3    H173550   0.481   3.450  10.927 -1.4272 -0.3044  2.1548
17353TIP3    H273551   0.544   3.587  10.940  0.0682 -0.7573  0.1814
17354TIP3   OH273552   0.571   6.597   3.851  0.3679 -0.3495  0.5462
17354TIP3    H173553   0.507   6.562   3.912  0.9774 -2.9040 -0.1492
17354TIP3    H273554   0.652   6.605   3.902 -0.0517  1.3672  1.0176
17355TIP3   OH273555   4.478   3.622   0.010  0.2538 -0.3089 -0.1258
17355TIP3    H173556   4.383   3.629   0.012 -0.0013 -2.5227 -1.7970
17355TIP3    H273557   4.497   3.536   0.048  1.5893 -0.0011 -0.0335
17356TIP3   OH273558   6.177   3.237   1.184 -0.1654  0.1011  0.6775
17356TIP3    H173559   6.227   3.234   1.102 -0.5281  0.3156  0.4444
17356TIP3    H273560   6.164   3.330   1.201 -0.9729  0.0424  0.4308
17357TIP3   OH273561   5.833   6.040   6.447 -0.2014 -0.0888  0.5050
17357TIP3    H173562   5.919   6.055   6.409 -0.3734  1.5617  0.6906
17357TIP3    H273563   5.772   6.055   6.376 -0.3653 -1.3067  0.3616
17358TIP3   OH273564   3.464   1.489   0.803  0.4129 -0.0253 -0.3725
17358TIP3    H173565   3.450   1.546   0.728 -1.3788  1.1027  0.7554
17358TIP3    H273566   3.550   1.514   0.836  0.2338  1.0859 -0.7080
17359TIP3   OH273567   6.735   1.341   2.662  0.3081 -0.0437 -0.0822
17359TIP3    H173568   6.797   1.412   2.649  0.8850 -0.4695  0.2668
17359TIP3    H273569   6.669   1.353   2.594 -1.5395  2.8468  1.9829
17360TIP3   OH273570   4.881   1.164  15.403  0.3203  0.7859  0.5440
17360TIP3    H173571   4.941   1.136  15.333  0.2637 -1.1273  1.2008
17360TIP3    H273572   4.817   1.220  15.359  1.8119  1.8126 -0.4153
17361TIP3   OH273573   3.282   3.267  12.964  0.4196  0.2582  0.1370
17361TIP3    H173574   3.277   3.341  13.024  0.3818  1.1664 -0.9518
17361TIP3    H273575   3.193   3.231  12.963  0.1555  0.9005 -0.1730
17362TIP3   OH273576   2.408   1.257  16.274  0.0865  0.4465  0.0409
17362TIP3    H173577   2.351   1.262  16.351 -1.7119 -1.3051 -1.0780
17362TIP3    H273578   2.447   1.169  16.279  1.3646  0.9840 -0.1361
17363TIP3   OH273579   5.994   5.049  11.168 -0.3163  0.1312 -0.3340
17363TIP3    H173580   5.977   5.109  11.095 -0.5387 -1.5252 -1.7098
17363TIP3    H273581   6.064   5.091  11.218 -0.3557  1.4467 -1.3315
17364TIP3   OH273582   3.451   6.119  11.056 -0.8770 -0.4236  0.0432
17364TIP3    H173583   3.388   6.069  11.108 -1.5150  0.2026 -0.1277
17364TIP3    H273584   3.400   6.156  10.984 -0.3760  0.3328  0.0648
17365TIP3   OH273585   5.374   6.061  15.788  0.3359  0.7480 -0.1359
17365TIP3    H173586   5.443   6.126  15.777  0.2579  0.5503 -2.0842
17365TIP3    H273587   5.329   6.087  15.869  0.4807  2.9495 -0.6997
17366TIP3   OH273588   6.638   5.902  15.165 -0.7111  0.0758 -0.4380
17366TIP3    H173589   6.732   5.898  15.178 -0.8874 -0.5904  0.7385
17366TIP3    H273590   6.618   5.996  15.161  0.2702  0.2687 -3.1287
17367TIP3   OH273591   1.518   0.503  14.599 -0.4621  0.0698 -0.0200
17367TIP3    H173592   1.601   0.489  14.555  1.7155  1.1000  3.3562
17367TIP3    H273593   1.485   0.586  14.564  0.7045  0.4139 -0.3322
17368TIP3   OH273594   2.158   4.003  14.161  0.7417 -0.4431 -0.0422
17368TIP3    H173595   2.196   3.942  14.224 -1.4380 -1.2534  0.5522
17368TIP3    H273596   2.102   3.948  14.106 -2.7866  1.1512  1.6826
17369TIP3   OH273597   1.512   3.753  14.729 -0.6387 -0.0423  0.2308
17369TIP3    H173598   1.439   3.786  14.781  0.0357  0.6739  0.7497
17369TIP3    H273599   1.498   3.790  14.641 -1.9257 -1.4763 -0.1985
17370TIP3   OH273600   5.549   4.367  11.866 -0.0450  0.1083 -0.4115
17370TIP3    H173601   5.514   4.342  11.952 -0.5546  2.4529  0.1399
17370TIP3    H273602   5.521   4.296  11.808 -3.1248  0.2969  0.6224
17371TIP3   OH273603   4.114   5.113  15.880  0.2573  0.3430 -0.4542
17371TIP3    H173604   4.122   5.207  15.869  0.8515  0.2855 -0.5748
17371TIP3    H273605   4.193   5.077  15.840  0.4575 -0.1493  0.3492
17372TIP3   OH273606   5.977   0.132   4.887 -0.2297 -0.3767 -0.3745
17372TIP3    H173607   5.909   0.187   4.927  1.1182  1.1913 -0.1160
17372TIP3    H273608   5.949   0.121   4.796 -0.2461  1.3163 -0.6111
17373TIP3   OH273609   1.058   2.963  11.930  0.3471 -0.0781  0.3492
17373TIP3    H173610   1.081   3.017  12.005 -1.1910  0.8779  0.1772
17373TIP3    H273611   0.966   2.941  11.943 -0.5103  1.5930 -2.0748
17374TIP3   OH273612   4.918   2.244  11.164 -0.0752  0.0457 -0.4953
17374TIP3    H173613   4.872   2.317  11.206  2.8844  0.8384  1.7093
17374TIP3    H273614   4.848   2.190  11.128 -2.5079  3.1309 -0.9020
17375TIP3   OH273615   1.809   5.959  11.590 -0.2053 -0.6343 -0.2135
17375TIP3    H173616   1.760   6.010  11.526 -1.8393  0.4151  1.7743
17375TIP3    H273617   1.898   5.994  11.586  0.1575 -1.6393 -2.9097
17376TIP3   OH273618   1.028   2.170  14.567  0.2592  0.3555  0.1493
17376TIP3    H173619   0.955   2.201  14.620  0.3843  0.6882  0.1352
17376TIP3    H273620   1.099   2.231  14.587  0.3129  0.4784 -0.3872
17377TIP3   OH273621   1.182   4.848   3.374 -0.3182  0.0399  0.4302
17377TIP3    H173622   1.263   4.871   3.329  0.4903 -1.4396  1.0490
17377TIP3    H273623   1.198   4.874   3.465  0.8677 -3.1426  1.2963
17378TIP3   OH273624   1.860   0.026   4.057  0.5140 -0.7451  0.3515
17378TIP3    H173625   1.893  -0.057   4.023 -0.1581 -0.2537 -1.6590
17378TIP3    H273626   1.931   0.089   4.042 -0.1195 -0.3375 -1.0425
17379TIP3   OH273627   5.821   2.180  13.225  0.0741  0.1529  0.2224
17379TIP3    H173628   5.765   2.103  13.235 -0.2470  0.3730  0.1257
17379TIP3    H273629   5.796   2.218  13.141 -1.7346  1.9261  1.4477
17380TIP3   OH273630   2.707   6.408   4.590 -0.4599 -0.0509 -0.7484
17380TIP3    H173631   2.688   6.470   4.660  0.8228  0.9321 -1.2458
17380TIP3    H273632   2.719   6.324   4.635 -1.3442  0.2155  0.0163
17381TIP3   OH273633   3.763   1.093   3.732 -0.2009  0.5707 -0.0698
17381TIP3    H173634   3.852   1.063   3.716  0.4499  2.9089 -1.1701
17381TIP3    H273635   3.712   1.012   3.741  1.7096 -0.8316 -1.1892
17382TIP3   OH273636   0.636   2.754  14.237 -0.1043  0.6017  0.2913
17382TIP3    H173637   0.647   2.823  14.171 -0.9445  0.8580  0.4158
17382TIP3    H273638   0.706   2.691  14.217  0.1416  1.0667 -0.3484
17383TIP3   OH273639   6.618   6.420   4.653  0.1076 -0.2128 -0.6241
17383TIP3    H173640   6.526   6.436   4.674 -0.4541 -1.1358 -2.1937
17383TIP3    H273641   6.641   6.492   4.594 -0.7849 -1.9423 -3.2508
17384TIP3   OH273642   2.346   1.939   4.704 -0.0064 -0.6355  0.6999
17384TIP3    H173643   2.313   1.944   4.615 -1.2508 -1.5959  1.0795
17384TIP3    H273644   2.436   1.972   4.698  0.5406 -2.2453 -1.2406
17385TIP3   OH273645   3.515   2.031  12.614 -0.4553 -0.4384 -0.3684
17385TIP3    H173646   3.601   2.018  12.654  0.4550  1.1862 -1.6991
17385TIP3    H273647   3.453   2.001  12.681  1.1022 -0.7568  0.9939
17386TIP3   OH273648   1.369   2.308   1.265  0.1148 -0.2250 -0.1707
17386TIP3    H173649   1.351   2.226   1.312  0.8043 -0.0323  0.4460
17386TIP3    H273650   1.464   2.309   1.256 -0.0382 -0.6997 -2.3905
17387TIP3   OH273651   2.397   5.673   2.680 -0.1186  0.2499  0.1577
17387TIP3    H173652   2.426   5.599   2.626  0.2643  1.8610 -1.9410
17387TIP3    H273653   2.334   5.634   2.741 -0.1181 -1.7698 -1.0460
17388TIP3   OH273654   4.427   1.093   0.104  0.1080  0.7378 -0.1835
17388TIP3    H173655   4.445   1.079   0.011  1.6472  0.6222  0.1095
17388TIP3    H273656   4.369   1.170   0.106 -0.2022  0.5440 -1.2434
17389TIP3   OH273657   3.860   0.582   1.441 -0.0181 -0.2961  0.0600
17389TIP3    H173658   3.925   0.646   1.471  0.3188 -0.2167 -0.7939
17389TIP3    H273659   3.841   0.528   1.518  0.3912  0.2489  0.5473
17390TIP3   OH273660   4.022   1.386  16.960 -0.8344  0.2713 -0.2272
17390TIP3    H173661   4.097   1.333  16.988 -1.7162 -1.1084 -0.4198
17390TIP3    H273662   4.062   1.466  16.924  0.5971 -0.9651 -1.4981
17391TIP3   OH273663   4.392   2.523  14.713 -0.3300 -0.1325  0.1929
17391TIP3    H173664   4.424   2.557  14.796  0.0014 -1.0273  0.4350
17391TIP3    H273665   4.442   2.571  14.647 -1.0417  1.0459  0.4621
17392TIP3   OH273666   2.239   0.079  13.741 -0.3131  0.5855  0.2116
17392TIP3    H173667   2.230   0.126  13.657 -1.3383  0.2653  0.1251
17392TIP3    H273668   2.203  -0.007  13.724  0.8723 -0.0068  0.5859
17393TIP3   OH273669   6.294   1.884  13.601 -0.2195 -0.0143 -0.2599
17393TIP3    H173670   6.258   1.945  13.664  3.2164  2.0991 -0.0753
17393TIP3    H273671   6.320   1.807  13.653 -0.7609  0.1384  0.2376
17394TIP3   OH273672   1.468   3.238  14.781  0.3021 -0.5803  0.0023
17394TIP3    H173673   1.545   3.210  14.831  0.6553  0.7314  0.2380
17394TIP3    H273674   1.409   3.274  14.847 -0.1693 -0.8445 -0.2757
17395TIP3   OH273675   0.364   6.816  16.606 -0.4970  0.4351 -0.1802
17395TIP3    H173676   0.448   6.861  16.603 -0.3187  0.1353  0.1527
17395TIP3    H273677   0.327   6.828  16.519  0.0364  0.2962 -0.4306
17396TIP3   OH273678   4.434   0.637  13.495 -0.0948  0.4121  0.0805
17396TIP3    H173679   4.473   0.663  13.411  0.9069 -1.2503 -0.0273
17396TIP3    H273680   4.389   0.554  13.476  1.3312 -0.7369  1.4170
17397TIP3   OH273681   0.790   3.707   3.549  0.3482  0.1063  0.2471
17397TIP3    H173682   0.811   3.709   3.456 -0.6950 -2.0971 -0.0850
17397TIP3    H273683   0.700   3.740   3.554  0.9315  1.7222  0.7014
17398TIP3   OH273684   5.886   3.166  14.948  0.4040  0.5126 -0.0741
17398TIP3    H173685   5.810   3.139  14.897  1.2989 -1.4016 -0.4757
17398TIP3    H273686   5.892   3.101  15.018  0.4234  1.8976  1.2653
17399TIP3   OH273687   0.189   0.393  15.723  0.1147  0.2376  0.1605
17399TIP3    H173688   0.176   0.454  15.796  0.6675  0.1966  0.2940
17399TIP3    H273689   0.239   0.443  15.658 -0.4791  0.3142 -0.2498
17400TIP3   OH273690   5.711   5.772  13.295  0.4053 -0.1846 -0.4987
17400TIP3    H173691   5.646   5.715  13.336 -0.7347  1.3570 -0.0610
17400TIP3    H273692   5.790   5.761  13.347 -0.3912  0.1328  0.8198
17401TIP3   OH273693   6.619   0.217  10.603  0.3278  0.1300  0.3423
17401TIP3    H173694   6.653   0.294  10.557 -0.8066  0.5684  0.2213
17401TIP3    H273695   6.695   0.159  10.611  0.8373  0.5728 -0.9666
17402TIP3   OH273696   4.643   2.434   2.248  0.2977  0.2981 -0.3804
17402TIP3    H173697   4.580   2.463   2.313  0.4797 -1.8325  0.8509
17402TIP3    H273698   4.645   2.338   2.257 -0.0126 -0.1743 -3.8661
17403TIP3   OH273699   3.123   0.463   6.339  0.2068 -0.2359 -0.4207
17403TIP3    H173700   3.160   0.490   6.255  3.3832  1.0911  1.2204
17403TIP3    H273701   3.158   0.376   6.354  2.4370  0.7847  0.8589
17404TIP3   OH273702   2.862   6.715  12.808 -0.3649  0.0481 -0.3382
17404TIP3    H173703   2.898   6.629  12.786 -1.2018  0.1206 -2.1370
17404TIP3    H273704   2.869   6.765  12.727 -0.8580  1.3367  0.3980
17405TIP3   OH273705   1.154   3.724   4.741  0.1285  0.3039  0.0976
17405TIP3    H173706   1.101   3.650   4.770  1.5531 -1.2906 -1.1735
17405TIP3    H273707   1.127   3.739   4.651  1.8583 -0.6324 -0.6250
17406TIP3   OH273708   4.579   3.818   4.935  0.7518  0.4735  0.1402
17406TIP3    H173709   4.570   3.902   4.891 -1.0091 -0.2336 -0.9448
17406TIP3    H273710   4.550   3.835   5.025 -0.4769  0.8339 -0.3119
17407TIP3   OH273711   2.505   2.187   0.959  0.1830  0.2059 -0.1813
17407TIP3    H173712   2.584   2.157   1.004 -1.4549 -2.0258  1.4154
17407TIP3    H273713   2.510   2.148   0.873  1.6928  1.6950 -0.8322
17408TIP3   OH273714   6.686   2.971  13.838 -0.3849 -0.5814 -0.1774
17408TIP3    H173715   6.753   2.912  13.803 -0.0171 -0.3621  0.1384
17408TIP3    H273716   6.728   3.057  13.835 -0.1619 -0.6246  1.2373
17409TIP3   OH273717   1.277   2.623  13.817 -0.1296  0.1261 -0.3532
17409TIP3    H173718   1.251   2.565  13.745 -1.8292  1.1950 -0.6706
17409TIP3    H273719   1.269   2.711  13.781  0.2633  0.6402  0.7685
17410TIP3   OH273720   5.577   0.479  13.789 -0.4586  0.0318 -0.6665
17410TIP3    H173721   5.544   0.416  13.725  0.5339 -0.4655 -0.7111
17410TIP3    H273722   5.631   0.426  13.849 -1.0005  0.5639  0.3088
17411TIP3   OH273723   4.301   6.051  14.511 -0.2568  0.5741 -0.2354
17411TIP3    H173724   4.316   6.142  14.488  1.4547  0.0455 -1.4143
17411TIP3    H273725   4.386   6.019  14.541 -1.2058 -0.2312  1.8177
17412TIP3   OH273726   0.773   3.593  12.495 -0.0307  0.2929 -0.2531
17412TIP3    H173727   0.701   3.533  12.481 -1.0596  1.1924  0.9769
17412TIP3    H273728   0.745   3.648  12.568  2.8785 -0.8956  1.9575
17413TIP3   OH273729   3.719   3.641  13.159 -0.5248 -0.2050 -0.3440
17413TIP3    H173730   3.740   3.601  13.075  0.1257  0.0922 -0.3311
17413TIP3    H273731   3.745   3.733  13.149 -0.7120 -0.1021  0.0837
17414TIP3   OH273732   6.032   5.243   1.222  0.3027 -0.0793 -0.5263
17414TIP3    H173733   6.003   5.292   1.299 -1.9916 -0.9090 -0.7768
17414TIP3    H273734   6.115   5.283   1.198 -0.9600  3.0675 -0.1575
17415TIP3   OH273735   4.868   2.363   4.058 -0.3461 -0.0816 -0.2747
17415TIP3    H173736   4.842   2.312   4.135 -0.8712  0.5322 -0.0407
17415TIP3    H273737   4.795   2.356   3.998  0.2022 -0.8384 -0.8701
17416TIP3   OH273738   3.363   4.232  11.750 -0.1142 -0.2025 -0.4826
17416TIP3    H173739   3.358   4.324  11.776 -0.0725 -0.2761 -0.2108
17416TIP3    H273740   3.389   4.186  11.830  0.9388 -0.3199 -0.8811
17417TIP3   OH273741   2.498   3.303   4.752 -0.4787  0.5095  0.1330
17417TIP3    H173742   2.553   3.349   4.689 -0.0445 -0.3470 -0.1224
17417TIP3    H273743   2.546   3.309   4.834  0.1017 -0.4118 -0.1334
17418TIP3   OH273744   0.208   6.438   1.367 -0.1701 -0.7927  0.0658
17418TIP3    H173745   0.123   6.483   1.367  0.1449 -0.1849 -0.2146
17418TIP3    H273746   0.196   6.365   1.428 -0.0421  0.9314  2.3053
17419TIP3   OH273747   0.682   3.930   1.118 -0.8828 -0.1500  0.6331
17419TIP3    H173748   0.611   3.896   1.172  0.2594 -2.3770  0.8885
17419TIP3    H273749   0.758   3.876   1.143  0.4953  1.0551 -0.7635
17420TIP3   OH273750   1.853   0.186   1.992 -0.2564  0.1668  0.2278
17420TIP3    H173751   1.789   0.115   1.995 -0.0462 -0.0710 -0.6912
17420TIP3    H273752   1.894   0.184   2.078 -1.2438  0.1024  0.7094
17421TIP3   OH273753   5.638   3.908   6.005 -0.5160 -0.5362  0.2270
17421TIP3    H173754   5.730   3.908   5.979  0.0852 -0.5134  2.1583
17421TIP3    H273755   5.590   3.931   5.926  1.2561  1.0286 -0.4674
17422TIP3   OH273756   1.072   0.453  13.231 -0.2354 -0.0026  0.2140
17422TIP3    H173757   1.047   0.441  13.140 -0.4180 -1.0912  0.3921
17422TIP3    H273758   1.035   0.538  13.256 -1.1704 -0.2312 -0.3899
17423TIP3   OH273759   2.951   1.144  14.112  0.0184  0.4913 -0.0405
17423TIP3    H173760   2.906   1.224  14.084 -0.3092 -0.2272 -1.6632
17423TIP3    H273761   2.940   1.084  14.039  1.3640 -0.6127  0.6301
17424TIP3   OH273762   3.975   2.722  16.679  0.1104 -0.2668 -0.2519
17424TIP3    H173763   3.913   2.782  16.638 -0.8394 -0.6598  0.5673
17424TIP3    H273764   3.976   2.748  16.771  1.1611 -0.2853 -0.2436
17425TIP3   OH273765   0.469   0.732  16.441 -0.6171  0.0144  0.2521
17425TIP3    H173766   0.414   0.776  16.376  0.9253  1.2152 -0.2914
17425TIP3    H273767   0.409   0.708  16.512 -1.8513  1.1332 -0.3907
17426TIP3   OH273768   1.494   3.011  11.888 -0.4789  0.1177 -0.0332
17426TIP3    H173769   1.556   3.054  11.830 -0.0328  1.0425  1.1005
17426TIP3    H273770   1.439   3.082  11.922 -0.4277 -0.3349  1.0290
17427TIP3   OH273771   2.793   1.390   0.702  0.1317  0.6265 -0.3376
17427TIP3    H173772   2.751   1.448   0.765  0.5393  1.1533 -0.5459
17427TIP3    H273773   2.731   1.318   0.691  0.8792 -0.5497  2.2075
17428TIP3   OH273774   5.934   0.161   3.714  0.3104 -0.7812  0.1767
17428TIP3    H173775   6.007   0.203   3.760  0.8636 -1.9611  0.4252
17428TIP3    H273776   5.883   0.233   3.680  0.6747  0.1201  1.4356
17429TIP3   OH273777   3.311   1.431   3.111 -0.4499 -0.5466 -0.0386
17429TIP3    H173778   3.340   1.464   3.195 -0.5651  0.3846 -0.3505
17429TIP3    H273779   3.326   1.503   3.050 -1.0804 -0.9281 -0.6692
17430TIP3   OH273780   2.754   3.445   0.644  0.5987  0.1630 -0.5788
17430TIP3    H173781   2.708   3.365   0.618  0.4688  0.2365 -0.5744
17430TIP3    H273782   2.703   3.516   0.605  0.8556  0.2318 -0.7935
17431TIP3   OH273783   5.317   4.323   4.742 -0.2388 -0.8282  0.0049
17431TIP3    H173784   5.240   4.330   4.799 -1.0592 -4.2150 -0.4647
17431TIP3    H273785   5.359   4.241   4.769  1.9535 -0.2145 -1.2923
17432TIP3   OH273786   6.681   2.269   3.551 -0.9012  0.1466  0.1061
17432TIP3    H173787   6.718   2.280   3.638  0.3937  0.5773 -0.4719
17432TIP3    H273788   6.726   2.334   3.497  0.0446 -1.6083 -1.3602
17433TIP3   OH273789   2.459   1.761  12.959  0.1445  0.3590 -0.0915
17433TIP3    H173790   2.365   1.777  12.950  0.3666  1.2005 -1.1521
17433TIP3    H273791   2.481   1.709  12.882  0.2467 -1.3719  1.0707
17434TIP3   OH273792   1.678   3.086   5.164 -0.1775  0.2885 -0.5541
17434TIP3    H173793   1.662   3.014   5.104  1.7267  0.2364 -1.0747
17434TIP3    H273794   1.594   3.102   5.207 -0.6525 -2.2016 -0.4443
17435TIP3   OH273795   4.769   5.812   0.375 -0.1791 -0.2081  0.3013
17435TIP3    H173796   4.792   5.729   0.417  0.7264 -0.8503 -1.3443
17435TIP3    H273797   4.853   5.848   0.347 -0.5834  1.1995  0.8457
17436TIP3   OH273798   5.668   2.604  12.392 -0.3119  0.5856 -0.2766
17436TIP3    H173799   5.698   2.682  12.439  1.3665 -1.1924  1.8300
17436TIP3    H273800   5.589   2.576  12.439  0.9065 -0.7259  1.1169
17437TIP3   OH273801   1.963   5.738   1.829  0.3137 -0.8516 -0.0182
17437TIP3    H173802   1.941   5.648   1.806  2.1406 -1.4952  0.5827
17437TIP3    H273803   1.939   5.789   1.752 -0.5009 -1.8697 -0.4726
17438TIP3   OH273804   1.682   4.557   4.528 -0.5842 -0.0471 -0.2890
17438TIP3    H173805   1.708   4.485   4.585  1.3611  0.0385 -1.0071
17438TIP3    H273806   1.629   4.614   4.584 -0.5490 -1.0418  0.8032
17439TIP3   OH273807   4.577   3.434  11.923 -0.3023 -0.1516 -0.5682
17439TIP3    H173808   4.520   3.511  11.919 -0.5881 -0.4121 -2.2786
17439TIP3    H273809   4.659   3.468  11.961 -0.5317  0.9408 -0.9866
17440TIP3   OH273810   5.344   5.330   2.620  0.4904 -0.1633 -0.2627
17440TIP3    H173811   5.292   5.299   2.545  1.7659 -1.4581 -0.6484
17440TIP3    H273812   5.349   5.425   2.608 -1.7998  0.0421 -0.1715
17441TIP3   OH273813   1.480   3.989  16.033 -0.2710  0.6177  0.1150
17441TIP3    H173814   1.436   4.067  16.068 -0.1882 -0.3707  2.6240
17441TIP3    H273815   1.570   3.996  16.064 -0.3310 -0.5827  0.6280
17442TIP3   OH273816   0.377   3.845  15.888  0.1288  0.5741 -0.2386
17442TIP3    H173817   0.293   3.801  15.872  1.3338 -2.1907  0.5026
17442TIP3    H273818   0.364   3.891  15.970 -0.3829 -0.6937  0.4164
17443TIP3   OH273819   3.934   5.543  15.468  0.1984 -0.1905 -0.3454
17443TIP3    H173820   3.875   5.522  15.395 -0.3985  1.1151 -0.2709
17443TIP3    H273821   4.018   5.560  15.427  0.4002 -1.4708 -0.5135
17444TIP3   OH273822   4.223   4.413   6.694 -0.2375  0.3552 -0.2650
17444TIP3    H173823   4.249   4.504   6.683 -0.6561  0.5924  0.6089
17444TIP3    H273824   4.173   4.392   6.615 -1.4329  1.3542  0.1938
17445TIP3   OH273825   6.661   3.987  11.960  0.4940 -0.7559  0.6072
17445TIP3    H173826   6.599   3.955  12.026 -0.2459 -0.6106 -0.0019
17445TIP3    H273827   6.746   3.985  12.003 -0.0898  0.1461  1.8625
17446TIP3   OH273828   6.186   3.453  15.499  0.3632  0.4511  0.0285
17446TIP3    H173829   6.210   3.491  15.415  1.2174  1.6215  0.7775
17446TIP3    H273830   6.109   3.504  15.528 -2.0897 -2.0911 -1.5094
17447TIP3   OH273831   0.266   4.200  15.458  0.4648 -0.5867 -0.0726
17447TIP3    H173832   0.275   4.107  15.478 -1.1319 -0.9889 -1.0668
17447TIP3    H273833   0.216   4.202  15.377 -1.1428  1.1805  0.8945
17448TIP3   OH273834   1.919   1.168  12.138 -0.0055  0.6960 -0.0371
17448TIP3    H173835   1.898   1.198  12.227 -0.8892 -3.1982  1.2286
17448TIP3    H273836   2.014   1.160  12.138 -0.1073 -1.5448  1.5231
17449TIP3   OH273837   2.653   0.055  17.141  0.5186 -0.1648  0.0462
17449TIP3    H173838   2.600   0.016  17.210 -3.3008  1.8057 -1.4470
17449TIP3    H273839   2.663  -0.015  17.076 -0.2714 -0.6200  0.3984
17450TIP3   OH273840   3.854   1.999   0.804 -0.2682 -0.1430  0.5037
17450TIP3    H173841   3.916   2.048   0.858 -1.6239 -0.6355  2.6020
17450TIP3    H273842   3.769   2.012   0.845 -2.0986  2.1374 -3.3920
17451TIP3   OH273843   2.308   6.241   6.812 -0.7907  0.1273  0.3548
17451TIP3    H173844   2.399   6.270   6.811 -0.6841 -0.2187  0.0934
17451TIP3    H273845   2.311   6.149   6.787 -1.2616  0.2478 -0.1697
17452TIP3   OH273846   5.805   6.172   6.694  0.0498 -0.4178 -0.6092
17452TIP3    H173847   5.843   6.253   6.658 -1.8607  0.7996 -0.0425
17452TIP3    H273848   5.812   6.108   6.623  3.2567 -0.3689 -0.4721
17453TIP3   OH273849   0.294   1.867  13.971 -0.7472  1.1483 -0.0946
17453TIP3    H173850   0.311   1.879  13.878  0.0168 -0.1955 -0.1540
17453TIP3    H273851   0.324   1.778  13.990 -0.2664  1.6244  1.5778
17454TIP3   OH273852   2.133   4.703   6.538  0.1364  0.1705 -0.6730
17454TIP3    H173853   2.224   4.721   6.561  0.3931 -1.0222 -0.6618
17454TIP3    H273854   2.082   4.748   6.605  0.8233 -1.9656  1.4286
17455TIP3   OH273855   3.238   4.877  10.874  0.4313 -0.0453  0.9825
17455TIP3    H173856   3.249   4.966  10.908  0.8852 -0.8172  2.9511
17455TIP3    H273857   3.304   4.825  10.920  2.3957 -0.8959 -2.4534
17456TIP3   OH273858   0.351   4.991  13.452  0.3935  0.1367 -0.2975
17456TIP3    H173859   0.440   4.959  13.439  0.4435  0.4164 -0.6848
17456TIP3    H273860   0.301   4.914  13.479  1.0158  0.2362  1.2209
17457TIP3   OH273861   2.520   5.969  14.541 -0.4403 -0.0627 -0.8021
17457TIP3    H173862   2.430   5.976  14.571 -0.2403  0.4252 -0.2839
17457TIP3    H273863   2.567   6.036  14.591  0.7723 -2.1631  1.0795
17458TIP3   OH273864   4.095   1.614  16.501  0.1926 -0.0885  0.4004
17458TIP3    H173865   4.012   1.597  16.456 -0.2250  1.6440  0.4454
17458TIP3    H273866   4.126   1.527  16.527 -0.8015 -0.9115 -1.0092
17459TIP3   OH273867   5.838   0.015   3.942 -0.2895 -0.2044  0.7641
17459TIP3    H173868   5.804   0.088   3.993  0.3443  0.9501 -0.4159
17459TIP3    H273869   5.849   0.050   3.853  0.1088 -1.7075  0.1827
17460TIP3   OH273870   0.919   4.900   4.374  0.7094  0.4311 -0.0746
17460TIP3    H173871   0.986   4.969   4.375  0.2171  0.9059  0.5406
17460TIP3    H273872   0.840   4.943   4.406 -0.3870  0.3573 -2.5033
17461TIP3   OH273873   1.064   2.950  16.628  0.1306  0.2482  0.3760
17461TIP3    H173874   1.017   2.987  16.553 -0.0565  2.7181  1.6143
17461TIP3    H273875   1.154   2.941  16.597  0.0473  1.2036 -0.1944
17462TIP3   OH273876   4.964   2.968   3.693  0.3287 -0.1117  0.1057
17462TIP3    H173877   5.019   2.928   3.625 -0.1897 -0.9686  0.1889
17462TIP3    H273878   5.025   3.022   3.744  1.1966 -1.4286  0.4999
17463TIP3   OH273879   2.195   3.129   3.157  0.0050  0.3246  0.1683
17463TIP3    H173880   2.232   3.088   3.235 -0.5427  0.6299  0.5912
17463TIP3    H273881   2.101   3.114   3.164 -0.1149  0.9211 -0.0953
17464TIP3   OH273882   2.230   2.457  14.037 -0.1355 -0.5811  1.2214
17464TIP3    H173883   2.242   2.380  14.092  0.4851 -0.9062  0.6447
17464TIP3    H273884   2.168   2.429  13.969  0.4395 -0.7202  0.7455
17465TIP3   OH273885   6.746   1.415   0.437 -0.4448  0.6187 -0.5092
17465TIP3    H173886   6.677   1.468   0.398 -0.7289  0.6652  0.0561
17465TIP3    H273887   6.816   1.477   0.458 -1.1582  0.9525  1.0449
17466TIP3   OH273888   2.667   3.153  15.797 -0.0222 -0.0789  0.0004
17466TIP3    H173889   2.734   3.210  15.759  0.7383 -1.4270 -0.7847
17466TIP3    H273890   2.630   3.204  15.869  0.0839  1.6773 -1.1332
17467TIP3   OH273891   1.435   3.211   0.271 -0.6670  0.0284  0.0739
17467TIP3    H173892   1.425   3.284   0.210 -2.1807  1.0681  1.4480
17467TIP3    H273893   1.364   3.150   0.249  0.2855 -0.7968 -0.7488
17468TIP3   OH273894   0.028   5.737   3.664 -0.1828 -0.4368 -0.6226
17468TIP3    H173895  -0.033   5.774   3.728 -1.6934  1.8012 -3.1264
17468TIP3    H273896  -0.018   5.661   3.628  0.1344 -0.9571  0.0570
17469TIP3   OH273897   3.688   0.836   1.506  0.4190  0.1503  0.4484
17469TIP3    H173898   3.735   0.893   1.568  0.7341 -1.1484  1.4369
17469TIP3    H273899   3.601   0.876   1.498  0.5724  0.6668  1.2690
17470TIP3   OH273900   5.612   6.221  15.828 -0.3881  0.2462  0.0321
17470TIP3    H173901   5.653   6.211  15.914  1.0348 -1.3053 -0.7698
17470TIP3    H273902   5.608   6.315  15.814  2.0466  0.4864  0.5958
17471TIP3   OH273903   0.864   4.150  11.654  0.1154  0.4484  0.2538
17471TIP3    H173904   0.778   4.130  11.691 -0.1602  0.4881 -0.3575
17471TIP3    H273905   0.870   4.245  11.658  0.0120  0.4644  0.0364
17472TIP3   OH273906   3.211   2.951   1.188  0.0118 -0.0068 -0.1327
17472TIP3    H173907   3.239   3.036   1.221  0.4278  0.2620 -1.1523
17472TIP3    H273908   3.274   2.889   1.225  1.0822  0.4103 -1.1976
17473TIP3   OH273909   4.196   3.029   2.502 -0.0453 -0.2830  0.0768
17473TIP3    H173910   4.283   3.051   2.468 -0.1012 -0.5189 -0.2232
17473TIP3    H273911   4.171   2.950   2.454 -1.8423  1.5804 -2.3509
17474TIP3   OH273912   5.843   3.301   0.817  0.0702  0.2394  0.2783
17474TIP3    H173913   5.781   3.366   0.784  1.5427  1.0944 -0.8625
17474TIP3    H273914   5.810   3.217   0.783  0.1589  0.8172 -1.2816
17475TIP3   OH273915   4.428   1.300   4.853  0.3396 -0.3083 -0.3494
17475TIP3    H173916   4.361   1.316   4.786 -0.1266  1.4032  0.4645
17475TIP3    H273917   4.395   1.346   4.930  2.7329  1.1596 -0.1002
17476TIP3   OH273918   0.826   4.011  13.502  0.3530  0.3201 -0.2133
17476TIP3    H173919   0.811   3.951  13.575  0.0905  0.0548 -0.4787
17476TIP3    H273920   0.918   4.037  13.510  0.4420 -0.0451 -0.0355
17477TIP3   OH273921   2.746   5.747  15.315  0.2110  0.1360 -0.2541
17477TIP3    H173922   2.723   5.790  15.232 -2.4049 -0.4402  0.0898
17477TIP3    H273923   2.736   5.653  15.297  0.4559 -0.0431  0.5068
17478TIP3   OH273924   5.823   1.020   2.970 -0.0147  0.1844  0.6594
17478TIP3    H173925   5.833   1.003   3.064  0.0596  0.7534  0.7636
17478TIP3    H273926   5.750   1.082   2.965  0.4016  0.6628  0.4040
17479TIP3   OH273927   2.195   3.957   0.011  0.7889 -0.1304 -0.0060
17479TIP3    H173928   2.201   4.035  -0.044 -1.2437 -1.0197 -1.6092
17479TIP3    H273929   2.249   3.892  -0.032 -0.2348 -0.6109 -0.5986
17480TIP3   OH273930   5.657   0.556  12.718 -0.0241 -0.3082  0.2546
17480TIP3    H173931   5.598   0.566  12.792 -1.3551 -1.4747 -0.5873
17480TIP3    H273932   5.623   0.480  12.670  1.2617 -0.0797 -1.1135
17481TIP3   OH273933   3.201   0.561   2.385  0.0329 -0.7099  0.0778
17481TIP3    H173934   3.234   0.637   2.433 -0.2499  0.2752 -1.2367
17481TIP3    H273935   3.279   0.521   2.346  0.2139 -1.2801  0.9837
17482TIP3   OH273936   2.836   6.654  14.901 -0.3250 -0.0919 -0.1380
17482TIP3    H173937   2.813   6.580  14.845 -1.6483 -0.7309  1.2025
17482TIP3    H273938   2.842   6.617  14.989  0.3205  1.1540  0.3638
17483TIP3   OH273939   6.616   6.009   4.490 -0.1104  0.1827 -0.3979
17483TIP3    H173940   6.587   6.001   4.399  2.6037  0.4390 -1.3861
17483TIP3    H273941   6.642   5.921   4.515 -0.6113  0.1610  0.0655
17484TIP3   OH273942   1.604   5.755  16.985 -0.3380  0.1484  0.1186
17484TIP3    H173943   1.615   5.755  17.080  0.1749 -0.7925  0.0674
17484TIP3    H273944   1.691   5.736  16.951 -0.7767 -0.7946 -0.4977
17485TIP3   OH273945   5.265   4.749   0.221  0.2809  0.5594  0.0312
17485TIP3    H173946   5.190   4.726   0.276 -0.0883 -2.2457 -1.4358
17485TIP3    H273947   5.235   4.824   0.169 -0.6931  0.8691  0.9937
17486TIP3   OH273948   4.748   2.767   3.930  0.0863 -0.2008 -0.4310
17486TIP3    H173949   4.717   2.680   3.904 -3.1183  0.9207 -0.8347
17486TIP3    H273950   4.760   2.814   3.848  0.9115  0.0343 -0.1840
17487TIP3   OH273951   2.524   3.048   1.856  0.1018 -0.0197 -0.4295
17487TIP3    H173952   2.541   3.135   1.891  0.1034 -0.2498  0.1554
17487TIP3    H273953   2.608   3.002   1.862 -0.1772 -0.4357  0.3653
17488TIP3   OH273954   6.035   4.414   0.013  0.3883  0.3328 -1.0294
17488TIP3    H173955   6.053   4.494  -0.036 -2.1764  1.8527  0.2790
17488TIP3    H273956   5.939   4.408   0.014  0.4883 -2.1543 -0.0995
17489TIP3   OH273957   3.987   0.391  14.131  0.3949  0.0178 -0.0917
17489TIP3    H173958   3.904   0.346  14.144  0.5947 -0.5224 -0.6633
17489TIP3    H273959   4.051   0.335  14.175  0.5299  0.1649 -0.0995
17490TIP3   OH273960   4.419   0.228   4.048 -0.2387 -0.0686 -0.0563
17490TIP3    H173961   4.462   0.310   4.023 -0.5754  0.5963  1.4208
17490TIP3    H273962   4.326   0.245   4.033 -0.2190 -0.5502 -0.7202
17491TIP3   OH273963   1.263   3.690  13.160 -0.5748  0.1149  0.4030
17491TIP3    H173964   1.319   3.664  13.233 -0.7488  0.2299  0.5795
17491TIP3    H273965   1.190   3.628  13.162  0.9877 -1.9267 -1.6437
17492TIP3   OH273966   1.800   6.170   0.803  0.2900  1.1086  0.1397
17492TIP3    H173967   1.705   6.179   0.813  0.4368  0.8091  2.4037
17492TIP3    H273968   1.836   6.227   0.870  1.6213 -0.8152  1.1481
17493TIP3   OH273969   2.196   2.127  13.928 -0.2476 -0.5065 -0.0040
17493TIP3    H173970   2.153   2.209  13.902 -0.2769 -0.0637  1.3412
17493TIP3    H273971   2.140   2.058  13.893 -1.0269  0.0587  0.1126
17494TIP3   OH273972   1.966   3.230   3.438 -0.2560 -0.4108  0.3751
17494TIP3    H173973   2.037   3.168   3.424  0.2624  0.5357 -1.5750
17494TIP3    H273974   1.889   3.176   3.454  0.6602 -1.4703  1.4280
17495TIP3   OH273975   5.034   0.697   4.377  0.1920  0.2338 -0.2161
17495TIP3    H173976   5.067   0.688   4.467  0.6003  1.6962 -0.1956
17495TIP3    H273977   5.102   0.746   4.332  0.4262 -1.2680 -1.6081
17496TIP3   OH273978   5.611   3.903   3.406  0.2104  0.0955 -0.1761
17496TIP3    H173979   5.555   3.838   3.364 -1.4766  0.9154  0.7153
17496TIP3    H273980   5.614   3.976   3.344 -1.5523  0.9413  0.6733
17497TIP3   OH273981   5.325   0.000   0.524  0.5534  0.4166  0.1413
17497TIP3    H173982   5.291  -0.015   0.612  0.8425  0.2614  0.2294
17497TIP3    H273983   5.266   0.065   0.486  0.4075  0.4594  0.4381
17498TIP3   OH273984   6.016   0.123  11.920  0.2074 -0.8000 -0.1457
17498TIP3    H173985   6.068   0.061  11.870  1.3939 -1.2766  1.6002
17498TIP3    H273986   5.998   0.078  12.002  1.9711  1.4859  1.6141
17499TIP3   OH273987   5.105   4.192  15.872  0.2455  0.6223 -0.0437
17499TIP3    H173988   5.195   4.201  15.840  1.9328  1.3730  4.1754
17499TIP3    H273989   5.109   4.117  15.932 -2.0191  0.5601  0.1107
17500TIP3   OH273990   5.612   5.044  14.398 -0.3400 -0.0383 -0.4421
17500TIP3    H173991   5.531   5.093  14.416  0.3722  1.2601 -0.6688
17500TIP3    H273992   5.682   5.100  14.430  0.4376 -2.0044  1.6005
17501TIP3   OH273993   3.809   1.905  12.607  0.3879  0.3962  0.1149
17501TIP3    H173994   3.758   1.837  12.651  0.6221  0.3326  0.2898
17501TIP3    H273995   3.897   1.868  12.600  0.4352  0.5476 -0.0919
17502TIP3   OH273996   2.432   2.684   1.245  0.1481  0.2816  0.0572
17502TIP3    H173997   2.390   2.746   1.305  0.6642 -1.0405  1.8795
17502TIP3    H273998   2.360   2.651   1.191 -0.4144  1.1833  0.2201
17503TIP3   OH273999   6.014   5.025   0.209  0.1240  0.4900 -0.3270
17503TIP3    H174000   6.099   5.031   0.166  0.9554 -0.2423  1.1216
17503TIP3    H274001   5.997   5.113   0.243  0.1757  0.7039 -0.8619
17504TIP3   OH274002   1.165   2.985   1.373  0.0497  0.1354 -0.2602
17504TIP3    H174003   1.203   3.073   1.368  0.8666 -0.2186 -0.4720
17504TIP3    H274004   1.189   2.954   1.460  0.0082  0.0055 -0.2952
17505TIP3   OH274005   6.473   5.213   1.029  0.5444 -0.1630  0.0767
17505TIP3    H174006   6.564   5.209   0.999  0.4360  0.2815 -0.3358
17505TIP3    H274007   6.471   5.159   1.108  1.0953 -0.4328 -0.0891
17506TIP3   OH274008   4.277   2.903  13.054 -0.7084  0.3472 -0.1302
17506TIP3    H174009   4.304   2.812  13.066  0.2864  0.6207 -0.1353
17506TIP3    H274010   4.300   2.923  12.963 -0.1047  0.8445  0.1183
17507TIP3   OH274011   1.249   1.623  16.849  0.0900  0.0527  0.2263
17507TIP3    H174012   1.252   1.718  16.861 -0.3001  0.1390 -0.2700
17507TIP3    H274013   1.217   1.613  16.759 -1.6416 -0.5500  0.8626
17508TIP3   OH274014   4.457   6.649   0.556 -0.1775  0.1356 -0.3382
17508TIP3    H174015   4.517   6.578   0.579 -0.0743  0.1944 -0.4233
17508TIP3    H274016   4.405   6.663   0.634  0.3876  0.5565 -0.0313
17509TIP3   OH274017   3.075   2.908   2.866  0.6423 -0.6386 -0.4966
17509TIP3    H174018   3.062   2.818   2.896 -0.5678 -1.1817 -2.4376
17509TIP3    H274019   2.987   2.946   2.868  1.0615  0.3483 -0.2096
17510TIP3   OH274020   3.521   5.878   5.105 -0.2424  0.0880  0.2873
17510TIP3    H174021   3.543   5.881   5.199 -0.9387 -1.2471  0.5173
17510TIP3    H274022   3.604   5.858   5.062  0.1953  1.2595  0.5472
17511TIP3   OH274023   6.604   4.454  16.372 -0.8301 -0.3981 -0.7550
17511TIP3    H174024   6.623   4.543  16.343 -1.9095 -0.5037 -1.8927
17511TIP3    H274025   6.553   4.465  16.452  0.4465 -0.0569  0.0443
17512TIP3   OH274026   6.180   4.437   2.781  0.3324 -0.3813 -0.0239
17512TIP3    H174027   6.243   4.421   2.851  0.7529 -0.7726 -0.4867
17512TIP3    H274028   6.220   4.506   2.728 -0.6667  1.0188  0.9516
17513TIP3   OH274029   6.082   2.093  13.344 -0.0031 -0.0179 -0.1274
17513TIP3    H174030   5.994   2.114  13.311  0.1859  1.2031  0.1212
17513TIP3    H274031   6.066   2.050  13.428 -0.3662  0.0445 -0.1615
17514TIP3   OH274032   2.811   5.488  11.869  0.1930 -0.2599 -0.0186
17514TIP3    H174033   2.755   5.415  11.895 -0.0295  0.0029  0.2499
17514TIP3    H274034   2.776   5.516  11.785 -0.2087  0.0310  0.2409
17515TIP3   OH274035   0.345   5.467  16.241  0.2484 -0.1019  0.3411
17515TIP3    H174036   0.327   5.406  16.169 -3.5318 -0.0034  0.9975
17515TIP3    H274037   0.355   5.552  16.199 -2.7420  0.0947 -0.1497
17516TIP3   OH274038   3.985   6.461   1.309  0.1849  0.0281 -0.1290
17516TIP3    H174039   4.073   6.486   1.335 -0.0404 -0.7941  1.5966
17516TIP3    H274040   3.945   6.542   1.277  0.2644  1.4253  2.9383
17517TIP3   OH274041   2.820   1.581  16.000  0.3582 -0.3496 -0.9188
17517TIP3    H174042   2.802   1.675  16.000  0.8702 -0.2428 -0.1179
17517TIP3    H274043   2.740   1.541  16.035 -0.6809 -0.4129 -3.1990
17518TIP3   OH274044   5.504   4.378  17.218  0.6101 -0.1927  0.4555
17518TIP3    H174045   5.420   4.422  17.230  2.1045  2.5742  1.6957
17518TIP3    H274046   5.521   4.385  17.124 -1.3847 -2.6250 -0.1756
17519TIP3   OH274047   3.961   5.539  11.718 -0.0120  0.2325 -0.8449
17519TIP3    H174048   4.036   5.591  11.687 -0.0025  1.0287  0.4783
17519TIP3    H274049   3.895   5.603  11.741 -0.7033 -0.4336 -0.9442
17520TIP3   OH274050   4.105   6.775   3.437 -0.3807 -0.2977  0.3884
17520TIP3    H174051   4.185   6.759   3.387 -0.1836 -1.5224  1.0535
17520TIP3    H274052   4.084   6.690   3.476 -0.5791  0.5748  2.2937
17521TIP3   OH274053   6.181   3.057  10.334 -0.7876  0.0533  0.0755
17521TIP3    H174054   6.172   2.962  10.339 -0.6103  0.0835  4.1043
17521TIP3    H274055   6.107   3.091  10.384  0.1513  1.9671  0.2543
17522TIP3   OH274056   4.675   2.747  14.416  0.5754  0.3165  0.1311
17522TIP3    H174057   4.678   2.820  14.355  1.1290 -0.8637 -1.3256
17522TIP3    H274058   4.753   2.696  14.396  0.8552 -0.0656  1.9447
17523TIP3   OH274059   1.067   1.999  12.799 -0.0730 -0.2763 -1.0506
17523TIP3    H174060   1.066   1.922  12.742 -0.8047 -0.4965 -0.7512
17523TIP3    H274061   1.135   1.981  12.863  1.1870  0.2375 -2.1960
17524TIP3   OH274062   5.024   1.931  12.556 -0.3433  0.4028 -0.3046
17524TIP3    H174063   5.009   1.940  12.462 -1.0545  1.8202 -0.0781
17524TIP3    H274064   4.947   1.971  12.597 -0.7390 -1.4636  0.9010
17525TIP3   OH274065   5.593   1.319   0.938  0.1330  0.2120 -0.2862
17525TIP3    H174066   5.503   1.350   0.946 -0.1053 -0.7074  1.0029
17525TIP3    H274067   5.642   1.374   1.000  0.5759  1.0206 -1.3142
17526TIP3   OH274068   5.137   2.585   0.246  0.3832  0.7337 -0.5254
17526TIP3    H174069   5.168   2.674   0.228 -0.7183  1.8549  2.4446
17526TIP3    H274070   5.214   2.538   0.278  0.6297  1.1626 -0.4781
17527TIP3   OH274071   3.068   5.998  12.883 -0.0144 -0.2251 -0.9452
17527TIP3    H174072   3.107   5.950  12.956  0.4011  1.7054  0.1808
17527TIP3    H274073   3.134   6.064  12.860 -2.0017  2.3149  0.1593
17528TIP3   OH274074   1.370   4.470  14.946  0.7695  0.5027 -0.4524
17528TIP3    H174075   1.458   4.431  14.946  0.2798 -0.6732  0.2898
17528TIP3    H274076   1.376   4.540  15.012  0.8803 -0.2858  0.4061
17529TIP3   OH274077   1.873   2.413   1.839 -0.1383  0.1962  0.1974
17529TIP3    H174078   1.867   2.447   1.929  0.9251  2.5372 -0.5490
17529TIP3    H274079   1.958   2.370   1.836 -0.1989  0.0647  0.2961
17530TIP3   OH274080   0.074   1.511  17.236  0.2960  0.0204 -0.7155
17530TIP3    H174081   0.098   1.596  17.199  2.0925 -0.7054 -1.3341
17530TIP3    H274082   0.079   1.450  17.163 -0.7995 -0.6684 -0.2456
17531TIP3   OH274083   5.219   6.016  10.628 -0.0118 -0.0281  0.1976
17531TIP3    H174084   5.150   5.982  10.685 -0.7654 -0.6494 -1.0324
17531TIP3    H274085   5.270   5.939  10.603 -0.0059  0.1475 -0.3572
17532TIP3   OH274086   1.124   4.765  13.165  0.5960 -0.3006 -0.6464
17532TIP3    H174087   1.148   4.850  13.201  1.6822 -0.4473 -0.9916
17532TIP3    H274088   1.207   4.725  13.140  0.0970 -1.4600 -0.5117
17533TIP3   OH274089   3.194   3.600   4.425  0.6787  0.5302  0.3839
17533TIP3    H174090   3.271   3.551   4.396  0.3302 -0.7311  1.4777
17533TIP3    H274091   3.167   3.651   4.348  1.6749 -0.2089 -0.4818
17534TIP3   OH274092   2.554   6.573  14.735 -0.5604  0.3830 -0.3917
17534TIP3    H174093   2.524   6.531  14.654  1.5635  0.1579 -1.1285
17534TIP3    H274094   2.637   6.613  14.711  1.1785 -1.4142  2.1362
17535TIP3   OH274095   2.159   4.557   5.879 -0.6976 -0.0476 -0.0280
17535TIP3    H174096   2.251   4.539   5.863 -0.8212 -1.8483  1.1111
17535TIP3    H274097   2.158   4.605   5.962 -0.8594 -1.0729  0.5679
17536TIP3   OH274098   5.440   1.949   5.069 -0.9928 -0.1988 -0.1959
17536TIP3    H174099   5.482   1.981   5.149  0.1198 -0.0888 -0.7948
17536TIP3    H274100   5.399   2.026   5.030 -0.5518 -0.0195 -0.3095
17537TIP3   OH274101   4.818   3.773  16.171 -0.0266 -0.7621 -0.6439
17537TIP3    H174102   4.801   3.863  16.145  0.3012 -0.9660 -1.6089
17537TIP3    H274103   4.735   3.742  16.207  0.3602  0.4892  1.4944
17538TIP3   OH274104   1.792   0.431  13.620 -0.1393  0.1559  0.0764
17538TIP3    H174105   1.867   0.372  13.610 -0.5455 -0.2615 -0.5593
17538TIP3    H274106   1.831   0.518  13.632  0.5591 -0.5015  3.6488
17539TIP3   OH274107   6.731   2.202   0.255  0.0637  0.0017  0.1421
17539TIP3    H174108   6.781   2.123   0.236  0.3927  0.2024  0.1573
17539TIP3    H274109   6.721   2.245   0.170  0.8316  0.4892  0.2840
17540TIP3   OH274110   3.673   0.276  12.714  0.0813  0.6899 -0.1672
17540TIP3    H174111   3.636   0.364  12.716  1.2214  1.1895  2.6849
17540TIP3    H274112   3.679   0.250  12.806 -0.7744 -2.6579 -0.9118
17541TIP3   OH274113   3.191   0.492  14.629 -0.2553  0.7125  0.4370
17541TIP3    H174114   3.156   0.560  14.571 -1.2045 -1.2136 -1.3572
17541TIP3    H274115   3.274   0.467  14.589 -0.4116  0.0914  0.5004
17542TIP3   OH274116   3.305   5.705  16.675 -0.2801 -0.1741  0.7276
17542TIP3    H174117   3.211   5.688  16.687 -0.6896 -0.5432 -2.2584
17542TIP3    H274118   3.348   5.624  16.700 -1.1138 -1.2154 -1.0111
17543TIP3   OH274119   2.201   6.343   3.917 -0.1216  0.2912  0.1455
17543TIP3    H174120   2.123   6.318   3.867 -1.6970 -0.0159  2.5536
17543TIP3    H274121   2.214   6.436   3.897 -1.2524  0.4000 -0.1541
17544TIP3   OH274122   5.163   2.831  12.225  0.1938  0.4497 -0.0080
17544TIP3    H174123   5.131   2.895  12.161  3.2235  0.7758 -1.3260
17544TIP3    H274124   5.201   2.761  12.173 -2.2412 -2.1549  1.4258
17545TIP3   OH274125   4.178   5.436   2.505  0.0661  0.6244 -0.1777
17545TIP3    H174126   4.166   5.498   2.577  1.1383  0.9333 -0.2531
17545TIP3    H274127   4.258   5.465   2.461  0.4471 -0.6529 -0.3688
17546TIP3   OH274128   0.935   5.416   4.934  0.3193  0.1805  0.1421
17546TIP3    H174129   0.923   5.447   4.844  1.9527  1.4327  0.3015
17546TIP3    H274130   0.935   5.496   4.987  0.6160 -0.4323  1.1026
17547TIP3   OH274131   5.746   3.686  15.666  0.3176 -0.1440 -0.3757
17547TIP3    H174132   5.837   3.673  15.638  0.4157 -0.2970  0.0043
17547TIP3    H274133   5.753   3.721  15.755 -0.0032 -1.0545  0.0245
17548TIP3   OH274134   2.650   1.272  13.458  0.0881 -0.0011  0.2269
17548TIP3    H174135   2.703   1.206  13.503  0.6303  1.0742  1.2413
17548TIP3    H274136   2.712   1.315  13.399 -0.1983 -0.2138 -0.2314
17549TIP3   OH274137   3.821   5.650   3.526  0.5913  0.2461 -0.1460
17549TIP3    H174138   3.845   5.563   3.494 -0.2979 -0.7549  1.7755
17549TIP3    H274139   3.763   5.685   3.458 -3.3666 -2.8412  1.2545
17550TIP3   OH274140   1.008   3.455  14.461  0.0363  0.3021 -0.7539
17550TIP3    H174141   0.961   3.536  14.482  1.3626  1.3126 -1.5137
17550TIP3    H274142   1.009   3.453  14.365  1.6270  0.3920 -0.7689
17551TIP3   OH274143   6.584   2.868   3.388 -0.1491  0.1646 -0.1775
17551TIP3    H174144   6.676   2.875   3.412 -0.4672  0.8165  0.8772
17551TIP3    H274145   6.537   2.861   3.471 -1.1566  1.1092 -0.6417
17552TIP3   OH274146   0.486   3.395   3.783 -0.7683  0.2595 -0.2281
17552TIP3    H174147   0.404   3.375   3.738 -0.9855 -0.4594  0.4584
17552TIP3    H274148   0.539   3.441   3.718 -1.6769  0.6403 -0.7065
17553TIP3   OH274149   5.697   3.176  10.429  0.0453  0.0594  0.1224
17553TIP3    H174150   5.679   3.238  10.500 -0.6718 -1.1479  1.0335
17553TIP3    H274151   5.613   3.136  10.409  0.4163 -0.3171 -0.7437
17554TIP3   OH274152   6.778   1.327   5.874  0.3946  0.2622  0.0369
17554TIP3    H174153   6.715   1.289   5.813 -0.1478 -1.2607  1.4525
17554TIP3    H274154   6.746   1.415   5.891 -0.1745  0.2320 -0.8517
17555TIP3   OH274155   5.706   5.196   5.868 -0.4042 -0.5314  0.4612
17555TIP3    H174156   5.622   5.164   5.901  0.3568 -3.0129  0.1590
17555TIP3    H274157   5.762   5.199   5.946 -0.3910 -0.1259  0.4396
17556TIP3   OH274158   5.455   3.620  15.239 -0.0046 -0.2540 -0.2397
17556TIP3    H174159   5.424   3.707  15.212 -0.8884 -0.2815  0.6201
17556TIP3    H274160   5.523   3.638  15.304  1.8326 -0.1938 -2.1008
17557TIP3   OH274161   1.332   1.322  12.399  0.1952 -0.6998  0.2607
17557TIP3    H174162   1.293   1.274  12.327  3.4075 -2.7528 -0.2875
17557TIP3    H274163   1.396   1.380  12.358  1.0975 -0.8734  1.3715
17558TIP3   OH274164   5.737   3.839   2.416  0.1513 -0.6010 -0.2982
17558TIP3    H174165   5.777   3.916   2.457 -0.6667 -1.3215  2.0299
17558TIP3    H274166   5.802   3.770   2.426 -0.1730 -0.8571  0.0795
17559TIP3   OH274167   0.659   5.685   6.206  0.1777 -0.4327  0.2509
17559TIP3    H174168   0.650   5.592   6.224  0.4715 -0.6685 -0.7690
17559TIP3    H274169   0.693   5.722   6.287  0.6623 -1.3084  0.4559
17560TIP3   OH274170   5.371   4.353   1.086 -0.0204  0.3614 -0.1532
17560TIP3    H174171   5.455   4.338   1.044  0.6977  0.7218  1.1018
17560TIP3    H274172   5.319   4.399   1.020  0.3143 -0.9421 -1.3826
17561TIP3   OH274173   4.325   5.380  13.296 -0.3242 -0.4065 -0.0365
17561TIP3    H174174   4.372   5.364  13.378  0.4467 -1.9464 -0.7354
17561TIP3    H274175   4.286   5.295  13.274 -0.3974 -0.0563 -1.3314
17562TIP3   OH274176   6.702   1.483   5.470  0.3230 -0.0714 -0.4966
17562TIP3    H174177   6.709   1.560   5.527 -1.0823 -0.3319  0.0694
17562TIP3    H274178   6.609   1.465   5.466  0.7126 -3.9462  2.4081
17563TIP3   OH274179   5.134   6.009  17.237  0.1455 -0.9535 -0.2327
17563TIP3    H174180   5.203   6.037  17.177 -0.5893  0.2684 -0.5515
17563TIP3    H274181   5.106   6.090  17.280 -0.2850 -1.6070  0.7482
17564TIP3   OH274182   0.277   6.401   3.242 -0.9906 -0.4493 -0.0295
17564TIP3    H174183   0.323   6.472   3.197  1.3308 -2.1884 -0.5590
17564TIP3    H274184   0.295   6.323   3.189  0.2462 -2.2322  2.7838
17565TIP3   OH274185   0.789   2.874   3.183  0.1883 -0.0797  0.4963
17565TIP3    H174186   0.715   2.816   3.165 -0.8289  0.8616  1.4824
17565TIP3    H274187   0.862   2.837   3.132 -0.8857 -1.1664 -0.3055
17566TIP3   OH274188   6.011   2.828  13.513  0.0850 -0.4352 -0.1130
17566TIP3    H174189   6.036   2.860  13.600  1.4904 -0.0835 -0.6045
17566TIP3    H274190   6.092   2.792  13.478 -0.8471 -2.1139 -0.6462
17567TIP3   OH274191   3.938   5.807   1.455  0.4217 -0.4316  0.0225
17567TIP3    H174192   3.845   5.824   1.474  0.0738 -1.8419 -0.3443
17567TIP3    H274193   3.972   5.892   1.427 -0.5230  0.3201  1.0367
17568TIP3   OH274194   2.156   5.919  14.342  0.2945 -0.4061  0.2842
17568TIP3    H174195   2.201   5.849  14.389  0.0543  0.3458  1.7021
17568TIP3    H274196   2.173   5.901  14.249  3.3976 -0.2114  0.7317
17569TIP3   OH274197   0.693   6.401   2.299  0.4881  0.1735  0.5823
17569TIP3    H174198   0.700   6.306   2.305 -0.3688  0.1417  1.3246
17569TIP3    H274199   0.670   6.418   2.207 -1.3244 -0.5054  0.8596
17570TIP3   OH274200   3.848   5.254   6.258 -0.3186  0.5447 -0.0909
17570TIP3    H174201   3.926   5.215   6.219  0.1454  1.3706  0.0044
17570TIP3    H274202   3.828   5.198   6.333  0.1907  0.3475 -0.1010
17571TIP3   OH274203   0.831   0.593   1.389  0.0861 -0.3012 -0.0124
17571TIP3    H174204   0.742   0.594   1.426  0.0435 -0.8085 -0.1000
17571TIP3    H274205   0.878   0.660   1.439  0.3583 -1.7576  1.7671
17572TIP3   OH274206   1.876   2.395  14.075  0.2244 -0.1722 -0.3231
17572TIP3    H174207   1.812   2.336  14.115  0.6220 -1.0261 -0.9173
17572TIP3    H274208   1.849   2.401  13.983  0.5150  0.1278 -0.3922
17573TIP3   OH274209   0.790   2.338   1.686 -0.2296  0.1504  0.2249
17573TIP3    H174210   0.694   2.330   1.681 -0.0971 -2.1861  0.2268
17573TIP3    H274211   0.811   2.406   1.622 -1.7722 -0.6104 -1.2044
17574TIP3   OH274212   0.577   1.682   6.480  0.0747  0.3265  0.1240
17574TIP3    H174213   0.672   1.669   6.485 -0.0035 -0.5765 -0.4878
17574TIP3    H274214   0.540   1.610   6.530 -0.2851  1.1262  1.0294
17575TIP3   OH274215   1.217   3.943  11.779  0.0445  0.4478  0.7592
17575TIP3    H174216   1.175   3.882  11.839  0.4924  0.5569  1.1872
17575TIP3    H274217   1.311   3.928  11.791  0.1380  0.3742 -0.0105
17576TIP3   OH274218   0.971   1.776  12.147  0.1295 -0.3439 -0.2239
17576TIP3    H174219   1.058   1.741  12.128  0.2776  0.0087 -0.2198
17576TIP3    H274220   0.975   1.867  12.116 -0.2575 -0.3467 -0.2833
17577TIP3   OH274221   4.515   1.287  15.826 -0.3615  0.1845  0.0777
17577TIP3    H174222   4.558   1.224  15.767  0.8007  1.6002 -0.6749
17577TIP3    H274223   4.428   1.298  15.789 -0.3051 -0.3917 -0.2480
17578TIP3   OH274224   0.780   3.070  11.501 -0.2895 -0.6084  0.0411
17578TIP3    H174225   0.801   3.003  11.436 -0.2242 -0.9105  0.3761
17578TIP3    H274226   0.851   3.066  11.565 -0.2489 -0.1745  0.0301
17579TIP3   OH274227   6.293   2.704  12.071  0.2448 -0.2643  0.2710
17579TIP3    H174228   6.221   2.703  12.134  0.6874 -2.6667  0.8141
17579TIP3    H274229   6.251   2.704  11.985 -0.3713  3.4199  0.3991
17580TIP3   OH274230   2.812   3.439  14.786  0.5123 -0.4068  0.2840
17580TIP3    H174231   2.805   3.441  14.881  0.4490  1.0949  0.2635
17580TIP3    H274232   2.878   3.371  14.768  1.3921  0.1154  1.4521
17581TIP3   OH274233   2.382   6.406   2.995 -0.1142  0.7275 -0.2443
17581TIP3    H174234   2.302   6.418   2.945 -1.5081  0.4440  1.7866
17581TIP3    H274235   2.368   6.457   3.075  2.3127  1.7781 -0.3864
17582TIP3   OH274236   3.708   6.775   3.512 -0.1421 -0.1589 -0.4534
17582TIP3    H174237   3.713   6.689   3.555  1.3965 -0.4100 -1.0838
17582TIP3    H274238   3.638   6.764   3.447  0.2776 -1.0657 -0.7762
17583TIP3   OH274239   5.815   4.919  15.962  0.2069  0.1219  0.0335
17583TIP3    H174240   5.860   4.964  15.891 -0.0276 -0.4222 -0.4736
17583TIP3    H274241   5.743   4.978  15.987  1.0265  0.8745  0.6759
17584TIP3   OH274242   0.717   4.976  16.193  0.5169  0.2379 -0.0722
17584TIP3    H174243   0.770   4.899  16.210  3.2797  2.5230  2.6543
17584TIP3    H274244   0.667   4.990  16.273  1.5749  2.2780  0.3193
17585TIP3   OH274245   3.940   6.701  16.055 -0.4505 -0.0794  0.0937
17585TIP3    H174246   3.922   6.658  15.972  0.6923  3.4090 -2.2095
17585TIP3    H274247   3.857   6.701  16.101 -1.4036 -1.1949 -1.5370
17586TIP3   OH274248   5.338   2.700  14.619 -0.1726  0.8040  0.4583
17586TIP3    H174249   5.403   2.699  14.689 -1.9653 -2.1934  2.3053
17586TIP3    H274250   5.389   2.682  14.540  1.5628  1.4730  1.3534
17587TIP3   OH274251   1.513   0.303   0.670  0.4153 -0.5504  0.0557
17587TIP3    H174252   1.547   0.318   0.758 -1.1632  0.7365  0.5061
17587TIP3    H274253   1.473   0.216   0.675  0.3962 -0.5176  0.6067
17588TIP3   OH274254   2.021   1.351  14.707  0.5018 -0.7427  0.3612
17588TIP3    H174255   1.934   1.313  14.692  0.4195 -0.0705 -1.0846
17588TIP3    H274256   2.040   1.398  14.626  1.6910  0.1544  1.1310
17589TIP3   OH274257   5.125   0.346  13.371 -0.2157  0.3401 -0.4974
17589TIP3    H174258   5.030   0.334  13.367 -0.4554  1.8251  0.2152
17589TIP3    H274259   5.160   0.257  13.377 -1.4951 -0.2835 -1.7465
17590TIP3   OH274260   1.147   0.500   0.258  0.1258 -0.4271  0.2117
17590TIP3    H174261   1.061   0.527   0.290 -0.3692 -0.1462 -1.2754
17590TIP3    H274262   1.187   0.453   0.331 -1.4232 -0.8644  0.7998
17591TIP3   OH274263   0.054   4.315  11.565 -0.2576  0.0053 -0.4577
17591TIP3    H174264   0.037   4.228  11.530  2.8492 -0.3966 -1.2729
17591TIP3    H274265   0.068   4.370  11.487  0.8598  0.4668  0.0404
17592TIP3   OH274266   5.088   0.349  13.993 -0.1808  0.0813 -0.4453
17592TIP3    H174267   5.163   0.329  13.937  0.4624 -1.1686  0.8006
17592TIP3    H274268   5.121   0.417  14.052 -0.4697  0.5055 -0.7653
17593TIP3   OH274269   6.413   0.234  11.091 -0.3080 -0.1788 -0.1327
17593TIP3    H174270   6.432   0.250  10.999  2.4406 -1.4572  0.1109
17593TIP3    H274271   6.427   0.319  11.133 -0.1800  0.0979 -0.7195
17594TIP3   OH274272   4.436   0.948  15.960 -0.2155 -0.9316  0.1196
17594TIP3    H174273   4.471   1.036  15.975  1.3785 -1.4105 -0.5355
17594TIP3    H274274   4.386   0.928  16.039 -0.7177  0.6088  0.2157
17595TIP3   OH274275   5.983   1.161   2.787 -0.0696  0.0621 -0.2897
17595TIP3    H174276   5.964   1.093   2.852 -2.7623  0.2602 -0.7770
17595TIP3    H274277   5.946   1.241   2.825  0.1066  0.5822 -1.1949
17596TIP3   OH274278   5.471   2.554   0.585 -0.2706  0.4062  0.5952
17596TIP3    H174279   5.476   2.642   0.623  0.3037  0.5110  0.2900
17596TIP3    H274280   5.425   2.502   0.651  1.0696  0.4825  1.6250
17597TIP3   OH274281   6.351   3.368   5.315  0.0935  0.1703 -0.1798
17597TIP3    H174282   6.385   3.441   5.263  0.3787  0.4313  0.3641
17597TIP3    H274283   6.346   3.402   5.405  0.0996 -0.4323  0.0551
17598TIP3   OH274284   5.114   1.804   2.817 -0.3115  0.2547 -0.0795
17598TIP3    H174285   5.108   1.723   2.765 -1.8694  1.0039 -1.1547
17598TIP3    H274286   5.062   1.786   2.895  1.5061 -0.6497  0.9905
17599TIP3   OH274287   0.329   2.621   3.204 -0.4912  0.4360  0.2592
17599TIP3    H174288   0.243   2.635   3.166 -1.1837 -3.3884 -0.0258
17599TIP3    H274289   0.312   2.575   3.286  1.2298 -0.6054  0.0905
17600TIP3   OH274290   3.062   4.900  12.884  0.2174 -0.0017  0.2951
17600TIP3    H174291   3.058   4.979  12.831  0.4190  0.5117  1.0195
17600TIP3    H274292   3.154   4.890  12.905  0.1905 -0.4241  0.2232
17601TIP3   OH274293   2.561   6.281  16.556 -0.4991  0.3437  0.0654
17601TIP3    H174294   2.633   6.276  16.619 -0.0624 -1.5731 -0.5061
17601TIP3    H274295   2.601   6.312  16.475 -0.1260 -1.3359 -0.4337
17602TIP3   OH274296   5.796   6.693  12.648 -0.0452 -0.4176 -0.4293
17602TIP3    H174297   5.884   6.679  12.613  1.3116  1.7801  1.6973
17602TIP3    H274298   5.788   6.630  12.720  0.5199  0.4363  0.4158
17603TIP3   OH274299   6.739   1.156  15.879  0.4985 -0.1172 -0.2282
17603TIP3    H174300   6.700   1.104  15.949 -1.0680 -0.1910 -1.0960
17603TIP3    H274301   6.671   1.160  15.811 -0.1763  4.3867  0.3781
17604TIP3   OH274302   2.701   6.134  12.745 -0.3979 -0.2117 -0.1218
17604TIP3    H174303   2.707   6.228  12.766 -0.7161 -0.6858  2.4515
17604TIP3    H274304   2.607   6.115  12.749 -0.3371 -0.6332 -0.6716
17605TIP3   OH274305   1.201   4.445   2.259 -0.8118 -0.3713  0.1457
17605TIP3    H174306   1.112   4.409   2.265 -0.1260 -2.2907 -0.5177
17605TIP3    H274307   1.257   4.368   2.249  0.9536  0.7920  0.6946
17606TIP3   OH274308   1.252   2.675  11.300 -0.2958 -0.4381 -0.5191
17606TIP3    H174309   1.176   2.616  11.302 -0.0474 -0.8526  2.7071
17606TIP3    H274310   1.320   2.626  11.345  0.7004  1.3859  0.0397
17607TIP3   OH274311   5.747   1.864  12.789  0.2916 -0.3646  0.1443
17607TIP3    H174312   5.829   1.896  12.749  0.3103 -0.1974  0.3135
17607TIP3    H274313   5.696   1.943  12.803  0.7867 -0.2787  1.5895
17608TIP3   OH274314   5.378   2.543  13.543  0.2226  0.5300 -0.4368
17608TIP3    H174315   5.320   2.467  13.551  1.9243 -0.8429 -0.3264
17608TIP3    H274316   5.444   2.530  13.611  1.9225  0.8001 -1.9540
17609TIP3   OH274317   2.884   0.740  14.617  0.8750  0.2679 -0.4185
17609TIP3    H174318   2.838   0.787  14.547 -0.4331 -1.1894 -0.5843
17609TIP3    H274319   2.815   0.715  14.678  1.7334 -0.2688  0.3552
17610TIP3   OH274320   2.455   0.250  16.508  0.4778 -0.0842 -0.1949
17610TIP3    H174321   2.361   0.259  16.525  0.3386  1.4163 -1.5732
17610TIP3    H274322   2.479   0.167  16.550 -1.5482 -0.7357 -0.2319
17611TIP3   OH274323   0.965   3.694  15.697  0.2820 -0.7825  0.2918
17611TIP3    H174324   1.002   3.676  15.610 -0.0511 -1.7345  0.3331
17611TIP3    H274325   1.032   3.665  15.758  0.1039 -1.0624  0.3550
17612TIP3   OH274326   3.229   5.545  14.918  0.0996 -0.3759 -0.1321
17612TIP3    H174327   3.223   5.515  15.009 -3.5716 -1.2947 -0.5444
17612TIP3    H274328   3.143   5.582  14.898  1.2920  1.2733 -2.8038
17613TIP3   OH274329   2.855   2.144  17.125 -0.2374  0.3489  0.3843
17613TIP3    H174330   2.848   2.091  17.205  2.2776  0.5351  0.8125
17613TIP3    H274331   2.892   2.084  17.060  0.4128  0.9383  0.1993
17614TIP3   OH274332   6.157   3.949  14.059  0.5578 -0.6536 -0.2383
17614TIP3    H174333   6.213   3.922  13.987 -0.9117 -3.7075 -0.3863
17614TIP3    H274334   6.068   3.934  14.028 -0.1698 -0.7905  1.7519
17615TIP3   OH274335   4.144   0.064   1.830 -0.0010  0.2884  0.4225
17615TIP3    H174336   4.124   0.117   1.753  2.9314 -0.4662 -1.0312
17615TIP3    H274337   4.188   0.125   1.890  2.5758 -0.1143 -0.8832
17616TIP3   OH274338   6.729   2.569   4.470  0.3387  0.5380  0.1566
17616TIP3    H174339   6.656   2.631   4.459 -0.1755 -0.4119 -2.3969
17616TIP3    H274340   6.805   2.616   4.436  0.3803  0.5116  0.2121
17617TIP3   OH274341   1.248   0.943  14.033 -0.6418  0.1198  0.1268
17617TIP3    H174342   1.250   1.035  14.005 -0.9275  0.6614  1.7572
17617TIP3    H274343   1.320   0.902  13.986  2.4840  2.2114  2.6708
17618TIP3   OH274344   5.096   6.200  14.118  0.2982 -0.0424  0.5243
17618TIP3    H174345   5.005   6.192  14.148  0.3870 -1.8499  0.3704
17618TIP3    H274346   5.146   6.146  14.178  0.9829 -0.7795 -0.6795
17619TIP3   OH274347   0.134   4.069  10.962  0.1174  0.1218 -0.1084
17619TIP3    H174348   0.085   4.126  10.902  0.6576 -0.2985 -0.9663
17619TIP3    H274349   0.149   4.124  11.040 -0.4815  0.7179 -0.4010
17620TIP3   OH274350   3.415   4.209   1.975  0.2039 -0.7021 -0.4629
17620TIP3    H174351   3.398   4.280   2.037 -1.2144  0.6691 -2.3002
17620TIP3    H274352   3.495   4.235   1.929  0.6077 -1.1360 -0.0145
17621TIP3   OH274353   1.233   0.578  14.637 -0.4175  0.3696  0.0295
17621TIP3    H174354   1.269   0.619  14.559 -1.5087  1.9424  0.2910
17621TIP3    H274355   1.185   0.502  14.605 -0.7484  0.9302 -0.8316
17622TIP3   OH274356   3.034   2.939   5.767 -0.1467 -0.0469 -0.3085
17622TIP3    H174357   2.941   2.917   5.768 -0.0436 -0.4799 -0.3085
17622TIP3    H274358   3.077   2.863   5.728  0.0710  0.7015 -1.6137
17623TIP3   OH274359   5.715   2.800   4.413  0.2313 -0.2173 -0.2301
17623TIP3    H174360   5.703   2.875   4.472 -0.3797  0.4329 -1.1465
17623TIP3    H274361   5.770   2.739   4.462 -1.9481 -0.6606  1.8846
17624TIP3   OH274362   4.552   0.471   3.994 -0.0871  0.3033  0.4987
17624TIP3    H174363   4.587   0.548   4.037 -2.9180  2.2598 -0.4224
17624TIP3    H274364   4.556   0.491   3.900 -1.8413 -0.1599  0.2872
17625TIP3   OH274365   3.990   2.444  16.144  0.5447  0.6165  0.2321
17625TIP3    H174366   3.926   2.401  16.200  1.2144  0.6364  1.0255
17625TIP3    H274367   4.016   2.522  16.193  2.2199 -0.1248  0.5831
17626TIP3   OH274368   6.254   3.041  12.057  0.4162  0.3258 -0.2110
17626TIP3    H174369   6.310   3.118  12.068 -1.2952  1.6044  0.0050
17626TIP3    H274370   6.263   3.017  11.965 -0.2655  1.8268 -0.6984
17627TIP3   OH274371   3.185   3.519   4.132  0.2538 -0.3341  0.1720
17627TIP3    H174372   3.264   3.530   4.078  0.5682 -0.1846  0.6586
17627TIP3    H274373   3.157   3.430   4.114  1.6811 -1.0998  1.4921
17628TIP3   OH274374   2.322   4.632  11.293  0.9912  0.5255  0.0622
17628TIP3    H174375   2.324   4.545  11.334  0.3064  0.7620  0.6195
17628TIP3    H274376   2.373   4.622  11.213  0.3393 -0.5754 -0.2325
17629TIP3   OH274377   5.703   5.133   4.585 -0.4778 -0.6538  0.0835
17629TIP3    H174378   5.757   5.080   4.644  0.0007  0.5124  0.7294
17629TIP3    H274379   5.614   5.104   4.601 -0.1877 -1.5459  0.1203
17630TIP3   OH274380   1.020   4.199   1.988  0.5410 -0.7535 -0.8605
17630TIP3    H174381   1.063   4.121   2.022 -0.4254 -1.2205 -0.6723
17630TIP3    H274382   0.960   4.226   2.057  0.5534 -0.0974 -1.0980
17631TIP3   OH274383   0.110   2.174  15.483  0.5733  0.0241  0.2521
17631TIP3    H174384   0.176   2.238  15.509  0.0847  0.3285  0.7710
17631TIP3    H274385   0.046   2.225  15.434 -0.2265  0.1105  1.3397
17632TIP3   OH274386   5.179   2.722  11.069  0.3407  0.0835  0.4311
17632TIP3    H174387   5.271   2.736  11.094  0.6227 -1.2311  0.1830
17632TIP3    H274388   5.138   2.808  11.081  1.8378  0.9824 -0.5088
17633TIP3   OH274389   6.680   0.815   2.001  0.2487 -0.7471  0.6693
17633TIP3    H174390   6.765   0.774   2.020  0.4408 -0.8372 -0.3292
17633TIP3    H274391   6.645   0.766   1.927 -0.6715 -0.6857  1.0495
17634TIP3   OH274392   3.815   5.516  16.777 -0.3313 -0.3601  0.1924
17634TIP3    H174393   3.763   5.475  16.708  1.6384 -1.0543 -0.9982
17634TIP3    H274394   3.769   5.597  16.798 -0.5672  0.3570 -2.6712
17635TIP3   OH274395   3.667   0.059  14.655 -0.4188 -0.0492  0.0641
17635TIP3    H174396   3.713   0.049  14.738 -0.6231  0.7377  0.2745
17635TIP3    H274397   3.593  -0.002  14.661  1.5845 -2.8053 -1.0440
17636TIP3   OH274398   4.373   6.766   2.154  0.2200 -0.2433 -0.1674
17636TIP3    H174399   4.382   6.673   2.174  1.7881  0.1926  1.4401
17636TIP3    H274400   4.445   6.808   2.201 -0.4762  1.8038 -0.7946
17637TIP3   OH274401   6.764   6.205   2.281  1.0754 -0.0449 -1.0460
17637TIP3    H174402   6.788   6.293   2.312  0.0401  0.1611 -0.7937
17637TIP3    H274403   6.792   6.146   2.351 -2.6203  0.5382  1.1679
17638TIP3   OH274404   3.684   4.682   3.189  0.7197 -0.1685 -0.4603
17638TIP3    H174405   3.722   4.744   3.128  0.1524  1.6289  0.9242
17638TIP3    H274406   3.616   4.637   3.139  0.8795  0.5999 -1.4003
17639TIP3   OH274407   4.551   3.503   0.929  0.1579  0.1068  0.2097
17639TIP3    H174408   4.583   3.581   0.885 -0.0564  0.7276  1.1411
17639TIP3    H274409   4.468   3.529   0.970 -0.8119 -1.0684 -0.8969
17640TIP3   OH274410   2.180   3.746   2.916 -0.4883  0.5836 -0.1543
17640TIP3    H174411   2.148   3.741   3.006  0.5791 -0.9968  0.1779
17640TIP3    H274412   2.275   3.760   2.925 -0.2952 -0.0534 -0.9969
17641TIP3   OH274413   6.745   0.153   2.948  0.1541  0.1409 -0.1027
17641TIP3    H174414   6.650   0.158   2.935 -0.2448 -0.3921  2.0793
17641TIP3    H274415   6.763   0.212   3.021  1.5779  0.5125 -0.7184
17642TIP3   OH274416   4.059   2.152   1.286  0.3239  0.6376  0.1137
17642TIP3    H174417   3.976   2.200   1.286 -0.0594  0.0808 -1.6515
17642TIP3    H274418   4.126   2.219   1.294 -0.2710  1.1166  1.3655
17643TIP3   OH274419   4.468   6.219  11.942 -0.4785 -0.1113  0.0844
17643TIP3    H174420   4.547   6.274  11.947  0.0883 -1.0013  2.0871
17643TIP3    H274421   4.407   6.270  11.890 -0.2478  2.8055  2.3558
17644TIP3   OH274422   5.724   4.872   0.896  0.1261  0.4310  0.1963
17644TIP3    H174423   5.631   4.883   0.915  0.0195  0.6527 -0.4135
17644TIP3    H274424   5.765   4.865   0.981 -0.4517  0.3342  0.4749
17645TIP3   OH274425   2.181   5.412   5.469  0.2471 -0.6935 -0.5366
17645TIP3    H174426   2.126   5.370   5.535  0.8638 -1.7721 -0.6728
17645TIP3    H274427   2.269   5.379   5.487  0.2181 -2.2531 -2.7877
17646TIP3   OH274428   5.636   3.439  16.480  0.4800  0.1236 -0.2843
17646TIP3    H174429   5.723   3.443  16.442  0.3803 -0.7368 -0.6212
17646TIP3    H274430   5.579   3.413  16.408 -0.2420  1.7803 -0.3423
17647TIP3   OH274431   4.014   0.895   4.831 -0.5690 -0.1054 -0.2340
17647TIP3    H174432   4.079   0.907   4.900 -1.1227 -1.5115  0.5753
17647TIP3    H274433   3.976   0.982   4.818 -0.1500  0.2677  0.9239
17648TIP3   OH274434   6.426   4.840   2.181  0.0479  0.0662 -0.1845
17648TIP3    H174435   6.410   4.757   2.226  0.6071  0.2661  0.4026
17648TIP3    H274436   6.376   4.904   2.230  0.3619  0.2241 -0.0646
17649TIP3   OH274437   5.578   1.592   2.388 -0.0777  0.0475 -0.5009
17649TIP3    H174438   5.551   1.501   2.397 -1.9034  0.4646 -1.4032
17649TIP3    H274439   5.505   1.635   2.344  0.7062  1.9735 -0.0315
17650TIP3   OH274440   2.000   5.739   2.755 -0.2600 -0.5275 -0.1551
17650TIP3    H174441   1.915   5.780   2.762 -0.3911 -0.9711  0.9900
17650TIP3    H274442   1.984   5.658   2.706 -0.3701 -0.2772 -0.5349
17651TIP3   OH274443   5.032   0.107   3.039 -0.1467 -0.0434 -0.3423
17651TIP3    H174444   5.074   0.185   3.004  1.6363 -0.8449 -0.1109
17651TIP3    H274445   4.938   0.120   3.023  0.3174  1.0887 -2.3797
17652TIP3   OH274446   4.398   6.631  11.099  0.4260  0.4812  0.3709
17652TIP3    H174447   4.484   6.660  11.130  1.1406 -0.2821 -0.8420
17652TIP3    H274448   4.416   6.552  11.049 -0.9640  0.4536 -0.1116
17653TIP3   OH274449   2.860   2.897  15.034  0.2373  0.5460 -0.2071
17653TIP3    H174450   2.821   2.984  15.021 -0.1396  0.8143  2.2639
17653TIP3    H274451   2.950   2.907  15.003 -0.3428  1.2173 -1.8076
17654TIP3   OH274452   5.228   2.034   2.730 -0.7428 -0.1651 -0.5844
17654TIP3    H174453   5.163   2.069   2.669  0.2989  0.1680 -1.5319
17654TIP3    H274454   5.188   1.953   2.763 -1.1895 -0.5419 -1.9869
17655TIP3   OH274455   5.745   1.141  10.866 -0.4364 -0.0547 -0.1433
17655TIP3    H174456   5.710   1.202  10.801 -0.5131  0.3556  0.2795
17655TIP3    H274457   5.713   1.056  10.838  0.1025  0.0184 -1.0394
17656TIP3   OH274458   4.159   0.579   0.103 -0.3036 -0.5034  0.2872
17656TIP3    H174459   4.250   0.594   0.077 -0.7717  1.6964 -0.3555
17656TIP3    H274460   4.163   0.570   0.198  0.6677 -1.3720  0.1858
17657TIP3   OH274461   5.169   5.032   5.075 -0.2386  0.3417  0.3347
17657TIP3    H174462   5.189   5.092   5.003 -1.3073  0.5771  0.2262
17657TIP3    H274463   5.255   5.002   5.105  0.3050  1.5946  0.1116
17658TIP3   OH274464   3.643   5.605  17.171 -0.2472  0.4563 -0.3450
17658TIP3    H174465   3.625   5.689  17.214 -0.0725 -0.2293  1.1158
17658TIP3    H274466   3.664   5.629  17.080 -0.3326  1.9723  0.0038
17659TIP3   OH274467   6.795   4.408  14.389  0.5795  0.1968  0.3775
17659TIP3    H174468   6.859   4.365  14.332  0.8284  0.0971  0.7339
17659TIP3    H274469   6.731   4.339  14.408  0.9517 -0.0060  0.9079
17660TIP3   OH274470   6.142   1.540   5.632 -0.0303 -0.0204 -0.5104
17660TIP3    H174471   6.156   1.588   5.551  2.2796 -1.2485 -0.9287
17660TIP3    H274472   6.116   1.607   5.696 -0.8324  1.1259 -1.9806
17661TIP3   OH274473   1.023   4.212   4.456  0.1620 -0.3225  0.4657
17661TIP3    H174474   1.044   4.305   4.447 -0.3344 -0.4071 -2.2710
17661TIP3    H274475   0.971   4.207   4.536  0.9511  1.5983  1.1559
17662TIP3   OH274476   5.601   3.909   0.076  0.1842  0.1445 -0.1356
17662TIP3    H174477   5.531   3.973   0.085  1.3540  1.5571 -0.6788
17662TIP3    H274478   5.609   3.895  -0.019  0.9994  0.4459 -0.1223
17663TIP3   OH274479   3.547   6.109  16.951 -0.6693 -0.5158 -0.6330
17663TIP3    H174480   3.461   6.078  16.922 -0.1171 -0.5747 -2.3401
17663TIP3    H274481   3.608   6.043  16.918 -0.0306 -1.1106  1.5793
17664TIP3   OH274482   6.179   1.704   4.441  0.2180  0.2971 -0.0351
17664TIP3    H174483   6.148   1.723   4.352  1.4962 -0.2939 -0.6344
17664TIP3    H274484   6.168   1.609   4.451  2.6860 -0.1283 -0.6710
17665TIP3   OH274485   4.505   2.728  15.629  0.1632  0.1848 -0.5009
17665TIP3    H174486   4.436   2.671  15.664 -1.5586  2.4079 -0.0576
17665TIP3    H274487   4.460   2.810  15.608  2.4270  1.2230 -1.6235
17666TIP3   OH274488   5.117   6.246   1.470  0.2913  0.3568  0.2283
17666TIP3    H174489   5.132   6.325   1.418 -1.1974 -0.5156 -1.6489
17666TIP3    H274490   5.170   6.179   1.428 -1.6533 -0.5850 -0.8199
17667TIP3   OH274491   4.381   5.048  13.018  0.2254  0.1637 -0.2963
17667TIP3    H174492   4.319   5.082  13.082  0.4732  0.6286 -0.2961
17667TIP3    H274493   4.341   4.968  12.985 -0.3065  0.3848 -0.1911
17668TIP3   OH274494   6.623   0.569   3.581 -0.2231 -0.2430  0.2844
17668TIP3    H174495   6.605   0.477   3.598 -0.7806 -0.1208  0.3742
17668TIP3    H274496   6.669   0.599   3.659 -1.5390 -0.0340  1.0209
17669TIP3   OH274497   0.309   1.190  14.711  0.4815  0.2497 -0.4316
17669TIP3    H174498   0.372   1.210  14.641  0.9977  1.1001  0.2498
17669TIP3    H274499   0.337   1.104  14.744 -0.8878 -1.0738 -2.4486
17670TIP3   OH274500   3.822   6.069  11.398  0.5698 -0.6251  0.2905
17670TIP3    H174501   3.867   6.140  11.444 -0.1862 -0.1602  0.3209
17670TIP3    H274502   3.891   6.004  11.382  0.7990 -0.9342  2.3343
17671TIP3   OH274503   1.796   2.427  13.226  0.7344  0.6494 -0.5012
17671TIP3    H174504   1.758   2.394  13.308 -0.8836  2.1089 -0.6116
17671TIP3    H274505   1.764   2.517  13.219  1.7550  0.9276 -2.1946
17672TIP3   OH274506   2.479   0.355   6.536 -0.2807 -0.5698 -0.5364
17672TIP3    H174507   2.574   0.356   6.527 -0.1669 -1.2502  0.4321
17672TIP3    H274508   2.456   0.446   6.554  0.5752 -0.8642  2.5435
17673TIP3   OH274509   6.786   6.590   6.244 -0.1510 -0.5928  0.0571
17673TIP3    H174510   6.762   6.504   6.279  0.2905 -0.8343 -0.2294
17673TIP3    H274511   6.702   6.634   6.232 -0.3299 -0.6026  1.1543
17674TIP3   OH274512   0.458   1.858  17.064 -0.4296 -0.3697  0.5860
17674TIP3    H174513   0.467   1.765  17.044  0.9265 -0.0050 -0.7573
17674TIP3    H274514   0.467   1.864  17.159 -1.3684 -1.6737  0.7820
17675TIP3   OH274515   5.891   6.749   3.517  0.2505  0.3083  0.4256
17675TIP3    H174516   5.868   6.807   3.444  1.9237  1.0691  0.4525
17675TIP3    H274517   5.894   6.807   3.593 -0.8198 -0.3612  1.0042
17676TIP3   OH274518   2.496   5.654   2.947 -0.1672  0.5062 -0.1267
17676TIP3    H174519   2.404   5.643   2.968 -0.3657  0.8415 -0.8007
17676TIP3    H274520   2.502   5.742   2.911  0.8254  1.4399  2.0933
17677TIP3   OH274521   3.248   4.348   2.552  0.0797  0.5481  0.5244
17677TIP3    H174522   3.240   4.394   2.468  1.4036 -0.4341 -0.1806
17677TIP3    H274523   3.158   4.326   2.576 -0.2569 -0.2436 -1.2862
17678TIP3   OH274524   4.322   1.800  15.379 -0.1198 -0.6019 -0.1202
17678TIP3    H174525   4.266   1.876  15.396 -0.4352 -0.3782 -1.9168
17678TIP3    H274526   4.312   1.745  15.457 -0.9733  0.5461  0.6223
17679TIP3   OH274527   6.426   4.828   2.544  0.0233  0.3092 -0.2083
17679TIP3    H174528   6.443   4.841   2.638 -0.5210 -0.4533  0.0068
17679TIP3    H274529   6.379   4.906   2.517  0.0246  0.4521  0.2001
17680TIP3   OH274530   3.676   5.801   1.490  0.3640 -0.4118  0.1524
17680TIP3    H174531   3.584   5.796   1.464  0.1812  1.2050  0.4210
17680TIP3    H274532   3.689   5.723   1.544 -0.6356 -1.0591 -0.5037
17681TIP3   OH274533   5.229   2.453  11.005  1.2609 -0.0941 -0.3511
17681TIP3    H174534   5.185   2.438  11.089  1.7038 -0.9368 -0.2653
17681TIP3    H274535   5.248   2.547  11.004  1.3603 -0.1002  0.5429
17682TIP3   OH274536   1.007   0.740  10.395 -0.4842 -0.7270 -0.6572
17682TIP3    H174537   0.937   0.745  10.330 -1.4255  0.2034  0.3976
17682TIP3    H274538   1.086   0.726  10.343 -1.1462  0.4723 -2.0603
17683TIP3   OH274539   4.446   0.635  11.508 -0.4010  0.5149  0.3747
17683TIP3    H174540   4.453   0.571  11.579  0.8241  0.4234  0.1863
17683TIP3    H274541   4.536   0.660  11.489 -0.8683  3.1098  1.1601
17684TIP3   OH274542   6.129   5.714  13.045 -0.3690  0.4288 -0.0493
17684TIP3    H174543   6.068   5.785  13.067 -1.2339 -0.5320  0.7724
17684TIP3    H274544   6.159   5.735  12.957 -2.5743  0.4905 -0.8585
17685TIP3   OH274545   1.865   3.980   5.958 -0.1879  0.2815 -0.1008
17685TIP3    H174546   1.922   3.918   6.003 -1.9927 -0.0848  1.8763
17685TIP3    H274547   1.914   4.062   5.958  1.4256 -0.6398 -0.9557
17686TIP3   OH274548   5.519   1.520  17.082 -0.0486 -0.3976  0.3539
17686TIP3    H174549   5.521   1.552  16.992  0.1179 -1.3892 -0.0075
17686TIP3    H274550   5.605   1.544  17.118 -0.3781  0.6266  0.4845
17687TIP3   OH274551   1.561   4.697   1.290 -0.1327  0.0695 -0.1630
17687TIP3    H174552   1.493   4.763   1.274 -0.7356 -0.5954 -0.3972
17687TIP3    H274553   1.517   4.629   1.341  0.6760  0.1857  0.7176
17688TIP3   OH274554   2.266   4.520  13.584 -0.4546  0.2184 -0.0804
17688TIP3    H174555   2.280   4.591  13.647 -1.3404 -0.9307  1.4813
17688TIP3    H274556   2.352   4.479  13.576 -0.2608  0.5751  0.1119
17689TIP3   OH274557   6.258   1.971  15.310 -0.0486  0.1290 -0.7879
17689TIP3    H174558   6.283   1.977  15.402 -1.8734 -0.1750 -0.2467
17689TIP3    H274559   6.327   1.916  15.271 -0.4951 -1.7734  0.9133
17690TIP3   OH274560   5.115   4.129  13.381  0.2017 -0.0365 -0.3409
17690TIP3    H174561   5.179   4.187  13.340 -0.2548 -0.1553 -1.2401
17690TIP3    H274562   5.088   4.069  13.311  0.0380 -0.7981  0.3542
17691TIP3   OH274563   1.358   5.856  11.371 -0.0622 -0.4153  0.3767
17691TIP3    H174564   1.346   5.786  11.308  0.9959 -1.1810  0.9926
17691TIP3    H274565   1.442   5.895  11.348 -0.6517  0.7003  0.0179
17692TIP3   OH274566   5.961   3.832   0.292 -0.0233 -1.1088 -0.3180
17692TIP3    H174567   5.999   3.763   0.236  1.6949  0.3905 -1.0920
17692TIP3    H274568   5.921   3.892   0.230  0.1617 -0.4428  0.2062
17693TIP3   OH274569   5.150   1.333  13.237  0.2482 -0.4069 -0.0254
17693TIP3    H174570   5.083   1.334  13.305 -0.6570  0.5680 -0.9132
17693TIP3    H274571   5.206   1.259  13.261  0.1071  0.0566  1.9105
17694TIP3   OH274572   3.042   5.496  11.450  0.5168  0.2680 -0.3075
17694TIP3    H174573   3.136   5.491  11.432  0.1243  0.1480 -2.6727
17694TIP3    H274574   3.001   5.495  11.364 -1.6106  1.7092  0.5967
17695TIP3   OH274575   4.933   3.124  16.051 -0.3165  0.1496  0.1367
17695TIP3    H174576   5.023   3.132  16.019 -0.0697  1.0899  0.9910
17695TIP3    H274577   4.934   3.044  16.104 -0.8420 -1.6652 -2.4299
17696TIP3   OH274578   2.038   3.355  12.654  0.1646 -0.1163 -0.0032
17696TIP3    H174579   1.966   3.416  12.635  0.5022  0.5890  0.9182
17696TIP3    H274580   2.075   3.386  12.736  0.2697 -1.6577  0.5725
17697TIP3   OH274581   1.730   2.259  16.207 -0.0701  0.3640 -0.0906
17697TIP3    H174582   1.645   2.270  16.165 -0.8377 -0.1640  1.2757
17697TIP3    H274583   1.777   2.340  16.187 -1.5773  1.4702  0.6686
17698TIP3   OH274584   1.514   3.188   3.773 -0.6245 -0.0501 -0.1400
17698TIP3    H174585   1.485   3.101   3.745  1.1321 -0.5533 -0.4898
17698TIP3    H274586   1.585   3.171   3.835 -0.0346  1.1332 -0.4640
17699TIP3   OH274587   5.552   4.352  15.469 -0.6868 -0.0060  0.0045
17699TIP3    H174588   5.593   4.353  15.383 -1.2538 -1.9448 -0.3197
17699TIP3    H274589   5.625   4.358  15.531 -0.1544 -0.2527 -0.5917
17700TIP3   OH274590   3.538   6.784   1.609 -0.4968  0.3682  0.3910
17700TIP3    H174591   3.475   6.754   1.543  0.5499 -1.1832  0.0471
17700TIP3    H274592   3.538   6.716   1.675 -0.3606  1.1536  1.2257
17701TIP3   OH274593   0.853   1.770   3.349 -0.2663  0.0734 -0.2827
17701TIP3    H174594   0.870   1.734   3.436 -2.5059 -1.4034 -0.3613
17701TIP3    H274595   0.885   1.860   3.353  0.7833 -0.3393  1.6656
17702TIP3   OH274596   5.482   1.564   1.699  0.0645  0.3114  0.2053
17702TIP3    H174597   5.440   1.557   1.613 -2.1247 -1.5250  1.3087
17702TIP3    H274598   5.560   1.510   1.692  0.8602  1.5508 -1.0869
17703TIP3   OH274599   6.154   6.189   4.474  0.0117 -0.5243 -0.5619
17703TIP3    H174600   6.172   6.096   4.461 -3.9333 -1.1505 -3.5033
17703TIP3    H274601   6.191   6.231   4.397 -0.4203 -0.0404 -0.5092
17704TIP3   OH274602   4.618   5.284  15.777 -0.1218 -0.2448  0.4074
17704TIP3    H174603   4.600   5.378  15.767  0.6974 -0.1537 -0.3826
17704TIP3    H274604   4.713   5.279  15.786  0.1823 -1.1683 -2.2967
17705TIP3   OH274605   0.175   1.728  15.433  0.6105 -0.2526 -0.4122
17705TIP3    H174606   0.144   1.714  15.522 -0.2526  0.1711 -0.6370
17705TIP3    H274607   0.265   1.758  15.443  0.6586 -0.6084  0.2923
17706TIP3   OH274608   4.301   0.695   5.232  0.2065 -0.3373  0.4943
17706TIP3    H174609   4.225   0.661   5.280 -1.8118  0.1857 -2.0998
17706TIP3    H274610   4.279   0.786   5.212  0.7696 -0.6008 -1.6114
17707TIP3   OH274611   4.543   1.939   5.423 -0.6982 -0.6585  0.4348
17707TIP3    H174612   4.492   1.999   5.478  2.2653  2.7051 -0.0916
17707TIP3    H274613   4.603   1.896   5.484 -0.8862 -0.8941  0.4547
17708TIP3   OH274614   1.503   3.067  15.497  0.5154  0.0293 -0.0354
17708TIP3    H174615   1.530   3.078  15.588 -1.4679 -2.0808  0.9175
17708TIP3    H274616   1.552   2.991  15.466 -0.2868 -0.5013 -0.0368
17709TIP3   OH274617   5.183   5.886   3.297  0.0540  0.0690  0.2170
17709TIP3    H174618   5.127   5.921   3.228  1.5059 -0.5172 -1.3417
17709TIP3    H274619   5.235   5.819   3.253  1.4026  0.0340  1.7754
17710TIP3   OH274620   5.162   2.073   4.547  0.1775 -0.4211  0.3493
17710TIP3    H174621   5.101   2.094   4.618  2.0602  1.4000  1.5475
17710TIP3    H274622   5.220   2.006   4.584  0.0594 -0.7909 -0.1253
17711TIP3   OH274623   0.310   0.970   5.843  0.6687  1.0145 -0.1607
17711TIP3    H174624   0.235   1.021   5.873 -0.2317  0.0608 -0.7135
17711TIP3    H274625   0.386   1.021   5.871 -0.1708  1.9318  0.5511
17712TIP3   OH274626   2.280   0.353   2.948 -0.5644  0.6913 -0.9316
17712TIP3    H174627   2.269   0.297   3.025  1.3444  0.2178 -0.9665
17712TIP3    H274628   2.336   0.302   2.889 -1.1131  1.4977 -2.2003
17713TIP3   OH274629   5.665   5.326  13.055 -0.2871 -0.8121 -0.3637
17713TIP3    H174630   5.730   5.258  13.072  1.2307 -0.3074 -3.5901
17713TIP3    H274631   5.712   5.408  13.064 -1.1120 -0.3201 -0.3960
17714TIP3   OH274632   6.024   2.717   1.161 -0.4006 -0.0545  0.4005
17714TIP3    H174633   6.054   2.636   1.204  0.3477 -0.4474 -0.8170
17714TIP3    H274634   5.936   2.696   1.130 -0.4809 -0.1646  0.6957
17715TIP3   OH274635   3.384   4.309   6.158 -0.0380  0.3897 -0.3809
17715TIP3    H174636   3.453   4.333   6.219 -1.1314 -0.8322  1.4394
17715TIP3    H274637   3.305   4.352   6.192 -0.6996 -0.3979 -0.8644
17716TIP3   OH274638   6.294   3.278  10.173 -0.5324 -0.3289  0.0974
17716TIP3    H174639   6.246   3.204  10.210 -0.9384 -0.3685 -0.4958
17716TIP3    H274640   6.386   3.255  10.187 -0.6655  0.0092  1.7339
17717TIP3   OH274641   0.360   5.718  14.157 -0.7471 -0.0106  0.6373
17717TIP3    H174642   0.365   5.778  14.231  1.2136  0.2381  0.3646
17717TIP3    H274643   0.429   5.653  14.174 -0.0570  0.2116 -1.0634
17718TIP3   OH274644   3.163   3.652  12.808 -0.2824  0.3940  0.0977
17718TIP3    H174645   3.122   3.689  12.886 -2.0584  0.7915 -0.9711
17718TIP3    H274646   3.091   3.613  12.758  0.4552  1.7700 -2.2110
17719TIP3   OH274647   4.933   4.684  16.774  0.0139  0.1904 -0.0891
17719TIP3    H174648   4.980   4.763  16.802 -0.4546  0.2691  0.5018
17719TIP3    H274649   4.989   4.645  16.707  1.9198 -0.7700  1.9313
17720TIP3   OH274650   5.114   4.300   1.378 -0.1284 -0.7375  0.2345
17720TIP3    H174651   5.170   4.358   1.326 -1.3935  0.2106 -0.1142
17720TIP3    H274652   5.161   4.290   1.461  0.7317 -0.2854 -0.1783
17721TIP3   OH274653   5.167   3.139   1.322  0.4140  1.0748 -0.1866
17721TIP3    H174654   5.176   3.044   1.328  0.4732  1.0906 -0.0180
17721TIP3    H274655   5.211   3.172   1.400  0.4326  1.2435 -0.2684
17722TIP3   OH274656   1.847   6.038   2.535 -0.0905  0.1025  0.4064
17722TIP3    H174657   1.840   6.098   2.461  0.2545 -0.0212  0.2719
17722TIP3    H274658   1.922   5.982   2.514  1.7196  1.7609  2.0577
17723TIP3   OH274659   5.218   1.537  12.860  0.3519 -0.1336 -0.1877
17723TIP3    H174660   5.292   1.567  12.808  0.0224 -1.0651 -1.2473
17723TIP3    H274661   5.229   1.580  12.945  1.1124  1.1385 -0.8943
17724TIP3   OH274662   4.015   1.801  10.556  0.3674  0.1257  0.3879
17724TIP3    H174663   4.073   1.875  10.541  0.4325 -0.1468 -0.8611
17724TIP3    H274664   4.064   1.742  10.613  1.3703 -0.1342 -0.7098
17725TIP3   OH274665   0.324   6.161  15.144  0.4725 -0.2767  0.0095
17725TIP3    H174666   0.290   6.103  15.213  0.8922  0.1289  0.5610
17725TIP3    H274667   0.296   6.249  15.170 -0.1711 -0.2127 -0.8314
17726TIP3   OH274668   4.665   2.229   3.072 -0.6466 -0.0532  0.4778
17726TIP3    H174669   4.628   2.147   3.039 -0.2519 -1.0787  2.3854
17726TIP3    H274670   4.721   2.202   3.145  0.5430  1.8246  0.3146
17727TIP3   OH274671   4.962   5.934   1.289  0.0325 -0.4034  0.6175
17727TIP3    H174672   4.980   5.946   1.195 -1.3601  0.2509  0.4149
17727TIP3    H274673   5.042   5.963   1.332  0.3501  0.1767 -0.3299
17728TIP3   OH274674   3.804   3.591   2.597 -0.3986 -0.3194  0.2165
17728TIP3    H174675   3.742   3.635   2.655 -1.3186 -0.0740 -0.9131
17728TIP3    H274676   3.848   3.527   2.653 -2.6005 -1.4402  0.7981
17729TIP3   OH274677   5.180   0.478   1.160 -0.2219  0.0001  0.1390
17729TIP3    H174678   5.270   0.488   1.129  0.3763  0.6539  1.9794
17729TIP3    H274679   5.137   0.560   1.135 -0.2224 -0.1715 -0.4354
17730TIP3   OH274680   0.642   5.533   5.573 -0.2900  0.3593  0.0794
17730TIP3    H174681   0.572   5.594   5.554  0.2371  1.1518  0.6200
17730TIP3    H274682   0.601   5.462   5.622 -0.8960  0.2990 -0.5129
17731TIP3   OH274683   4.057   0.283   0.318 -0.3989 -0.1842 -0.4820
17731TIP3    H174684   4.101   0.354   0.364  0.7732 -0.8918 -0.4621
17731TIP3    H274685   4.109   0.270   0.238 -2.4546  1.1010 -2.1294
17732TIP3   OH274686   0.792   2.365  11.102  0.7449 -0.2452  0.1781
17732TIP3    H174687   0.810   2.356  11.196  0.3731  1.3619  0.4207
17732TIP3    H274688   0.879   2.369  11.061  0.9409  1.1293  0.6864
17733TIP3   OH274689   3.872   2.980   0.143  0.4535 -0.0597 -0.3820
17733TIP3    H174690   3.933   2.998   0.214  2.0088  2.0975 -2.1360
17733TIP3    H274691   3.925   2.940   0.075 -0.2232  1.0446 -1.6176
17734TIP3   OH274692   2.774   2.710   4.736 -0.3001 -0.4329  0.0786
17734TIP3    H174693   2.809   2.788   4.693  1.3164 -1.6550 -0.9395
17734TIP3    H274694   2.751   2.740   4.824  1.1008  1.0036  0.0175
17735TIP3   OH274695   5.790   5.197   0.531  0.2548 -0.2900  0.3902
17735TIP3    H174696   5.739   5.199   0.612 -0.7265 -1.5164 -0.1583
17735TIP3    H274697   5.730   5.230   0.464  0.4430 -0.9671 -0.1251
17736TIP3   OH274698   5.575   6.780  13.367  0.4503 -0.2691 -0.1207
17736TIP3    H174699   5.570   6.834  13.446 -1.1262  0.0660 -0.4279
17736TIP3    H274700   5.520   6.704  13.386 -0.7177  0.2772 -1.2409
17737TIP3   OH274701   5.241   4.615  13.717  0.4133  0.0970  0.4142
17737TIP3    H174702   5.160   4.565  13.704  0.0555  0.8295 -0.3220
17737TIP3    H274703   5.287   4.568  13.786  0.2288 -1.4109 -0.4252
17738TIP3   OH274704   3.918   0.204  15.101 -0.4765  0.2376 -0.2965
17738TIP3    H174705   3.914   0.289  15.144  0.6710 -0.3507  1.0619
17738TIP3    H274706   3.851   0.151  15.144 -1.5701  0.5762 -1.5149
17739TIP3   OH274707   2.991   5.885  16.168  0.1510 -0.6185  0.3065
17739TIP3    H174708   3.078   5.926  16.169 -0.8347  1.7981 -1.6904
17739TIP3    H274709   2.947   5.922  16.245 -0.1720  0.9149 -0.5650
17740TIP3   OH274710   5.967   3.815  14.772  0.2981 -0.3893  0.3814
17740TIP3    H174711   5.990   3.741  14.716  0.0996 -0.0852 -0.1093
17740TIP3    H274712   6.029   3.883  14.747 -1.1660  0.4868 -1.0539
17741TIP3   OH274713   6.081   2.501   3.726  0.6542 -0.2766  0.2967
17741TIP3    H174714   6.067   2.566   3.795 -0.5778  0.5550 -0.6790
17741TIP3    H274715   5.999   2.450   3.724  0.5357 -0.0828 -0.7266
17742TIP3   OH274716   6.265   1.530  17.165  0.3518 -0.0307 -0.0306
17742TIP3    H174717   6.310   1.571  17.091 -2.1915  0.8440 -1.1965
17742TIP3    H274718   6.235   1.604  17.218 -0.3513 -0.5641  0.3152
17743TIP3   OH274719   5.126   1.517  14.942  0.2041 -0.0809 -0.0775
17743TIP3    H174720   5.096   1.458  15.011 -0.1114 -1.5218 -1.3968
17743TIP3    H274721   5.129   1.603  14.984  1.7034 -1.1462  2.2194
17744TIP3   OH274722   6.822   4.079   0.795  0.0349 -0.3577  0.0491
17744TIP3    H174723   6.817   4.173   0.780  3.9066 -0.1443 -1.0623
17744TIP3    H274724   6.820   4.069   0.890 -0.2253  0.8590  0.1848
17745TIP3   OH274725   4.133   2.748   4.364  0.0395  0.8450 -0.6337
17745TIP3    H174726   4.042   2.771   4.386  0.7054  2.0604  1.0283
17745TIP3    H274727   4.174   2.730   4.448  1.3407  0.1742 -1.3789
17746TIP3   OH274728   1.283   0.789   0.695 -0.4725 -0.1856 -0.1514
17746TIP3    H174729   1.352   0.772   0.759  0.5056 -1.1930 -1.4315
17746TIP3    H274730   1.253   0.878   0.715  1.1902  0.2813  0.4309
17747TIP3   OH274731   4.957   6.540  15.799 -0.0594  0.1214  0.8804
17747TIP3    H174732   4.910   6.594  15.863 -1.4861 -0.7427  0.6222
17747TIP3    H274733   5.011   6.602  15.750 -0.2110  1.0268  1.8215
17748TIP3   OH274734   3.092   5.970   3.280  0.5231  0.0279 -0.4254
17748TIP3    H174735   3.096   6.060   3.314  0.5529  0.7006 -2.1354
17748TIP3    H274736   3.067   5.980   3.188 -1.9842 -1.8429 -0.0672
17749TIP3   OH274737   1.889   0.224  16.404 -0.4581  0.2766 -0.5835
17749TIP3    H174738   1.922   0.195  16.489 -1.1805 -0.5274 -0.5542
17749TIP3    H274739   1.798   0.192  16.402 -1.2443  2.3651 -0.6613
17750TIP3   OH274740   0.835   0.349  11.150 -0.8262  0.3268 -0.5175
17750TIP3    H174741   0.880   0.395  11.079 -1.3465  0.3901 -0.8112
17750TIP3    H274742   0.760   0.307  11.108 -0.4330 -0.6906 -0.2274
17751TIP3   OH274743   0.444   0.882   5.181 -0.3576 -0.5868  0.6160
17751TIP3    H174744   0.442   0.955   5.119  1.7623  0.0350  1.2097
17751TIP3    H274745   0.485   0.918   5.259 -1.6809 -1.7434  1.8877
17752TIP3   OH274746   4.607   0.182  13.959 -0.7938 -0.1561 -0.2545
17752TIP3    H174747   4.551   0.247  14.002 -0.4897 -0.5443  0.7530
17752TIP3    H274748   4.695   0.218  13.965 -0.7347 -0.2756 -0.4244
17753TIP3   OH274749   0.888   2.628  11.596 -0.2412 -0.0016 -0.4965
17753TIP3    H174750   0.955   2.694  11.614 -0.0701 -0.2809 -0.0769
17753TIP3    H274751   0.900   2.607  11.503  1.9462 -1.8381  0.0903
17754TIP3   OH274752   0.013   2.698  12.741 -0.5817  0.0422 -0.4105
17754TIP3    H174753   0.030   2.675  12.833  0.7019  0.3411 -0.5630
17754TIP3    H274754   0.086   2.660  12.692 -1.7854 -1.0121 -1.4655
17755TIP3   OH274755   5.932   1.281  11.814 -0.6346 -0.3031  0.0234
17755TIP3    H174756   5.900   1.366  11.782 -0.5746 -0.2578  0.0817
17755TIP3    H274757   5.939   1.227  11.735  0.2860  0.0583 -0.1587
17756TIP3   OH274758   2.191   3.516   3.565 -0.3399 -0.6664  0.2609
17756TIP3    H174759   2.218   3.463   3.640  1.1164 -1.3357 -0.6813
17756TIP3    H274760   2.102   3.543   3.585 -0.2923 -1.5458  1.8251
17757TIP3   OH274761   2.411   0.900  14.890  0.3782  0.3000  0.3630
17757TIP3    H174762   2.385   0.985  14.853 -0.0715  0.5472  1.2021
17757TIP3    H274763   2.328   0.855  14.905  0.6614 -0.7541 -1.0970
17758TIP3   OH274764   6.007   2.273  13.996 -0.2928 -0.0965  0.4136
17758TIP3    H174765   5.997   2.178  13.998  2.3353 -0.5505 -1.4778
17758TIP3    H274766   6.031   2.297  14.086  1.8356 -1.7169  0.3492
17759TIP3   OH274767   3.542   1.328  15.256  0.2836 -0.6986  0.1091
17759TIP3    H174768   3.632   1.296  15.249  0.7483  0.9609 -3.3302
17759TIP3    H274769   3.550   1.423  15.263 -1.0675 -0.2102 -3.0711
17760TIP3   OH274770   0.004   5.271  15.726 -0.4081  0.0657  0.3172
17760TIP3    H174771  -0.056   5.298  15.657 -0.3473 -0.4360  0.0608
17760TIP3    H274772  -0.053   5.247  15.799 -0.6181 -1.5883 -0.3358
17761TIP3   OH274773   6.213   6.244   6.141  0.4347  0.0059  0.8377
17761TIP3    H174774   6.295   6.294   6.140  1.2787 -1.3290 -0.7567
17761TIP3    H274775   6.228   6.171   6.081 -1.7999 -0.5035  0.8055
17762TIP3   OH274776   3.634   5.409  15.485  0.1042  1.4284 -0.0821
17762TIP3    H174777   3.617   5.495  15.524 -0.1514  1.3086  0.0763
17762TIP3    H274778   3.568   5.401  15.416  0.2830  1.4616 -0.2572
17763TIP3   OH274779   2.067   1.629  15.174 -0.1781 -0.2366 -0.2926
17763TIP3    H174780   2.015   1.708  15.193 -0.1187 -0.3500  0.3622
17763TIP3    H274781   2.146   1.662  15.132 -1.4499 -0.1591 -2.8385
17764TIP3   OH274782   6.751   1.747   4.667 -0.2173 -0.3690 -0.0156
17764TIP3    H174783   6.746   1.657   4.634  1.6052  0.0352 -1.5900
17764TIP3    H274784   6.697   1.798   4.608  2.3508  0.2139 -2.0530
17765TIP3   OH274785   2.650   2.645   5.296  0.1998 -0.3081  0.0790
17765TIP3    H174786   2.740   2.646   5.326  0.4531  0.5247 -0.6783
17765TIP3    H274787   2.619   2.557   5.317  1.1901 -0.6118  0.3205
17766TIP3   OH274788   2.708   1.283   6.396  0.2721 -0.3437  0.1723
17766TIP3    H174789   2.669   1.348   6.337  0.2650 -0.0586  0.4927
17766TIP3    H274790   2.650   1.281   6.472  1.2042  0.5376  0.9369
17767TIP3   OH274791   6.382   2.347  17.219  0.1543  0.1153 -0.0044
17767TIP3    H174792   6.435   2.277  17.181 -0.5003 -0.3823 -0.0208
17767TIP3    H274793   6.444   2.418  17.236  1.2958 -1.3211  2.2376
17768TIP3   OH274794   5.761   0.537  10.192 -0.6887  0.4506 -0.3231
17768TIP3    H174795   5.768   0.481  10.115 -1.6113 -1.0561  0.6396
17768TIP3    H274796   5.771   0.477  10.266 -2.8604  1.3388  0.7691
17769TIP3   OH274797   6.143   2.864   0.551 -0.0512 -0.3411  0.2379
17769TIP3    H174798   6.124   2.870   0.645  0.1156 -1.0915  0.3229
17769TIP3    H274799   6.226   2.817   0.546 -0.6256 -1.3206 -0.3214
17770TIP3   OH274800   5.346   2.545   2.702  0.5907  0.3941 -0.5693
17770TIP3    H174801   5.252   2.563   2.711  0.1537 -0.2297 -3.1478
17770TIP3    H274802   5.356   2.456   2.734  0.2087  0.2767 -0.7652
17771TIP3   OH274803   4.820   0.390   2.262 -0.2916  0.8623 -0.2763
17771TIP3    H174804   4.851   0.320   2.204  0.9924  1.0925  0.1018
17771TIP3    H274805   4.749   0.432   2.213 -0.9649 -0.5669 -0.5924
17772TIP3   OH274806   4.229   4.821  12.904  0.1894 -0.0234 -0.0821
17772TIP3    H174807   4.249   4.800  12.813  0.1807 -1.4471  0.2212
17772TIP3    H274808   4.206   4.737  12.943 -2.6256  0.9208  0.5319
17773TIP3   OH274809   3.791   6.450  16.871  0.4807  0.6228 -0.6111
17773TIP3    H174810   3.696   6.444  16.868  0.5610 -0.3445 -3.1299
17773TIP3    H274811   3.821   6.360  16.862  1.6466  1.0180 -0.8865
17774TIP3   OH274812   0.756   1.156   3.374  0.3209 -0.1653 -0.4121
17774TIP3    H174813   0.744   1.226   3.310 -0.4932 -0.5969 -0.7407
17774TIP3    H274814   0.851   1.149   3.385  0.4029  1.5679  0.2710
17775TIP3   OH274815   4.843   5.137   1.177 -0.1289  0.2581 -0.2308
17775TIP3    H174816   4.874   5.223   1.207  0.9072 -0.5387  1.1038
17775TIP3    H274817   4.921   5.094   1.141 -0.4929 -0.3530 -0.3060
17776TIP3   OH274818   6.257   0.987   2.174  0.2001  0.1681  0.2131
17776TIP3    H174819   6.286   1.069   2.133  0.4887  0.6574  1.3792
17776TIP3    H274820   6.278   0.919   2.109 -1.1393  1.1194 -1.3017
17777TIP3   OH274821   5.101   3.298  14.313  0.5644  0.0346 -0.1991
17777TIP3    H174822   5.039   3.351  14.263 -0.1638  0.0275  0.6716
17777TIP3    H274823   5.152   3.252  14.247 -0.1265  0.3103 -0.9418
17778TIP3   OH274824   5.615   0.243  13.339  0.0023 -0.3317 -0.4427
17778TIP3    H174825   5.701   0.278  13.358 -0.2012  0.1851 -0.4675
17778TIP3    H274826   5.627   0.148  13.341  0.0265 -0.3572  2.3005
17779TIP3   OH274827   1.382   6.123   0.600  0.0769  0.2407 -0.4337
17779TIP3    H174828   1.415   6.137   0.689  1.3259 -0.6554 -0.7351
17779TIP3    H274829   1.426   6.189   0.547 -1.2026  1.2435 -0.3041
17780TIP3   OH274830   1.176   3.756   4.479 -0.2436 -0.3089  0.8093
17780TIP3    H174831   1.161   3.763   4.385  1.0348  1.8604  0.7042
17780TIP3    H274832   1.263   3.717   4.486 -0.2845 -0.3475  1.0984
17781TIP3   OH274833   0.524   3.616   3.098  0.2926 -0.3659  0.2164
17781TIP3    H174834   0.552   3.530   3.131 -3.5027 -1.4929  0.9457
17781TIP3    H274835   0.523   3.606   3.003  0.0100 -1.0994  0.2873
17782TIP3   OH274836   2.340   1.049  15.546  0.4884 -0.1048 -0.1381
17782TIP3    H174837   2.359   1.077  15.456  1.1492  0.9764  0.3213
17782TIP3    H274838   2.246   1.064  15.557 -0.0851 -2.3415 -1.3430
17783TIP3   OH274839   3.828   3.379  16.185  0.3915  0.1924  0.2772
17783TIP3    H174840   3.887   3.376  16.260  0.9103 -0.3227 -0.1499
17783TIP3    H274841   3.871   3.437  16.123  1.2052 -1.3580 -0.6608
17784TIP3   OH274842   6.370   6.466   4.802 -0.7850  0.2188  0.0223
17784TIP3    H174843   6.375   6.372   4.821 -1.5746  0.3435  0.9187
17784TIP3    H274844   6.382   6.508   4.888 -0.7130  0.9313 -0.3320
17785TIP3   OH274845   5.630   3.131  14.853  0.1011  0.0346  0.2432
17785TIP3    H174846   5.555   3.162  14.801  0.0899 -0.6980 -0.1973
17785TIP3    H274847   5.613   3.163  14.941  0.1490  1.3550 -0.2041
17786TIP3   OH274848   4.324   2.338  16.023  0.5424 -0.3286  0.0089
17786TIP3    H174849   4.249   2.282  16.005  0.9711 -0.3167 -2.1018
17786TIP3    H274850   4.368   2.296  16.097 -1.4532 -0.3699  1.2398
17787TIP3   OH274851   3.072   0.987  16.276  0.0453 -0.3528 -0.2677
17787TIP3    H174852   3.000   1.013  16.218 -1.0243 -1.3767  0.5678
17787TIP3    H274853   3.122   0.923  16.225  0.5075  0.4786 -0.9090
17788TIP3   OH274854   6.088   2.872   0.840  0.4500 -0.4729 -0.6608
17788TIP3    H174855   6.073   2.929   0.916 -1.1476  0.0596 -1.3338
17788TIP3    H274856   6.044   2.790   0.863 -0.1957 -0.2490 -1.0593
17789TIP3   OH274857   5.109   5.109   2.873 -0.6713  0.4466 -0.4923
17789TIP3    H174858   5.089   5.102   2.779  1.3766 -0.9483 -0.8867
17789TIP3    H274859   5.187   5.164   2.878 -1.9353  2.2297  0.6172
17790TIP3   OH274860   5.112   1.636  15.584  0.6167  0.0156 -0.4901
17790TIP3    H174861   5.129   1.610  15.675  0.5193 -1.0032 -0.7510
17790TIP3    H274862   5.018   1.624  15.574  0.8642 -1.4982 -1.2054
17791TIP3   OH274863   0.719   1.035   0.866 -0.3957  0.0798  0.7808
17791TIP3    H174864   0.793   0.975   0.851  0.7698  1.7412 -0.5322
17791TIP3    H274865   0.649   1.000   0.811  1.5556  1.9960 -3.3886
17792TIP3   OH274866   1.726   4.762   5.737  0.4119 -0.1812  0.1445
17792TIP3    H174867   1.760   4.785   5.650 -2.9385  2.7189 -0.6198
17792TIP3    H274868   1.804   4.743   5.788  2.6605 -0.4317 -3.0501
17793TIP3   OH274869   1.743   1.770  16.007  0.0295 -0.3671  0.2871
17793TIP3    H174870   1.793   1.852  16.013 -1.9127  0.8432  1.2503
17793TIP3    H274871   1.707   1.770  15.919 -0.2121 -0.0028  0.3815
17794TIP3   OH274872   4.197   0.469   2.662  0.9483  0.7283  0.2932
17794TIP3    H174873   4.110   0.509   2.665 -1.2986 -3.5421  2.0439
17794TIP3    H274874   4.216   0.461   2.569 -1.6969 -0.1840 -0.2666
17795TIP3   OH274875   6.483   6.454  12.087  0.2336  0.4076  0.2998
17795TIP3    H174876   6.388   6.464  12.090  0.1370 -0.6198  0.9759
17795TIP3    H274877   6.515   6.509  12.159  0.3291  2.3142 -1.1119
17796TIP3   OH274878   2.613   5.001  16.381  0.0547 -0.0768 -0.2764
17796TIP3    H174879   2.589   4.929  16.439 -1.4536  2.2640  2.2252
17796TIP3    H274880   2.535   5.016  16.328  0.2878 -0.1139 -0.6353
17797TIP3   OH274881   4.285   3.451   2.172 -0.3279 -0.8227 -0.1155
17797TIP3    H174882   4.376   3.467   2.199 -0.7812 -0.9198  1.5592
17797TIP3    H274883   4.254   3.536   2.140  0.2741 -0.7435 -0.5174
17798TIP3   OH274884   3.104   4.625  16.833  0.6100  0.1110  0.3588
17798TIP3    H174885   3.115   4.713  16.871 -0.5178 -0.0202  1.0605
17798TIP3    H274886   3.123   4.565  16.905  3.1525 -0.3287 -0.5767
17799TIP3   OH274887   0.929   2.318   0.619 -0.1345 -0.0934  0.6003
17799TIP3    H174888   0.863   2.262   0.660  1.7321 -1.1731  2.2814
17799TIP3    H274889   0.929   2.398   0.672  1.1049 -0.8142  1.7340
17800TIP3   OH274890   6.269   5.217  11.803 -0.1274 -0.0873  0.2522
17800TIP3    H174891   6.279   5.289  11.865 -0.3191  1.1781 -1.1342
17800TIP3    H274892   6.335   5.153  11.831  0.8516  1.1244  0.8419
17801TIP3   OH274893   3.282   6.687  16.522  0.0919 -0.0446  0.2033
17801TIP3    H174894   3.323   6.602  16.539 -1.9583 -1.1731 -0.1996
17801TIP3    H274895   3.266   6.724  16.608  0.0268 -0.5563  0.4137
17802TIP3   OH274896   5.370   0.141   3.384 -0.0624  0.5956 -0.1248
17802TIP3    H174897   5.411   0.147   3.298 -0.7518 -0.5668 -0.5596
17802TIP3    H274898   5.323   0.057   3.383 -0.4956  0.7901  1.2016
17803TIP3   OH274899   1.459   5.418   2.289  0.0354  0.3746  0.0439
17803TIP3    H174900   1.476   5.484   2.222 -2.0456  0.1047 -0.8550
17803TIP3    H274901   1.540   5.368   2.295  1.6424  2.9250  0.7231
17804TIP3   OH274902   3.375   2.908   5.591 -0.0992  0.5509  0.1319
17804TIP3    H174903   3.421   2.835   5.548  0.1123  0.8587 -0.1680
17804TIP3    H274904   3.441   2.976   5.598 -0.4285  0.8876 -0.0179
17805TIP3   OH274905   2.013   1.711   4.151 -0.5319  0.3252  0.2713
17805TIP3    H174906   1.925   1.687   4.123 -0.6194  1.0373 -0.0810
17805TIP3    H274907   2.064   1.630   4.142 -0.4414  0.5713 -2.4028
17806TIP3   OH274908   5.933   0.420   1.409 -0.5270 -0.3004  0.6612
17806TIP3    H174909   5.920   0.493   1.471  0.0666 -0.4920  1.0169
17806TIP3    H274910   5.948   0.463   1.325 -2.1616 -0.0445  0.4671
17807TIP3   OH274911   1.102   0.565  12.674  0.2200 -0.0001 -0.2011
17807TIP3    H174912   1.035   0.506  12.708  0.7342 -0.3914  0.1579
17807TIP3    H274913   1.177   0.508  12.657  0.4024  0.4057 -0.7577
17808TIP3   OH274914   0.874   5.354  13.564 -0.2724 -0.2594  0.0255
17808TIP3    H174915   0.843   5.270  13.599 -0.6044  0.0348  0.4517
17808TIP3    H274916   0.867   5.344  13.469  0.2443 -0.9206  0.0468
17809TIP3   OH274917   5.687   0.802  10.156 -0.1930  0.4043  0.3079
17809TIP3    H174918   5.762   0.862  10.163 -0.6647  0.9484  0.8977
17809TIP3    H274919   5.714   0.724  10.203  0.1062  0.4922  0.2831
17810TIP3   OH274920   3.307   5.137   1.800  0.4268  0.7827 -0.7788
17810TIP3    H174921   3.368   5.210   1.797 -0.7018  1.7941 -0.0872
17810TIP3    H274922   3.340   5.074   1.736  2.2559  1.2270 -0.3111
17811TIP3   OH274923   4.179   4.181  16.987  0.3153 -0.1519  0.0978
17811TIP3    H174924   4.199   4.252  16.926  0.0979 -0.8665 -0.8296
17811TIP3    H274925   4.200   4.101  16.939 -0.8728 -0.7766  0.5644
17812TIP3   OH274926   0.429   5.727   4.531 -0.1343 -0.4363 -0.2777
17812TIP3    H174927   0.490   5.667   4.574  0.0954  0.1321  0.1992
17812TIP3    H274928   0.342   5.700   4.562  0.0021 -0.2480  0.2658
17813TIP3   OH274929   5.005   1.410   1.689  0.2694 -0.7090 -0.4394
17813TIP3    H174930   5.085   1.450   1.724  0.0257 -1.4678  1.0291
17813TIP3    H274931   4.935   1.470   1.714  0.2394 -0.6079 -0.7592
17814TIP3   OH274932   4.938   2.347  13.916  0.8736  0.0537 -0.2954
17814TIP3    H174933   4.953   2.392  13.833 -0.3718  0.0401 -0.5520
17814TIP3    H274934   4.848   2.372  13.941  1.4977  0.7341  1.4671
17815TIP3   OH274935   0.055   2.455   2.830  0.2437  0.2455 -0.1285
17815TIP3    H174936  -0.008   2.389   2.801 -1.6528  1.6521  0.5594
17815TIP3    H274937   0.059   2.517   2.757  2.9525 -1.1228 -1.3005
17816TIP3   OH274938   0.658   2.638   5.110 -0.4265 -0.5191  0.4111
17816TIP3    H174939   0.669   2.733   5.100 -0.6011 -0.4511  0.8334
17816TIP3    H274940   0.738   2.610   5.154 -1.1421 -0.2818  1.9417
17817TIP3   OH274941   2.889   1.707  14.968  0.0849 -0.0836 -0.0489
17817TIP3    H174942   2.795   1.718  14.952  0.2211  1.2316 -0.0277
17817TIP3    H274943   2.895   1.624  15.017 -1.0361 -0.2766 -0.2011
17818TIP3   OH274944   1.182   2.303   1.741  0.6342  0.4448 -0.3479
17818TIP3    H174945   1.264   2.342   1.774  0.8206 -0.5268  0.3611
17818TIP3    H274946   1.202   2.210   1.731 -0.0814  0.3689 -1.1818
17819TIP3   OH274947   6.665   2.738  12.282  0.5301 -0.1051  0.8719
17819TIP3    H174948   6.748   2.725  12.328 -0.2547 -0.1869  2.2973
17819TIP3    H274949   6.622   2.808  12.330  0.9302  1.9161 -1.5203
17820TIP3   OH274950   6.513   1.538   6.095  0.0765  0.2186  0.0797
17820TIP3    H174951   6.542   1.546   6.186 -1.5758 -0.4669  0.6988
17820TIP3    H274952   6.467   1.454   6.092 -4.0238  2.2148 -0.1291
17821TIP3   OH274953   1.721   0.197   3.240  0.0752  0.1880 -0.0417
17821TIP3    H174954   1.768   0.179   3.158 -0.2248 -0.1198 -0.1483
17821TIP3    H274955   1.727   0.116   3.289 -0.4821  0.0920 -0.1249
17822TIP3   OH274956   4.670   1.640  15.933 -0.0155 -0.2088  0.2081
17822TIP3    H174957   4.684   1.677  16.020 -1.3855 -1.7152  1.1281
17822TIP3    H274958   4.590   1.682  15.901 -0.0365 -0.3440  0.0785
17823TIP3   OH274959   0.239   0.679  12.160 -0.2625  0.1171 -0.7412
17823TIP3    H174960   0.260   0.714  12.247 -1.1237  1.9467 -1.2108
17823TIP3    H274961   0.175   0.610  12.177  2.1071 -1.9601  0.2849
17824TIP3   OH274962   5.464   5.165  11.225 -0.3434  0.5785 -0.0878
17824TIP3    H174963   5.372   5.191  11.234 -0.6944 -0.1295 -1.4452
17824TIP3    H274964   5.501   5.179  11.312 -1.1079  3.2222 -0.1009
17825TIP3   OH274965   2.248   4.300  12.904 -0.0895  0.2385  0.0875
17825TIP3    H174966   2.328   4.265  12.867 -0.6031  0.6614 -1.5115
17825TIP3    H274967   2.209   4.351  12.833 -2.4382 -1.0260  0.3671
17826TIP3   OH274968   5.395   6.216   5.297  0.1357  0.7613  0.2193
17826TIP3    H174969   5.338   6.193   5.370  0.6253 -0.5150  0.2218
17826TIP3    H274970   5.468   6.263   5.337  0.5680 -0.2211  0.6136
17827TIP3   OH274971   0.200   5.279   4.304  0.0792 -0.6881 -0.2380
17827TIP3    H174972   0.176   5.314   4.390  0.6750 -0.2000 -0.2664
17827TIP3    H274973   0.124   5.227   4.278  0.5792 -2.3531  1.3855
17828TIP3   OH274974   5.610   3.968  15.056  0.0892  0.0476  0.3511
17828TIP3    H174975   5.670   3.896  15.075 -0.7148 -0.6448  0.3325
17828TIP3    H274976   5.580   3.998  15.142  0.5988  0.5283  0.3701
17829TIP3   OH274977   5.575   3.862  17.054 -0.3811  0.5076 -0.1204
17829TIP3    H174978   5.631   3.786  17.042 -0.5456 -0.0140  1.9925
17829TIP3    H274979   5.612   3.929  16.996  1.0209 -0.5188 -0.4564
17830TIP3   OH274980   4.606   1.602  12.041 -0.3759  0.4053  0.1122
17830TIP3    H174981   4.533   1.663  12.051  1.3256  2.7588 -0.8438
17830TIP3    H274982   4.576   1.540  11.975 -1.7906  0.8376  0.3053
17831TIP3   OH274983   1.618   0.855   1.017 -0.3584 -0.0172 -0.3492
17831TIP3    H174984   1.589   0.936   1.060  0.2615 -0.6248  1.2872
17831TIP3    H274985   1.714   0.863   1.014 -0.0758 -1.6155  1.8959
17832TIP3   OH274986   2.714   5.554  13.620  0.5891 -0.1362  0.0589
17832TIP3    H174987   2.620   5.540  13.615  0.2653  1.1640  1.6028
17832TIP3    H274988   2.742   5.502  13.695  0.9059  0.2751  0.2325
17833TIP3   OH274989   3.516   5.231  14.871 -0.1300  0.5310 -0.1494
17833TIP3    H174990   3.600   5.259  14.835  0.5202 -0.9600  0.1066
17833TIP3    H274991   3.456   5.233  14.796  0.6454 -0.3059 -0.8241
17834TIP3   OH274992   4.373   2.662  11.922  0.5071  0.5335  0.0988
17834TIP3    H174993   4.418   2.604  11.982  0.1414  0.1095 -0.0256
17834TIP3    H274994   4.281   2.637  11.928  0.7118 -1.2795 -2.4677
17835TIP3   OH274995   5.845   1.236  14.692 -1.3168  0.4826 -0.6060
17835TIP3    H174996   5.854   1.141  14.683  0.8438  0.5837 -0.0322
17835TIP3    H274997   5.788   1.248  14.768  0.6125 -0.4033  1.0612
17836TIP3   OH274998   3.237   5.822  14.443 -0.4267  0.1170  0.1320
17836TIP3    H174999   3.197   5.862  14.367  0.9910 -0.1990 -0.8255
17836TIP3    H275000   3.211   5.730  14.439 -1.9985  0.4811  1.1864
17837TIP3   OH275001   6.662   5.831   1.270 -0.1406 -0.2091 -0.2246
17837TIP3    H175002   6.584   5.778   1.283 -0.2021 -0.0249  0.1637
17837TIP3    H275003   6.695   5.849   1.358  1.8619 -2.5276 -0.3843
17838TIP3   OH275004   2.335   5.336   0.502  0.3195 -0.6899 -0.2863
17838TIP3    H175005   2.416   5.316   0.549 -0.8161 -1.4719  1.4549
17838TIP3    H275006   2.345   5.427   0.474  2.3918 -1.2322 -1.4695
17839TIP3   OH275007   0.822   3.636  16.606 -0.3304  0.0562 -0.1974
17839TIP3    H175008   0.828   3.603  16.696 -0.2658  1.7587  0.4591
17839TIP3    H275009   0.888   3.705  16.602 -1.7083  1.3978 -0.9045
17840TIP3   OH275010   4.176   6.146   1.882  0.1780  0.0993 -0.2203
17840TIP3    H175011   4.196   6.088   1.955  1.0866  0.8231  0.1263
17840TIP3    H275012   4.261   6.178   1.852 -0.2485  0.5945 -0.9437
17841TIP3   OH275013   2.337   5.389  16.414 -0.1716  0.1872  0.5673
17841TIP3    H175014   2.349   5.322  16.483 -1.4464 -0.5102  0.1401
17841TIP3    H275015   2.243   5.407  16.415 -0.3675 -0.4574 -1.5375
17842TIP3   OH275016   3.998   0.043  13.304  0.1761 -0.6327 -0.5655
17842TIP3    H175017   4.021   0.021  13.213  0.1315 -0.5435 -0.5982
17842TIP3    H275018   3.903   0.049  13.304  0.2392  0.7940 -0.8438
17843TIP3   OH275019   1.675   5.268   4.659 -0.0941  0.2687 -0.4407
17843TIP3    H175020   1.582   5.289   4.665 -0.0161  0.1884  2.5544
17843TIP3    H275021   1.677   5.174   4.644 -0.5419  0.1269  0.3158
17844TIP3   OH275022   0.060   0.899  15.215  0.4311 -0.0162 -0.3122
17844TIP3    H175023   0.032   0.948  15.137 -2.3993 -0.2273  0.4591
17844TIP3    H275024   0.078   0.811  15.182 -2.1650 -0.5159 -0.6341
17845TIP3   OH275025   5.541   1.763   1.286 -0.1087  0.1293 -0.4790
17845TIP3    H175026   5.589   1.833   1.330  2.7506 -1.0449 -1.4746
17845TIP3    H275027   5.537   1.693   1.350 -0.9634  0.3834 -0.2425
17846TIP3   OH275028   5.447   0.106  13.920  0.1148  0.1277 -0.2108
17846TIP3    H175029   5.518   0.074  13.865  0.2514 -0.0353  0.0564
17846TIP3    H275030   5.433   0.196  13.892  0.7133  0.2960  0.0275
17847TIP3   OH275031   4.122   2.042   2.909  0.2429 -0.5531  0.3609
17847TIP3    H175032   4.116   2.005   2.822  0.3757 -1.1920  0.6206
17847TIP3    H275033   4.186   2.113   2.901 -0.2046 -0.1979 -0.1911
17848TIP3   OH275034   4.168   1.720   5.029 -0.4569  0.7215  0.4854
17848TIP3    H175035   4.082   1.690   5.000 -0.3832  1.9204 -1.0445
17848TIP3    H275036   4.186   1.798   4.978  1.8108  0.1857  0.3350
17849TIP3   OH275037   6.562   5.236   1.594 -0.2023  0.2564 -0.7701
17849TIP3    H175038   6.656   5.247   1.579  0.4674 -0.5112  2.2555
17849TIP3    H275039   6.525   5.324   1.586  1.5061  1.3457  1.9601
17850TIP3   OH275040   4.588   0.201  14.300  0.1008  0.2061 -0.1597
17850TIP3    H175041   4.529   0.156  14.361 -0.6389 -0.0337 -1.0364
17850TIP3    H275042   4.530   0.247  14.240  0.8243  0.3995 -0.7248
17851TIP3   OH275043   4.280   5.575  13.513  0.0242 -0.0526 -0.5973
17851TIP3    H175044   4.229   5.503  13.476 -0.9042  0.1870  0.1908
17851TIP3    H275045   4.357   5.533  13.552 -0.0785 -0.5221 -0.9005
17852TIP3   OH275046   5.060   0.176   1.800  0.3711 -0.3893 -0.8412
17852TIP3    H175047   5.084   0.083   1.797  0.3088 -0.4436  0.1106
17852TIP3    H275048   5.071   0.206   1.710  1.8412 -0.9645 -0.8942
17853TIP3   OH275049   4.796   5.714   3.861 -0.1158 -0.2098 -0.1907
17853TIP3    H175050   4.816   5.653   3.932  0.5188 -0.3569 -0.4906
17853TIP3    H275051   4.878   5.721   3.812  0.6388  2.7834  1.2371
17854TIP3   OH275052   4.733   2.090  13.512  0.0717  0.0347  0.5679
17854TIP3    H175053   4.823   2.079  13.481 -0.5530 -1.9155 -0.8206
17854TIP3    H275054   4.711   2.005  13.551 -2.1848 -0.7832 -2.1670
17855TIP3   OH275055   6.428   1.211  12.782 -0.2053 -0.0053  0.4096
17855TIP3    H175056   6.513   1.240  12.815  0.8282 -0.2724 -1.8339
17855TIP3    H275057   6.402   1.278  12.719 -0.8415 -0.8016 -0.1943
17856TIP3   OH275058   1.549   4.555   5.663  0.2141  0.5768  0.3228
17856TIP3    H175059   1.615   4.487   5.675  0.2100  0.4960 -0.0847
17856TIP3    H275060   1.596   4.637   5.681  0.6676  0.5867 -0.8152
17857TIP3   OH275061   6.276   0.796  12.252 -0.1704 -0.0831  0.2627
17857TIP3    H175062   6.307   0.751  12.173 -1.4696  1.4815 -1.1925
17857TIP3    H275063   6.181   0.784  12.251 -0.2365  0.2248  1.4327
17858TIP3   OH275064   2.794   3.114  11.680  0.3068 -0.1002  0.0136
17858TIP3    H175065   2.813   3.137  11.771  0.2719  0.1900 -0.0544
17858TIP3    H275066   2.747   3.031  11.686 -0.9739  0.6255  0.3493
17859TIP3   OH275067   0.726   1.027  13.446  0.4407  0.6074 -0.0955
17859TIP3    H175068   0.788   1.062  13.510 -0.6933  0.7742  0.9348
17859TIP3    H275069   0.736   1.085  13.370  1.3298  0.8052  0.1616
17860TIP3   OH275070   1.417   3.202   5.228 -0.0723  0.4184  0.3966
17860TIP3    H175071   1.399   3.239   5.142 -0.6173  0.0559  0.3560
17860TIP3    H275072   1.403   3.274   5.289 -0.8106  0.3662  0.2869
17861TIP3   OH275073   3.267   2.702   4.657 -0.4011 -0.4709  0.4612
17861TIP3    H175074   3.195   2.670   4.603 -0.1038 -1.6751  0.7689
17861TIP3    H275075   3.303   2.776   4.607 -0.8973 -0.8057 -0.4064
17862TIP3   OH275076   0.154   3.717   6.002  0.5094 -0.4364 -0.3155
17862TIP3    H175077   0.121   3.638   5.958  2.7444 -1.5469 -0.1081
17862TIP3    H275078   0.197   3.684   6.081  0.0562  1.1741  0.6412
17863TIP3   OH275079   1.738   5.624  14.200  0.7450  0.1726 -0.1149
17863TIP3    H175080   1.708   5.679  14.272 -0.0821 -0.7798  0.2919
17863TIP3    H275081   1.741   5.536  14.237  3.1851  0.0624 -0.4043
17864TIP3   OH275082   2.832   5.505   5.590  0.1415 -0.2225 -0.1291
17864TIP3    H175083   2.890   5.499   5.514  0.7701 -1.5477  0.4220
17864TIP3    H275084   2.825   5.415   5.622 -0.6984  0.2058  0.9569
17865TIP3   OH275085   1.440   1.965   3.432 -0.2675  0.1651 -0.3141
17865TIP3    H175086   1.434   1.869   3.433 -0.9933  0.2116 -0.1478
17865TIP3    H275087   1.518   1.984   3.485 -0.3077 -0.3216 -0.0738
17866TIP3   OH275088   0.899   2.399  11.396 -1.0111  0.0313 -0.4742
17866TIP3    H175089   0.981   2.394  11.445 -0.7713  1.5542 -0.7015
17866TIP3    H275090   0.834   2.360  11.456 -0.1119 -1.4896 -0.4219
17867TIP3   OH275091   5.592   1.069  16.712  0.5120 -0.0189 -0.4582
17867TIP3    H175092   5.558   1.005  16.650 -2.4068  1.1550 -0.2320
17867TIP3    H275093   5.585   1.153  16.667 -0.1855  0.6662  0.8690
17868TIP3   OH275094   5.079   1.250   4.601 -0.0594  0.7798  0.5631
17868TIP3    H175095   5.032   1.277   4.522  1.9593  2.0058 -0.2792
17868TIP3    H275096   5.094   1.156   4.589  0.6398  1.0356 -0.7718
17869TIP3   OH275097   1.401   4.008   3.389  0.7331  0.1331  0.1499
17869TIP3    H175098   1.426   3.945   3.322 -1.6463 -1.1477  0.3531
17869TIP3    H275099   1.348   4.073   3.342 -1.9448 -1.4037  0.8367
17870TIP3   OH275100   6.616   6.764   4.862 -0.1666 -0.5726 -0.0763
17870TIP3    H175101   6.701   6.719   4.860  0.7944  1.1436  0.2965
17870TIP3    H275102   6.626   6.831   4.929 -0.4251  2.2457 -2.6650
17871TIP3   OH275103   3.592   4.493  13.942 -0.1727 -0.1195 -0.3660
17871TIP3    H175104   3.544   4.569  13.976 -0.4747 -0.8076  0.7986
17871TIP3    H275105   3.557   4.419  13.991  1.8451 -0.6985  0.2942
17872TIP3   OH275106   2.319   0.588  15.422 -0.6690  0.3560 -0.5016
17872TIP3    H175107   2.307   0.531  15.498  0.3780  0.4820 -0.2251
17872TIP3    H275108   2.370   0.662  15.456 -1.8796  1.3980 -0.8887
17873TIP3   OH275109   0.705   3.268   5.255  0.3366  0.6175  0.0108
17873TIP3    H175110   0.618   3.236   5.280 -0.7940  2.2147 -1.6199
17873TIP3    H275111   0.713   3.352   5.300  0.7251  0.8053 -0.3989
17874TIP3   OH275112   6.486   4.580   3.425  0.6822  0.8122  0.2848
17874TIP3    H175113   6.573   4.619   3.411  1.3986 -0.0076  2.1322
17874TIP3    H275114   6.469   4.594   3.518 -1.3503  1.2357 -0.1013
17875TIP3   OH275115   2.497   4.365  11.138 -0.3600 -0.0593 -0.1974
17875TIP3    H175116   2.585   4.378  11.173 -0.2870 -0.3897 -0.2584
17875TIP3    H275117   2.470   4.452  11.109 -0.5155  0.2700  0.8856
17876TIP3   OH275118   2.346   6.262  16.345 -0.1388  0.1309 -1.3546
17876TIP3    H175119   2.428   6.260  16.394  0.5165  0.2981 -2.4176
17876TIP3    H275120   2.285   6.308  16.403  0.1817 -0.9755 -0.0831
17877TIP3   OH275121   1.505   0.977   5.663 -0.2431  0.3009 -0.3965
17877TIP3    H175122   1.434   1.020   5.710 -1.5831 -2.5384  0.3960
17877TIP3    H275123   1.481   0.884   5.662  2.1284 -0.4108 -2.5376
17878TIP3   OH275124   0.244   0.178   1.173  0.3633  0.2805 -0.0126
17878TIP3    H175125   0.326   0.216   1.208  0.8002 -0.7933  0.1656
17878TIP3    H275126   0.262   0.084   1.166 -1.2047 -0.1407  1.0180
17879TIP3   OH275127   4.096   0.437   1.294  0.2653 -0.3362 -0.1988
17879TIP3    H175128   4.076   0.484   1.213  2.3712  0.6574 -0.2135
17879TIP3    H275129   4.011   0.407   1.326 -0.6634 -0.3658 -2.5176
17880TIP3   OH275130   2.126   0.604  11.502  0.1702  0.0586  0.0189
17880TIP3    H175131   2.060   0.535  11.510  1.1414 -0.7561  1.4239
17880TIP3    H275132   2.080   0.684  11.528 -0.6000 -0.2702 -0.2986
17881TIP3   OH275133   2.375   6.399   2.468 -0.2271  0.8029 -0.2305
17881TIP3    H175134   2.418   6.477   2.504  0.3279  0.4361 -0.0786
17881TIP3    H275135   2.287   6.428   2.445  0.3355  1.7663 -1.2296
17882TIP3   OH275136   1.016   1.523   4.603 -0.3074 -0.8098  0.3559
17882TIP3    H175137   0.997   1.429   4.599  1.9247 -1.4071  1.6342
17882TIP3    H275138   1.107   1.527   4.631  0.5707  1.7347 -2.3636
17883TIP3   OH275139   3.297   2.068   3.264 -0.0806  0.3099  0.3041
17883TIP3    H175140   3.343   2.062   3.180  2.5848 -1.6768  1.7544
17883TIP3    H275141   3.262   1.980   3.278  3.0394 -0.7315  2.9515
17884TIP3   OH275142   2.571   4.179   4.322  0.0404 -0.2624 -0.0651
17884TIP3    H175143   2.523   4.129   4.257  0.8994  0.5355 -1.3583
17884TIP3    H275144   2.506   4.198   4.390 -0.7867 -1.4102 -0.5061
17885TIP3   OH275145   1.069   6.213   1.700  0.7505 -0.4421  0.1496
17885TIP3    H175146   1.024   6.160   1.633 -0.7186  0.9334 -0.0076
17885TIP3    H275147   1.121   6.150   1.749  0.0636 -1.8375 -0.8392
17886TIP3   OH275148   0.908   5.020   5.306  0.3631 -0.8717 -0.2690
17886TIP3    H175149   0.893   5.079   5.232  1.5586 -1.0176 -0.6627
17886TIP3    H275150   0.977   5.062   5.357 -0.7564 -0.5586  1.0428
17887TIP3   OH275151   5.892   1.964  15.768  0.1006  0.2112 -0.3020
17887TIP3    H175152   5.822   1.945  15.830  0.3226 -0.7837 -0.3326
17887TIP3    H275153   5.897   1.886  15.713  0.1677  0.9127 -1.3299
17888TIP3   OH275154   0.145   1.630  13.343  0.4818  0.1133  0.3436
17888TIP3    H175155   0.227   1.680  13.350  0.7038 -0.1462 -0.2912
17888TIP3    H275156   0.084   1.675  13.401  0.7667  0.9453  0.0090
17889TIP3   OH275157   0.513   4.265  15.262 -1.2371  0.4817 -0.0160
17889TIP3    H175158   0.535   4.179  15.296 -0.6457  1.0524  1.1343
17889TIP3    H275159   0.478   4.313  15.338  0.5538  1.9546 -0.0398
17890TIP3   OH275160   1.973   1.408   4.345 -0.0785  0.5003  0.7327
17890TIP3    H175161   2.011   1.469   4.408  0.8707 -0.1825  0.8473
17890TIP3    H275162   2.024   1.422   4.265 -0.0750  0.1076  0.6618
17891TIP3   OH275163   0.554   5.686   0.863 -0.0217  0.0155  0.5710
17891TIP3    H175164   0.483   5.744   0.836 -0.0861 -0.6823 -0.8133
17891TIP3    H275165   0.542   5.676   0.957 -0.7308  1.2720  0.6362
17892TIP3   OH275166   1.621   4.206   6.048  0.3222  0.0819  0.0572
17892TIP3    H175167   1.628   4.111   6.056 -1.3802 -0.2630 -1.6979
17892TIP3    H275168   1.623   4.239   6.138  3.1277 -1.3681  0.6293
17893TIP3   OH275169   6.678   1.540  11.739  0.0075 -0.2014  0.2277
17893TIP3    H175170   6.642   1.454  11.719 -1.2503  0.2286  0.5494
17893TIP3    H275171   6.760   1.522  11.783  0.1979 -1.2199 -0.5013
17894TIP3   OH275172   2.167   4.738   2.688  1.1150  0.0146  0.1713
17894TIP3    H175173   2.180   4.707   2.598 -0.7645  1.2398 -0.5954
17894TIP3    H275174   2.098   4.682   2.723  0.4756  0.7638  0.1440
17895TIP3   OH275175   3.958   1.346  14.131 -0.0165 -0.3515 -0.2921
17895TIP3    H175176   3.931   1.334  14.222 -1.7920 -1.3982 -0.8946
17895TIP3    H275177   3.890   1.402  14.093  0.1710 -0.7138 -1.1949
17896TIP3   OH275178   2.039   2.835   6.621  0.6269 -0.0974  0.0890
17896TIP3    H175179   2.007   2.897   6.555  0.0569 -2.7448 -2.2801
17896TIP3    H275180   2.076   2.763   6.571 -0.2357 -2.5089  2.6685
17897TIP3   OH275181   3.734   1.598   2.657  0.2335 -0.2626  0.0484
17897TIP3    H175182   3.820   1.576   2.694  0.4041  0.8381  0.3309
17897TIP3    H275183   3.753   1.656   2.584 -0.2497 -0.4577 -0.2356
17898TIP3   OH275184   5.659   3.875  11.192  0.3673  0.0602 -0.0074
17898TIP3    H175185   5.638   3.963  11.222  0.9339 -0.1285  0.9952
17898TIP3    H275186   5.632   3.873  11.100 -0.4893  0.9808  0.2112
17899TIP3   OH275187   0.411   4.479  11.303 -0.1654  0.2260 -0.8115
17899TIP3    H175188   0.469   4.418  11.257  0.0828  1.0781 -1.6521
17899TIP3    H275189   0.363   4.524  11.234 -0.8330  0.5192 -0.1689
17900TIP3   OH275190   1.575   5.197   1.378  0.2098 -0.6092  0.8036
17900TIP3    H175191   1.654   5.206   1.324 -0.6175  1.1001 -0.1958
17900TIP3    H275192   1.503   5.220   1.320 -0.7947  0.5424  2.4091
17901TIP3   OH275193   1.038   4.711  12.794 -0.2670  0.1344 -0.1877
17901TIP3    H175194   0.962   4.661  12.764 -1.1392  2.4180 -2.0313
17901TIP3    H275195   1.011   4.746  12.879 -0.0611 -1.5298  0.6035
17902TIP3   OH275196   0.756   6.036  14.927  0.2204  0.0626  0.2130
17902TIP3    H175197   0.796   6.069  14.846  0.4201 -1.6868 -0.4538
17902TIP3    H275198   0.812   6.069  14.997  1.1367  0.1031 -0.5125
17903TIP3   OH275199   2.354   2.049   3.801  0.5031 -0.0321 -0.3484
17903TIP3    H175200   2.285   2.104   3.837  0.4502 -0.6374  0.5149
17903TIP3    H275201   2.419   2.110   3.767  1.4414  0.6466  2.4256
17904TIP3   OH275202   4.195   4.988   1.422 -0.0356 -0.6731 -0.0731
17904TIP3    H175203   4.187   4.926   1.494  1.0920 -0.8458 -0.0862
17904TIP3    H275204   4.238   4.939   1.352  0.6096  0.0356 -0.1860
17905TIP3   OH275205   6.226   4.620   3.322 -0.0090  0.3229  0.1324
17905TIP3    H175206   6.310   4.603   3.365 -0.8699 -2.6963  0.8585
17905TIP3    H275207   6.183   4.685   3.378  1.2279  0.7999  0.5604
17906TIP3   OH275208   3.473   1.986   0.176  0.1170 -0.2261 -0.3154
17906TIP3    H175209   3.537   1.937   0.228 -1.3868 -1.4209  0.5026
17906TIP3    H275210   3.480   2.076   0.208 -1.0174 -0.9842  2.3204
17907TIP3   OH275211   6.414   1.265  16.151 -0.2493 -0.6113  0.1321
17907TIP3    H175212   6.473   1.298  16.219 -0.2291 -0.8040  0.2065
17907TIP3    H275213   6.453   1.183  16.122  0.7856  0.3795 -1.4623
17908TIP3   OH275214   4.860   0.310  14.825 -0.2157  0.0390 -0.1661
17908TIP3    H175215   4.808   0.231  14.839 -1.7180  1.3008  1.8633
17908TIP3    H275216   4.916   0.316  14.903  0.7027  0.4106 -0.8278
17909TIP3   OH275217   4.060   2.477  11.923 -0.6096 -0.2171  0.1225
17909TIP3    H175218   4.078   2.567  11.947 -1.2641  0.4021 -1.5650
17909TIP3    H275219   4.102   2.425  11.992  0.3889  1.3362  0.7413
17910TIP3   OH275220   5.389   2.230   2.291  0.1465 -0.0721  0.3394
17910TIP3    H175221   5.316   2.167   2.294  1.2369 -1.3445  1.5155
17910TIP3    H275222   5.443   2.200   2.218 -0.1172  0.4491 -0.0800
17911TIP3   OH275223   5.796   3.665   5.057  0.1103 -0.4494 -0.2371
17911TIP3    H175224   5.881   3.665   5.101  0.5304 -0.6046 -1.0327
17911TIP3    H275225   5.782   3.574   5.031 -0.0202 -0.3198 -0.6250
17912TIP3   OH275226   6.216   3.597  15.115  0.3064  0.2987  0.9602
17912TIP3    H175227   6.241   3.559  15.032  1.3854  0.3830  1.2334
17912TIP3    H275228   6.176   3.681  15.092 -0.3036 -0.1148  0.4820
17913TIP3   OH275229   2.832   6.045   1.666  0.5338 -0.1600 -0.0215
17913TIP3    H175230   2.762   6.106   1.646 -0.4687 -1.1669  0.2559
17913TIP3    H275231   2.824   6.029   1.760  0.0318 -1.5686 -0.2751
17914TIP3   OH275232   2.693   5.543  17.000 -0.1611 -0.3888  0.3545
17914TIP3    H175233   2.602   5.571  16.999 -0.1085 -0.2186  0.1529
17914TIP3    H275234   2.743   5.623  16.985  0.2293  0.2925  4.1261
17915TIP3   OH275235   0.310   5.369   0.703  0.0858  0.0771  0.0756
17915TIP3    H175236   0.400   5.401   0.706 -0.8459  3.0157  1.0920
17915TIP3    H275237   0.278   5.378   0.793 -1.7940  1.2551 -0.6262
17916TIP3   OH275238   2.231   1.687  12.812  0.1924 -0.5328 -0.1474
17916TIP3    H175239   2.178   1.648  12.742 -2.8045 -2.1094  2.6981
17916TIP3    H275240   2.193   1.774  12.825 -1.5465 -1.4593  1.5271
17917TIP3   OH275241   5.046   3.632  11.940  0.1566  0.1624 -0.7534
17917TIP3    H175242   5.074   3.661  12.026 -0.7568  0.3107 -0.4872
17917TIP3    H275243   4.990   3.556  11.956 -1.5173  1.2687 -1.0207
17918TIP3   OH275244   5.939   3.911   6.333  0.1157  0.0107  0.1031
17918TIP3    H175245   5.866   3.963   6.365 -1.5211 -2.4539  0.6792
17918TIP3    H275246   6.007   3.975   6.311 -2.0924  2.3946 -0.2391
17919TIP3   OH275247   2.596   6.401  12.863 -0.0835 -0.0139  0.0035
17919TIP3    H175248   2.536   6.363  12.927 -0.9358  2.2778  0.6647
17919TIP3    H275249   2.659   6.450  12.916  2.2539 -2.0658 -0.6953
17920TIP3   OH275250   3.561   6.635  11.648  0.8127  0.2398  0.3270
17920TIP3    H175251   3.611   6.704  11.603  0.8446  1.3120  1.9144
17920TIP3    H275252   3.622   6.602  11.715  0.4325 -0.6062  0.2613
17921TIP3   OH275253   0.045   3.641  12.485 -0.0158 -0.4388  0.4604
17921TIP3    H175254  -0.006   3.621  12.563  1.4190 -1.4266  1.1990
17921TIP3    H275255   0.109   3.570  12.479  1.6238  1.0040 -0.0950
17922TIP3   OH275256   0.106   0.749  13.597  0.3397  0.3382  0.0793
17922TIP3    H175257   0.132   0.767  13.507  0.6164  1.4134  0.3517
17922TIP3    H275258   0.012   0.732  13.592  0.0332  1.9798 -0.2294
17923TIP3   OH275259   3.749   3.266  11.231  0.1173  0.1102  0.0626
17923TIP3    H175260   3.670   3.317  11.246  2.2722  3.7056  0.3734
17923TIP3    H275261   3.728   3.179  11.265 -3.0191  1.4266  1.9254
17924TIP3   OH275262   6.490   2.830   3.759  0.6539 -0.0355 -0.2308
17924TIP3    H175263   6.446   2.747   3.775  0.4572 -0.0075 -0.6325
17924TIP3    H275264   6.438   2.874   3.692 -1.0158  1.7882  2.1042
17925TIP3   OH275265   0.830   2.231   0.118 -0.0100  0.3428 -0.5325
17925TIP3    H175266   0.878   2.180   0.183 -1.0943 -1.0996 -0.8129
17925TIP3    H275267   0.806   2.168   0.050 -0.6756  1.3942 -1.3186
17926TIP3   OH275268   3.832   6.522  12.299  0.2179 -0.1821  0.5347
17926TIP3    H175269   3.773   6.594  12.321  0.6497  0.4646 -0.3817
17926TIP3    H275270   3.781   6.443  12.318 -1.3187  0.3405 -1.1702
17927TIP3   OH275271   2.488   4.897  15.291 -0.3186 -0.0887  0.0987
17927TIP3    H175272   2.477   4.897  15.386 -1.3863  4.1565  0.1923
17927TIP3    H275273   2.406   4.861  15.257 -0.0423 -1.3719  0.7693
17928TIP3   OH275274   3.852   6.138   3.434 -0.1613 -0.2930 -0.2720
17928TIP3    H175275   3.787   6.208   3.437 -0.2292 -0.3643 -0.0713
17928TIP3    H275276   3.914   6.159   3.504  0.1569 -0.1039 -0.6099
17929TIP3   OH275277   2.594   5.182  12.789  0.0944  0.0760 -0.8761
17929TIP3    H175278   2.530   5.118  12.758  0.1677 -0.2718 -0.3300
17929TIP3    H275279   2.547   5.235  12.854  0.3186 -0.1003 -0.5648
17930TIP3   OH275280   1.291   4.749  12.716  0.0275  0.0881 -0.6306
17930TIP3    H175281   1.334   4.832  12.735  1.2229  0.2110 -3.4623
17930TIP3    H275282   1.202   4.760  12.750  1.0802  1.1946  2.0743
17931TIP3   OH275283   3.713   4.332  16.325 -0.8767 -0.1674  0.1863
17931TIP3    H175284   3.663   4.263  16.280  1.1595 -1.4852 -0.1764
17931TIP3    H275285   3.773   4.365  16.259  0.4273 -0.3496  1.2453
17932TIP3   OH275286   4.528   6.454  16.612  0.0345 -0.1565 -0.1559
17932TIP3    H175287   4.517   6.450  16.707 -2.5347  1.8943 -0.2396
17932TIP3    H275288   4.599   6.517  16.598  0.9339 -1.0386  0.3927
17933TIP3   OH275289   2.048   5.867   2.498 -0.5722  0.2574 -0.3636
17933TIP3    H175290   2.131   5.914   2.490 -0.0617 -0.6050 -0.2620
17933TIP3    H275291   2.062   5.805   2.570 -1.2687  0.0422 -0.4068
17934TIP3   OH275292   5.980   5.471  15.523 -0.5363  0.2864 -0.2864
17934TIP3    H175293   5.968   5.378  15.503  0.7366 -0.1883  0.9533
17934TIP3    H275294   5.920   5.516  15.465 -0.4017 -1.2548 -1.6925
17935TIP3   OH275295   1.183   6.073  14.006  0.5166  0.2033  0.9972
17935TIP3    H175296   1.160   6.153  13.959  0.7084 -0.8039 -0.9373
17935TIP3    H275297   1.274   6.057  13.981 -0.4126 -2.2311 -1.2389
17936TIP3   OH275298   0.530   2.009  14.661  0.4053 -0.7059  0.2566
17936TIP3    H175299   0.531   1.978  14.751  1.2922 -0.7901  0.2246
17936TIP3    H275300   0.535   2.105  14.668 -0.1236 -0.6791  0.3051
17937TIP3   OH275301   6.238   6.186   2.955 -0.9361 -0.1203 -0.1387
17937TIP3    H175302   6.214   6.112   2.900 -0.3199 -0.7765  0.4596
17937TIP3    H275303   6.334   6.186   2.955 -0.9309  0.1364  0.5711
17938TIP3   OH275304   2.130   4.864  13.132 -0.2333 -0.0548  0.0051
17938TIP3    H175305   2.185   4.847  13.208 -0.4560 -0.2701  0.1216
17938TIP3    H275306   2.192   4.880  13.060  0.0114 -1.7501 -0.1974
17939TIP3   OH275307   5.570   4.846  12.924 -0.0536 -0.3328 -0.1544
17939TIP3    H175308   5.644   4.831  12.865 -0.2638  0.3746 -0.6142
17939TIP3    H275309   5.553   4.940  12.917  0.4376 -0.0792  1.6554
17940TIP3   OH275310   1.717   1.434  12.167  0.6613 -0.0699  0.0837
17940TIP3    H175311   1.796   1.487  12.156  0.6579 -0.4256 -2.1357
17940TIP3    H275312   1.750   1.345  12.179  0.6255 -0.2006 -0.7236
17941TIP3   OH275313   3.286   3.859   0.419 -0.0572 -0.3134 -0.0954
17941TIP3    H175314   3.300   3.812   0.502 -0.4308 -1.6427 -0.7520
17941TIP3    H275315   3.322   3.801   0.352 -1.3853 -0.1175 -1.0385
17942TIP3   OH275316   0.569   6.698   3.389 -0.4373  0.2312  0.0632
17942TIP3    H175317   0.511   6.685   3.314  0.7584 -0.3378 -0.7930
17942TIP3    H275318   0.637   6.631   3.379 -1.0303 -0.8318  2.4585
17943TIP3   OH275319   5.185   5.657  14.831 -0.4256 -0.0320  0.4881
17943TIP3    H175320   5.145   5.570  14.827  0.1387 -0.3152  0.9519
17943TIP3    H275321   5.244   5.653  14.906  0.6740  0.2979 -0.3418
17944TIP3   OH275322   4.741   4.356   0.166 -0.1967 -0.7699  0.3874
17944TIP3    H175323   4.805   4.298   0.208  0.6179  1.8026  3.0394
17944TIP3    H275324   4.677   4.374   0.235 -2.0014 -0.6766 -1.2335
17945TIP3   OH275325   2.132   1.018  14.709 -0.2755 -0.2236 -0.2129
17945TIP3    H175326   2.117   0.931  14.672 -0.9300  0.2575 -1.1493
17945TIP3    H275327   2.114   1.009  14.802  1.0890 -1.4078 -0.0450
17946TIP3   OH275328   2.879   1.766   1.017  0.0555 -0.3697  0.2261
17946TIP3    H175329   2.853   1.798   1.104  0.6131 -3.0609  1.4726
17946TIP3    H275330   2.954   1.820   0.994 -1.6594  2.1697  0.1460
17947TIP3   OH275331   3.422   0.890  13.055  0.7180  0.0123  0.3253
17947TIP3    H175332   3.456   0.910  12.967  0.2393 -0.0617  0.1238
17947TIP3    H275333   3.328   0.903  13.048  0.8448  1.9397  1.3331
17948TIP3   OH275334   6.034   3.972  11.935  0.2627 -0.1195  0.4394
17948TIP3    H175335   5.968   4.021  11.983 -0.6734 -1.5270  0.6567
17948TIP3    H275336   6.034   4.011  11.847 -0.8023 -0.0224  0.4687
17949TIP3   OH275337   1.314   2.937   4.159 -0.5329  0.5619 -0.1801
17949TIP3    H175338   1.296   3.013   4.104  0.2332  1.5720  0.9087
17949TIP3    H275339   1.328   2.974   4.246 -1.5569 -0.9778  0.6831
17950TIP3   OH275340   1.952   5.211   3.288  0.0288 -0.0806  0.0123
17950TIP3    H175341   1.872   5.207   3.236  1.5500 -2.2296 -2.4169
17950TIP3    H275342   1.959   5.124   3.328  2.1427 -0.7415 -1.5847
17951TIP3   OH275343   4.738   5.858  16.266  0.2005  0.1295 -0.0698
17951TIP3    H175344   4.683   5.935  16.251  2.2910  2.2813  2.3727
17951TIP3    H275345   4.737   5.846  16.361  0.5441 -2.4642 -0.3337
17952TIP3   OH275346   5.150   4.975  11.760 -0.0557  0.0451 -0.1731
17952TIP3    H175347   5.189   4.911  11.700  0.6032  1.6752 -1.5488
17952TIP3    H275348   5.081   4.926  11.805  2.7677 -2.6789  1.6090
17953TIP3   OH275349   2.231   4.879  12.847  0.2456 -0.5672  0.3865
17953TIP3    H175350   2.238   4.783  12.841 -0.8139 -0.6877  0.8498
17953TIP3    H275351   2.139   4.897  12.827  0.6281  0.4399 -0.5410
17954TIP3   OH275352   0.368   0.707   5.484 -0.0267 -0.2276 -0.1463
17954TIP3    H175353   0.449   0.678   5.442 -0.9674 -1.4577 -1.2188
17954TIP3    H275354   0.316   0.627   5.494 -0.7884  0.4140  1.2593
17955TIP3   OH275355   2.287   4.012  15.313 -0.9209  0.3523  0.3433
17955TIP3    H175356   2.305   4.079  15.248 -1.4243  0.2680  0.1110
17955TIP3    H275357   2.367   4.006  15.365 -0.4330  0.2468 -0.4179
17956TIP3   OH275358   2.841   0.140   2.726  0.2588  0.6518  0.3458
17956TIP3    H175359   2.832   0.220   2.674  0.3823  0.4229 -0.0342
17956TIP3    H275360   2.933   0.115   2.717  0.6296  1.3735  1.8259
17957TIP3   OH275361   4.308   2.633   0.623  0.1799 -0.4339 -0.4721
17957TIP3    H175362   4.223   2.609   0.660  0.4276 -1.3500 -0.4627
17957TIP3    H275363   4.358   2.664   0.698 -0.5584  1.4036 -0.6856
17958TIP3   OH275364   2.125   0.508  16.626  0.3127  0.2239  0.3479
17958TIP3    H175365   2.115   0.458  16.707  0.5630 -0.0905  0.1885
17958TIP3    H275366   2.149   0.442  16.561  0.6782  0.5629  0.1413
17959TIP3   OH275367   3.040   6.481   6.869 -0.8999 -0.0343  0.5053
17959TIP3    H175368   3.018   6.512   6.781 -0.4652 -1.8652 -0.2755
17959TIP3    H275369   3.133   6.500   6.878 -0.9302  0.0958  0.5435
17960TIP3   OH275370   2.163   6.722   5.223 -0.7306  0.2194  0.3985
17960TIP3    H175371   2.088   6.684   5.177 -0.4053  1.6337 -1.4041
17960TIP3    H275372   2.127   6.798   5.270 -0.9947 -1.0166  2.3197
17961TIP3   OH275373   2.764   3.844   0.794 -0.0727  0.7321  0.3405
17961TIP3    H175374   2.738   3.868   0.705  1.7743 -2.3372 -1.2040
17961TIP3    H275375   2.859   3.857   0.796 -0.3182  3.3459  2.9119
17962TIP3   OH275376   2.761   1.860  12.512  0.1869 -0.0961 -0.6760
17962TIP3    H175377   2.701   1.905  12.571  1.9013 -1.7894  2.6729
17962TIP3    H275378   2.707   1.795  12.466 -0.9445  0.0453  0.4279
17963TIP3   OH275379   2.597   6.423  15.175 -0.0210  0.0061  0.3029
17963TIP3    H175380   2.631   6.353  15.120  0.7096  0.2084  0.4799
17963TIP3    H275381   2.553   6.483  15.115 -0.0241 -0.2396  0.0613
17964TIP3   OH275382   4.467   6.436   0.270 -0.9306 -0.4577 -0.1170
17964TIP3    H175383   4.537   6.474   0.217 -1.9425 -0.7555 -1.7423
17964TIP3    H275384   4.417   6.383   0.209 -2.3777 -0.5365  1.0738
17965TIP3   OH275385   0.688   5.819   3.877  0.5100  0.1537  0.2227
17965TIP3    H175386   0.730   5.886   3.930  1.1171  1.0724 -1.3410
17965TIP3    H275387   0.627   5.775   3.936  1.4847  0.8108  1.7698
17966TIP3   OH275388   4.310   5.910   3.743  0.2718 -0.9386  0.5684
17966TIP3    H175389   4.359   5.830   3.763  1.3228 -0.1970  1.0971
17966TIP3    H275390   4.224   5.880   3.714  0.6081 -2.2479  0.8827
17967TIP3   OH275391   2.512   1.020  11.695 -0.1329  0.0256 -0.3126
17967TIP3    H175392   2.445   0.953  11.679  0.5408 -1.2339  1.7077
17967TIP3    H275393   2.571   0.980  11.759  2.1645  1.3735 -1.4677
17968TIP3   OH275394   2.983   4.709  15.226 -0.3100  0.0483  0.2997
17968TIP3    H175395   2.888   4.707  15.242 -0.8377 -1.1240 -2.4309
17968TIP3    H275396   2.999   4.794  15.185 -0.2766 -0.0298  0.1534
17969TIP3   OH275397   6.013   1.479  14.665  0.3857  0.5876  0.6983
17969TIP3    H175398   5.919   1.469  14.681  0.5132  0.9473  1.8009
17969TIP3    H275399   6.028   1.437  14.581 -0.4183 -1.3489  1.4617
17970TIP3   OH275400   0.308   3.500  11.481 -0.2164 -0.0622 -0.1725
17970TIP3    H175401   0.403   3.496  11.492 -0.1254  0.0673 -0.8611
17970TIP3    H275402   0.274   3.510  11.570  0.3032 -2.0169  0.2998
17971TIP3   OH275403   5.629   0.227   3.718 -0.2115 -0.5613  0.2988
17971TIP3    H175404   5.626   0.301   3.779 -2.4865  0.0003 -0.3959
17971TIP3    H275405   5.647   0.267   3.633 -0.7849 -0.8993  0.0203
17972TIP3   OH275406   2.040   0.056  15.522  0.1638  0.1858 -0.1197
17972TIP3    H175407   2.029   0.112  15.445 -0.6623 -0.2076 -0.2987
17972TIP3    H275408   1.968   0.082  15.580  0.2166 -0.1788  0.1102
17973TIP3   OH275409   2.233   5.715   4.871  0.6383  0.8735  0.1220
17973TIP3    H175410   2.149   5.695   4.911 -0.0505 -0.2009 -1.7441
17973TIP3    H275411   2.297   5.704   4.942 -0.7393  1.6131  1.5387
17974TIP3   OH275412   1.205   5.011   3.677  0.3606  0.4456  0.1142
17974TIP3    H175413   1.223   4.960   3.755 -1.4707 -0.5032 -0.0297
17974TIP3    H275414   1.152   5.085   3.707  0.2120  0.4411 -0.1258
17975TIP3   OH275415   0.530   4.531   0.254 -0.2044 -0.2715  0.3186
17975TIP3    H175416   0.477   4.562   0.326 -0.5718  0.7423 -0.3731
17975TIP3    H275417   0.477   4.462   0.213  0.1761 -1.1253  1.2384
17976TIP3   OH275418   0.721   2.920   4.211 -0.4690  0.0519 -0.2623
17976TIP3    H175419   0.636   2.951   4.183 -0.3036  1.1597  0.4197
17976TIP3    H275420   0.782   2.989   4.186  0.4634 -1.3391 -2.0236
17977TIP3   OH275421   4.456   4.562  11.808  0.0541  0.3504  0.6484
17977TIP3    H175422   4.361   4.560  11.821 -0.4076  1.0398 -2.1305
17977TIP3    H275423   4.488   4.484  11.854 -2.3618 -2.1762 -1.5612
17978TIP3   OH275424   2.319   6.108   3.527  0.1892 -0.1344  0.4291
17978TIP3    H175425   2.237   6.092   3.573 -0.6212 -0.0458 -0.9327
17978TIP3    H275426   2.347   6.021   3.497  0.5624 -0.1559  0.8340
17979TIP3   OH275427   3.534   3.194   1.997  0.5630 -0.0116 -0.3425
17979TIP3    H175428   3.543   3.163   2.087 -0.1538  0.4920 -0.0884
17979TIP3    H275429   3.579   3.128   1.945  0.0844 -0.8611  0.2880
17980TIP3   OH275430   5.458   4.582  16.126  0.3073  0.0716  0.3900
17980TIP3    H175431   5.523   4.526  16.084 -1.7380 -1.4034 -1.0719
17980TIP3    H275432   5.386   4.522  16.148 -1.5375  1.9114 -0.2456
17981TIP3   OH275433   2.730   2.635  12.166 -0.0890 -0.2206  0.4864
17981TIP3    H175434   2.741   2.669  12.255 -0.4525  0.2113  0.3664
17981TIP3    H275435   2.705   2.711  12.114 -0.4213 -0.5779  0.1191
17982TIP3   OH275436   5.052   2.632   5.074  0.5831 -0.4649 -0.0032
17982TIP3    H175437   5.064   2.544   5.037  0.7949 -0.2772 -0.3899
17982TIP3    H275438   5.130   2.680   5.045 -1.2156  0.9390 -2.9787
17983TIP3   OH275439   6.475   2.567   2.548  0.7464  0.4789  0.2024
17983TIP3    H175440   6.484   2.659   2.522 -2.2111  1.1936  1.2749
17983TIP3    H275441   6.498   2.566   2.641 -2.5257  1.0206  1.1793
17984TIP3   OH275442   1.490   2.524  12.836  0.3934 -0.4053  0.2592
17984TIP3    H175443   1.476   2.464  12.763 -1.6619 -2.1931  1.9969
17984TIP3    H275444   1.412   2.579  12.838  1.5863  1.4381 -0.3794
17985TIP3   OH275445   1.776   4.039  14.406  0.3299 -0.4701  0.4610
17985TIP3    H175446   1.851   4.082  14.365 -1.0719  1.0615 -0.5779
17985TIP3    H275447   1.749   4.098  14.476 -1.1246  0.0098 -0.4648
17986TIP3   OH275448   4.056   3.870   3.509 -0.3262 -0.1137  0.2919
17986TIP3    H175449   4.037   3.933   3.439 -0.0141 -0.6663 -0.3051
17986TIP3    H275450   4.040   3.785   3.469 -0.4758 -0.4259  1.0080
17987TIP3   OH275451   4.639   6.539  14.112 -0.1613  0.0425 -0.4347
17987TIP3    H175452   4.721   6.571  14.150  0.4897 -1.0999 -0.8357
17987TIP3    H275453   4.657   6.449  14.087 -1.2114  0.1062 -1.5398
17988TIP3   OH275454   1.560   2.735  13.464 -0.5831 -0.2317 -0.1613
17988TIP3    H175455   1.487   2.673  13.468 -0.4638 -0.3982 -0.5243
17988TIP3    H275456   1.534   2.797  13.396 -0.3168 -0.3856 -0.4080
17989TIP3   OH275457   1.055   3.249  13.707 -0.2342 -0.0576  0.3014
17989TIP3    H175458   1.028   3.211  13.791 -0.5476  0.5309  0.4697
17989TIP3    H275459   0.973   3.264  13.660  0.0105 -2.1849 -0.9226
17990TIP3   OH275460   2.447   0.105   6.196  0.4553 -0.2219 -0.3537
17990TIP3    H175461   2.444   0.011   6.213  0.6248 -0.0148  0.9736
17990TIP3    H275462   2.441   0.113   6.101 -1.0858 -1.5020 -0.4036
17991TIP3   OH275463   4.999   3.356  10.975  0.8646  0.1160 -0.2077
17991TIP3    H175464   4.978   3.263  10.963  1.3329  0.2513 -2.6360
17991TIP3    H275465   5.093   3.357  10.992  0.9354  0.1628 -0.5959
17992TIP3   OH275466   1.064   6.581   4.652 -0.1139 -0.1357  0.0063
17992TIP3    H175467   1.126   6.575   4.580  1.2170 -0.7084  1.1680
17992TIP3    H275468   1.024   6.667   4.642  0.7422  0.1752 -0.8636
17993TIP3   OH275469   1.268   3.062   4.407  0.0021  0.5445 -0.4014
17993TIP3    H175470   1.272   3.152   4.375 -1.2200  0.8174  0.1601
17993TIP3    H275471   1.335   3.058   4.475 -0.5129  1.2905  0.1662
17994TIP3   OH275472   0.007   6.822   1.882 -0.4567 -0.5512  0.4372
17994TIP3    H175473   0.083   6.879   1.875 -0.0767 -0.7383  2.3397
17994TIP3    H275474  -0.001   6.782   1.796  2.5256 -1.6553  0.5352
17995TIP3   OH275475   6.069   4.880   2.166  0.0078  0.0158 -0.2170
17995TIP3    H175476   6.081   4.973   2.187 -0.7476  0.2796 -0.8861
17995TIP3    H275477   6.069   4.836   2.251 -1.1068  0.8269  0.2345
17996TIP3   OH275478   2.545   3.920   4.772  0.0909 -0.1583  0.1760
17996TIP3    H175479   2.524   3.864   4.698 -0.3176 -1.0752  0.9692
17996TIP3    H275480   2.640   3.920   4.777  0.2254  1.3435 -1.4080
17997TIP3   OH275481   2.079   0.603   0.752 -0.0920  0.5957  0.6713
17997TIP3    H175482   2.104   0.686   0.792 -0.2906  1.6389 -1.2320
17997TIP3    H275483   1.983   0.602   0.757 -0.0305 -0.3281  2.1529
17998TIP3   OH275484   4.145   5.162   0.990  0.0783  0.3029 -0.5984
17998TIP3    H175485   4.121   5.215   1.066  1.8414 -0.9071  0.9006
17998TIP3    H275486   4.196   5.221   0.935 -0.8055  1.0621 -0.6208
17999TIP3   OH275487   1.120   0.523   5.956  0.7355  0.8276 -0.3003
17999TIP3    H175488   1.111   0.568   5.872 -0.9851 -0.9664 -1.1421
17999TIP3    H275489   1.095   0.433   5.938  2.7592 -0.2161  1.6224
18000TIP3   OH275490   0.157   3.648   1.060  0.0515 -0.3386 -0.1009
18000TIP3    H175491   0.222   3.707   1.021  1.0222 -0.7780  0.8170
18000TIP3    H275492   0.146   3.579   0.994  3.5538 -2.4464  1.2214
18001TIP3   OH275493   4.710   0.861   3.098  0.0755 -0.4966  0.1182
18001TIP3    H175494   4.627   0.857   3.145  1.3330  1.2824  2.7574
18001TIP3    H275495   4.685   0.877   3.007 -2.4909  1.2029  1.0039
18002TIP3   OH275496   4.788   0.341  11.190 -0.2158 -0.4418  0.3012
18002TIP3    H175497   4.712   0.385  11.152 -0.1618 -0.9797 -0.4575
18002TIP3    H275498   4.763   0.248  11.191  0.0406 -0.5067  0.9856
18003TIP3   OH275499   2.023   4.708  12.653 -0.2714 -0.8678 -0.3918
18003TIP3    H175500   2.086   4.652  12.700 -0.8561 -2.0528 -0.9700
18003TIP3    H275501   2.056   4.712  12.564 -0.7415 -1.0776 -0.5784
18004TIP3   OH275502   3.003   3.783   0.068  0.9301  0.4889 -0.4556
18004TIP3    H175503   3.034   3.723   0.136  1.4092  0.6907 -0.4881
18004TIP3    H275504   2.927   3.827   0.106  1.8599  1.4200  0.3885
18005TIP3   OH275505   4.813   6.047   5.227  0.6185 -0.3297  0.3137
18005TIP3    H175506   4.892   6.047   5.173  0.6367  0.9403  0.3302
18005TIP3    H275507   4.838   6.091   5.308  0.1189 -0.6854  0.6676
18006TIP3   OH275508   3.035   2.236  11.157  0.5124  0.1995 -0.3764
18006TIP3    H175509   3.012   2.327  11.139 -0.3972 -0.0920 -0.7536
18006TIP3    H275510   2.958   2.200  11.201 -0.2233 -1.0796 -2.5559
18007TIP3   OH275511   0.986   5.474  12.279 -0.7431 -0.5494 -0.1332
18007TIP3    H175512   1.050   5.426  12.331 -0.6519 -1.6217 -1.1918
18007TIP3    H275513   0.931   5.407  12.240 -0.1583  0.1123 -2.2314
18008TIP3   OH275514   5.243   0.707  13.135  0.3728 -0.7645 -0.6686
18008TIP3    H175515   5.147   0.713  13.130  0.3705  0.4885  0.4911
18008TIP3    H275516   5.263   0.624  13.092 -1.1048 -0.3407 -2.3088
18009TIP3   OH275517   3.852   2.312  10.914  0.1785  0.1454 -0.3764
18009TIP3    H175518   3.838   2.387  10.856  0.7791  1.5359  1.1883
18009TIP3    H275519   3.942   2.321  10.945  0.1576 -1.0462  0.0984
18010TIP3   OH275520   6.619   2.555  15.291 -0.2267 -0.3024 -0.7241
18010TIP3    H175521   6.558   2.546  15.218 -1.0939  2.8174 -0.5293
18010TIP3    H275522   6.568   2.530  15.368 -0.1444 -0.9837 -0.8785
18011TIP3   OH275523   4.555   6.075   4.821  0.2120  0.3472  0.0887
18011TIP3    H175524   4.462   6.057   4.812  0.4806  0.1089 -4.6569
18011TIP3    H275525   4.598   5.997   4.785  1.9592  2.4627 -2.8472
18012TIP3   OH275526   4.301   0.730   2.067 -0.1521  0.5121  0.1494
18012TIP3    H175527   4.320   0.821   2.090 -0.8615  0.4412  1.0926
18012TIP3    H275528   4.299   0.730   1.971 -0.0605  1.4730  0.1314
18013TIP3   OH275529   2.417   5.558  17.067 -0.3110 -0.4027  0.2146
18013TIP3    H175530   2.327   5.534  17.044 -0.0570 -1.2460  0.0862
18013TIP3    H275531   2.441   5.499  17.138 -0.1425  0.3869  0.8380
18014TIP3   OH275532   2.300   1.401   5.153  0.2949  0.1145 -0.5339
18014TIP3    H175533   2.326   1.309   5.159  0.0382  0.1176  0.9939
18014TIP3    H275534   2.358   1.438   5.087  1.8961 -0.6603  0.3836
18015TIP3   OH275535   5.991   2.806   2.043 -0.3461  0.2115 -0.2830
18015TIP3    H175536   6.056   2.736   2.051  0.9995  0.9940 -2.9391
18015TIP3    H275537   5.958   2.798   1.954 -4.2232 -0.2644  1.0149
18016TIP3   OH275538   5.313   1.145   3.541  0.1625  0.3111 -0.3352
18016TIP3    H175539   5.310   1.118   3.449  0.1482  0.4925 -0.3885
18016TIP3    H275540   5.357   1.073   3.586 -0.4437 -0.0909 -0.3719
18017TIP3   OH275541   5.769   0.006  14.241 -0.3652  0.1863 -0.1189
18017TIP3    H175542   5.794   0.039  14.327 -0.3339  0.9834 -0.4195
18017TIP3    H275543   5.690  -0.045  14.257  0.4164 -0.8407  0.5779
18018TIP3   OH275544   0.880   1.377  15.080  0.1903  0.1279 -0.2201
18018TIP3    H175545   0.844   1.312  15.021 -2.2259 -0.3120  1.6042
18018TIP3    H275546   0.908   1.328  15.157 -0.8631  1.1219  0.8287
18019TIP3   OH275547   0.975   1.655  14.481 -0.5633 -0.0629 -0.3356
18019TIP3    H175548   0.998   1.747  14.491 -1.7777  0.1781  0.3077
18019TIP3    H275549   1.003   1.614  14.563 -1.2758 -0.0006 -0.0573
18020TIP3   OH275550   5.411   1.398   4.929  0.0004  0.2559 -0.3833
18020TIP3    H175551   5.322   1.389   4.964  0.1384  0.3432 -0.0057
18020TIP3    H275552   5.400   1.390   4.834 -0.4024  0.2002 -0.3347
18021TIP3   OH275553   1.701   2.887  13.694  0.0734 -0.4540  0.2321
18021TIP3    H175554   1.614   2.851  13.706  0.6914 -2.3074 -0.4711
18021TIP3    H275555   1.691   2.950  13.622 -0.6571 -0.7922  0.0288
18022TIP3   OH275556   1.234   3.129  15.569  0.5971 -0.0151  0.1917
18022TIP3    H175557   1.318   3.094  15.540  0.5792  1.9641 -2.7488
18022TIP3    H275558   1.170   3.091  15.509 -0.5946 -1.0373  2.0204
18023TIP3   OH275559   4.981   0.789  11.061 -0.1841 -0.1694  0.6376
18023TIP3    H175560   4.981   0.835  10.977 -0.1207 -1.6007 -0.1804
18023TIP3    H275561   5.071   0.797  11.092 -0.5784  1.8112  1.4426
18024TIP3   OH275562   5.854   3.554  13.914  0.0993  0.4181  0.2232
18024TIP3    H175563   5.864   3.546  13.819 -1.9738 -0.0600  0.0052
18024TIP3    H275564   5.844   3.464  13.944 -1.4422  0.6975  0.5956
18025TIP3   OH275565   6.663   5.636   4.399  0.6093 -0.2188 -1.1816
18025TIP3    H175566   6.741   5.580   4.406 -0.4497 -1.7635 -1.2420
18025TIP3    H275567   6.666   5.691   4.478  1.0788 -1.1869 -0.5028
18026TIP3   OH275568   1.575   0.332  12.389  0.6859  0.1527  0.1859
18026TIP3    H175569   1.559   0.277  12.312  1.6334  0.2725 -0.1127
18026TIP3    H275570   1.640   0.396  12.360  0.5920  0.5934  0.9147
18027TIP3   OH275571   1.427   0.183  11.585 -0.7432  0.0849 -0.0683
18027TIP3    H175572   1.402   0.224  11.668 -0.2144 -1.0614  0.6871
18027TIP3    H275573   1.505   0.230  11.557 -0.6314  0.1492  0.3477
18028TIP3   OH275574   5.080   3.718   3.614 -0.2622 -0.2734  0.0518
18028TIP3    H175575   5.107   3.780   3.546 -0.4927  0.6608  0.7920
18028TIP3    H275576   4.985   3.725   3.617 -0.1812  0.5074  1.2147
18029TIP3   OH275577   1.904   0.027  17.249 -0.5159  0.0673 -0.4761
18029TIP3    H175578   1.903   0.123  17.257 -1.4465  0.1151 -1.0049
18029TIP3    H275579   1.839   0.008  17.182  1.1467 -0.8043 -1.9391
18030TIP3   OH275580   1.652   4.282   5.228  0.2607  0.6633 -0.2636
18030TIP3    H175581   1.657   4.189   5.251 -0.9718  0.5392 -0.4490
18030TIP3    H275582   1.586   4.318   5.286 -1.8934  0.6373 -2.5437
18031TIP3   OH275583   3.508   2.363   3.578  0.0191 -0.2768  0.2642
18031TIP3    H175584   3.502   2.285   3.523 -0.1309 -0.8603  1.0766
18031TIP3    H275585   3.543   2.431   3.521  0.9590 -1.1613 -0.2422
18032TIP3   OH275586   3.110   3.149  13.807  0.1511 -0.2502 -0.0220
18032TIP3    H175587   3.138   3.234  13.774  2.3101 -0.6089  0.7334
18032TIP3    H275588   3.029   3.168  13.855 -0.7507  0.9364 -1.8939
18033TIP3   OH275589   3.087   3.593   0.254  0.2564  0.5952 -0.4390
18033TIP3    H175590   3.181   3.606   0.262  0.4275 -1.4858  2.8563
18033TIP3    H275591   3.052   3.615   0.340 -1.8140 -1.4612 -0.6430
18034TIP3   OH275592   2.697   0.213  15.514  0.0300  0.0413 -0.2576
18034TIP3    H175593   2.603   0.196  15.518 -0.4117  2.3724  2.0925
18034TIP3    H275594   2.734   0.167  15.589  1.3176 -3.0056 -2.5657
18035TIP3   OH275595   2.489   5.961   5.771 -0.1014  0.2025 -0.9339
18035TIP3    H175596   2.410   6.010   5.748  0.5175  0.7384 -2.0200
18035TIP3    H275597   2.461   5.901   5.840 -0.9311  1.9210  0.2990
18036TIP3   OH275598   3.025   2.343   2.065  0.1050 -0.1774 -0.2535
18036TIP3    H175599   2.945   2.397   2.067  0.5629  0.4904  0.3334
18036TIP3    H275600   3.076   2.373   2.140  0.5569 -1.1540 -0.1680
18037TIP3   OH275601   5.191   6.652   0.746 -0.2887 -0.5237 -0.9595
18037TIP3    H175602   5.279   6.637   0.779  0.0918  0.9083 -1.2449
18037TIP3    H275603   5.145   6.569   0.760  0.4743 -0.6374  1.1418
18038TIP3   OH275604   1.607   3.833   3.754 -0.0350  0.1954 -0.3633
18038TIP3    H175605   1.532   3.877   3.713  0.8092  0.2145 -1.9710
18038TIP3    H275606   1.677   3.840   3.689  1.4480  0.3848  1.1976
18039TIP3   OH275607   2.492   1.067   6.669 -0.7339  0.2151 -0.0877
18039TIP3    H175608   2.407   1.084   6.628 -0.2655 -1.0224 -1.6868
18039TIP3    H275609   2.521   1.152   6.700 -1.6189  1.0416 -1.4067
18040TIP3   OH275610   6.155   3.011  16.206  0.5508 -0.0788  1.0607
18040TIP3    H175611   6.091   2.942  16.217 -0.9437  0.8684 -1.1302
18040TIP3    H275612   6.155   3.031  16.112  2.3415  1.5783  1.3284
18041TIP3   OH275613   6.552   1.564   2.001 -0.0486  0.3294  1.0061
18041TIP3    H175614   6.467   1.521   2.009  0.6224 -1.7127 -1.3822
18041TIP3    H275615   6.605   1.526   2.070 -0.0809 -1.2155  0.2278
18042TIP3   OH275616   0.646   1.229   3.712  0.0130  0.1289 -0.1785
18042TIP3    H175617   0.717   1.291   3.699 -1.3181  1.9442  0.8078
18042TIP3    H275618   0.582   1.275   3.766 -0.1943 -2.7610  2.3286
18043TIP3   OH275619   4.341   6.647   4.115  0.2540  0.6977  0.0581
18043TIP3    H175620   4.376   6.557   4.114 -2.4522 -0.4457  0.5303
18043TIP3    H275621   4.314   6.661   4.205  1.0654  2.2236  0.0984
18044TIP3   OH275622   4.851   2.357   0.947  0.1391 -0.2800  0.5374
18044TIP3    H175623   4.840   2.329   0.856 -0.6652  0.0662  0.5243
18044TIP3    H275624   4.776   2.320   0.993 -0.5636  1.2048  0.6630
18045TIP3   OH275625   2.276   0.473  12.309  0.4763  0.6008  0.0326
18045TIP3    H175626   2.213   0.463  12.237  1.5311  0.3477 -0.8777
18045TIP3    H275627   2.248   0.553  12.354  0.0373  0.9993 -0.9108
18046TIP3   OH275628   1.918   2.866  13.533 -0.1294  0.4106 -0.9125
18046TIP3    H175629   1.894   2.887  13.443 -0.7481 -0.3912 -0.9449
18046TIP3    H275630   1.835   2.871  13.582  0.1198  0.3923 -0.4788
18047TIP3   OH275631   2.126   1.611   5.260 -0.4037  0.1906  0.2994
18047TIP3    H175632   2.077   1.617   5.179  2.9644  2.2186 -1.8519
18047TIP3    H275633   2.190   1.541   5.244 -0.8843 -0.7237  2.0532
18048TIP3   OH275634   2.261   2.948  12.591  0.2681  0.4509  0.1309
18048TIP3    H175635   2.181   2.985  12.630 -1.0192 -0.0625 -1.8469
18048TIP3    H275636   2.239   2.856  12.575  0.8873  0.5315 -1.3102
18049TIP3   OH275637   0.499   4.745   2.970  0.0691 -0.5891 -0.1299
18049TIP3    H175638   0.425   4.720   2.916 -0.1967 -0.8369  0.3412
18049TIP3    H275639   0.461   4.766   3.056  0.5055 -0.4309  0.0296
18050TIP3   OH275640   2.290   6.621   1.010  0.8595 -0.5731 -0.4507
18050TIP3    H175641   2.336   6.536   1.008  0.6475 -0.7198  0.3544
18050TIP3    H275642   2.301   6.651   1.101  1.6882  0.6883 -0.9416
18051TIP3   OH275643   2.465   3.172  14.354 -0.0183 -0.1490 -0.4809
18051TIP3    H175644   2.383   3.140  14.391 -0.8033  0.3846 -1.7205
18051TIP3    H275645   2.472   3.262  14.386  0.8561 -0.6418  0.8226
18052TIP3   OH275646   5.999   5.423  13.178  0.1093 -0.7525 -0.4767
18052TIP3    H175647   6.091   5.408  13.157 -0.0455 -2.2213 -0.1977
18052TIP3    H275648   5.962   5.335  13.189 -0.9366 -0.1538  1.0851
18053TIP3   OH275649   6.730   6.244  12.399 -0.2895  0.5458 -0.0834
18053TIP3    H175650   6.680   6.219  12.477 -0.0271 -1.7918 -0.6001
18053TIP3    H275651   6.818   6.259  12.431 -0.4823  0.9517  0.2659
18054TIP3   OH275652   3.763   0.416   3.565 -0.0712 -0.2798  0.0103
18054TIP3    H175653   3.842   0.362   3.571  0.1205 -0.0281 -0.2380
18054TIP3    H275654   3.696   0.366   3.611  0.5973  0.1920  1.5802
18055TIP3   OH275655   3.378   4.963   1.997 -0.6308  0.4602 -0.2486
18055TIP3    H175656   3.437   5.018   2.048 -1.2345 -0.0384  1.0322
18055TIP3    H275657   3.341   5.021   1.931  1.3023  0.7764 -1.1201
18056TIP3   OH275658   1.259   0.644  10.821 -0.2769  0.6583 -0.4880
18056TIP3    H175659   1.316   0.596  10.881 -0.6794 -0.4220 -0.9358
18056TIP3    H275660   1.313   0.660  10.744 -0.3913  0.1710 -0.6717
18057TIP3   OH275661   0.767   5.741  16.807 -0.3847 -0.5829  0.3642
18057TIP3    H175662   0.739   5.716  16.719  0.1154 -0.8736  0.2865
18057TIP3    H275663   0.685   5.751  16.856 -0.6662 -0.4154 -0.1305
18058TIP3   OH275664   3.408   1.836  16.775 -0.3965  0.1319  0.2916
18058TIP3    H175665   3.408   1.919  16.726  0.1032 -0.1255 -0.1484
18058TIP3    H275666   3.342   1.849  16.843 -1.8371  0.1455 -1.0355
18059TIP3   OH275667   1.815   1.659   1.752  0.0418  0.1550 -0.4437
18059TIP3    H175668   1.895   1.625   1.712  1.0889  0.1916  1.5173
18059TIP3    H275669   1.786   1.729   1.693  0.7109 -0.7261 -1.8561
18060TIP3   OH275670   0.325   0.357   4.477  0.1679  0.2621  0.9876
18060TIP3    H175671   0.344   0.278   4.428 -0.9319  0.8362 -0.4034
18060TIP3    H275672   0.278   0.327   4.555  2.5795 -0.7226  2.1946
18061TIP3   OH275673   3.732   3.467  15.535  0.1035 -0.2213  0.0547
18061TIP3    H175674   3.770   3.391  15.579  0.5248  0.5510  1.0654
18061TIP3    H275675   3.790   3.483  15.461  1.3437  0.4755  1.1395
18062TIP3   OH275676   1.185   1.459  13.608 -0.2779 -0.2094  0.0051
18062TIP3    H175677   1.198   1.454  13.513 -1.4546  1.0128 -0.2534
18062TIP3    H275678   1.192   1.552  13.628  1.7717 -0.6294  1.4316
18063TIP3   OH275679   6.410   2.821   5.268 -0.7345 -0.5363 -0.0270
18063TIP3    H175680   6.436   2.770   5.192 -0.7724  0.1911 -0.5367
18063TIP3    H275681   6.474   2.892   5.272  0.3144 -1.5160  1.6369
18064TIP3   OH275682   0.105   3.018   6.054 -0.2928 -0.3220  0.2582
18064TIP3    H175683   0.193   3.048   6.035 -0.2509  0.4155  1.5172
18064TIP3    H275684   0.069   2.995   5.969  1.1770 -0.8412 -0.2493
18065TIP3   OH275685   3.410   0.086  12.440  0.0823  0.0457 -0.0464
18065TIP3    H175686   3.405   0.016  12.505 -0.0432 -0.7816 -0.9165
18065TIP3    H275687   3.349   0.059  12.371 -0.0418  1.0674 -0.3611
18066TIP3   OH275688   5.680   4.371  10.788  0.5026 -0.0582  0.7175
18066TIP3    H175689   5.594   4.402  10.759  0.4702 -1.1938 -0.4764
18066TIP3    H275690   5.666   4.341  10.878 -0.7277 -1.6747  0.0250
18067TIP3   OH275691   2.994   1.058   2.200  0.1414  0.1415  0.0617
18067TIP3    H175692   3.067   1.046   2.140 -0.1097  1.4969 -0.5416
18067TIP3    H275693   3.031   1.104   2.275  0.2628 -0.7690  0.5892
18068TIP3   OH275694   4.558   1.980  11.840  0.0638  0.0963  0.1236
18068TIP3    H175695   4.574   1.966  11.933 -0.9357 -1.6923  0.0544
18068TIP3    H275696   4.643   2.009  11.806  0.6922 -0.1434  1.4138
18069TIP3   OH275697   2.925   4.240  16.351  0.1106  0.1030  0.3630
18069TIP3    H175698   2.982   4.271  16.421  0.5339 -0.6231  0.3477
18069TIP3    H275699   2.960   4.154  16.328 -0.9431 -0.3222  0.2995
18070TIP3   OH275700   6.233   3.977   4.003  0.1693 -0.1202  0.1053
18070TIP3    H175701   6.274   3.895   4.029 -0.4855  0.0095  1.6815
18070TIP3    H275702   6.285   4.044   4.048  0.3993  0.2904 -0.7689
18071TIP3   OH275703   5.090   0.170  11.474 -0.3400 -0.8391  0.1540
18071TIP3    H175704   5.140   0.174  11.392 -1.4391  0.9062 -0.4794
18071TIP3    H275705   5.154   0.142  11.540  2.1133  3.0569 -0.2434
18072TIP3   OH275706   5.359   4.998   2.562 -0.8702 -0.4773 -0.2033
18072TIP3    H175707   5.436   4.958   2.603 -1.1263 -2.4626 -1.4685
18072TIP3    H275708   5.356   5.087   2.596  0.4779 -1.1570  1.8845
18073TIP3   OH275709   5.469   3.473   4.210  0.6965 -0.4049 -0.3235
18073TIP3    H175710   5.462   3.412   4.138 -1.5496 -2.7769  1.6927
18073TIP3    H275711   5.381   3.511   4.218  0.7193 -0.6225  1.4279
18074TIP3   OH275712   6.463   5.963  13.930  0.4370 -0.4464 -0.0479
18074TIP3    H175713   6.430   5.920  14.009  2.3025 -1.0932  0.4334
18074TIP3    H275714   6.539   5.910  13.904  0.4283  0.3124 -1.7311
18075TIP3   OH275715   4.819   5.969  16.776  0.3884 -0.5856 -0.0076
18075TIP3    H175716   4.896   5.925  16.811  1.1840  0.4273 -0.4341
18075TIP3    H275717   4.745   5.917  16.808  1.2468 -1.7269  0.1856
18076TIP3   OH275718   4.454   5.204   5.256  1.2094 -0.0877 -0.0742
18076TIP3    H175719   4.365   5.219   5.289  1.1261  0.3762 -0.4977
18076TIP3    H275720   4.481   5.122   5.297 -0.4826 -1.7902 -2.1280
18077TIP3   OH275721   6.365   1.257   1.271  0.0225 -0.4984 -0.3968
18077TIP3    H175722   6.422   1.212   1.333  0.8204 -1.8530 -2.0375
18077TIP3    H275723   6.294   1.292   1.325  1.1234 -0.8579  1.3721
18078TIP3   OH275724   2.407   2.932  17.062  0.6299 -0.1647  0.5678
18078TIP3    H175725   2.420   2.860  17.000  1.2623  1.6969 -1.5783
18078TIP3    H275726   2.315   2.956  17.052  1.2222  1.5325 -1.3523
18079TIP3   OH275727   3.629   3.023  12.464 -0.1501 -0.1965  0.3286
18079TIP3    H175728   3.572   3.074  12.407 -0.4316 -0.6065  0.2395
18079TIP3    H275729   3.713   3.020  12.418 -0.5130 -0.9477 -0.3109
18080TIP3   OH275730   1.828   4.832   6.343 -0.4695  0.0568  0.0845
18080TIP3    H175731   1.863   4.843   6.254 -2.5010  1.9232 -0.5661
18080TIP3    H275732   1.856   4.911   6.389  0.3876 -0.8005  1.0946
18081TIP3   OH275733   5.320   0.978   2.816 -0.3355  0.0850  0.2520
18081TIP3    H175734   5.241   0.998   2.865 -0.7304  2.9934 -1.3462
18081TIP3    H275735   5.363   1.063   2.805  1.2888 -0.9179 -1.7673
18082TIP3   OH275736   0.811   3.137  13.594 -0.3185 -0.2595  0.1863
18082TIP3    H175737   0.716   3.142  13.598 -0.4501 -2.1502  4.2975
18082TIP3    H275738   0.829   3.061  13.538 -1.1433  0.2330 -0.7817
18083TIP3   OH275739   1.783   4.186   0.342  0.3496  0.0823 -0.1570
18083TIP3    H175740   1.780   4.280   0.361  2.4814 -0.0282  1.0910
18083TIP3    H275741   1.725   4.146   0.407  1.8148  0.3392  1.3787
18084TIP3   OH275742   2.687   1.308   5.513 -0.6880  0.3933 -0.4443
18084TIP3    H175743   2.726   1.223   5.531 -0.7443 -0.1076 -2.4500
18084TIP3    H275744   2.760   1.362   5.482  0.1388  2.3346  4.1794
18085TIP3   OH275745   4.272   2.830   3.482  0.6662  0.2160  0.7261
18085TIP3    H175746   4.358   2.809   3.520  0.2350  1.0130  2.2139
18085TIP3    H275747   4.280   2.922   3.456  0.5951 -0.0167 -0.1437
18086TIP3   OH275748   6.197   1.283   2.646 -0.3860  0.3262  0.1170
18086TIP3    H175749   6.104   1.260   2.649 -1.3036  3.5656  0.9200
18086TIP3    H275750   6.202   1.351   2.578  1.3304  0.4957  0.3671
18087TIP3   OH275751   3.828   2.911   5.005  0.1311 -0.0928  0.8304
18087TIP3    H175752   3.916   2.942   4.982 -0.0900 -0.5197 -0.7363
18087TIP3    H275753   3.778   2.919   4.923 -0.8166 -1.5045  1.2389
18088TIP3   OH275754   5.992   4.407   4.168  0.4672 -0.4194  0.4476
18088TIP3    H175755   6.053   4.479   4.154  0.2079 -0.0461  1.1941
18088TIP3    H275756   5.951   4.426   4.253 -0.2369 -0.9832  0.2445
18089TIP3   OH275757   6.176   0.861  14.580  0.3667  0.3527 -0.6028
18089TIP3    H175758   6.162   0.777  14.623  0.7440  0.4858 -0.2125
18089TIP3    H275759   6.214   0.917  14.648  0.3858  0.7530 -0.9367
18090TIP3   OH275760   4.400   2.873  14.236 -0.6840 -0.1301 -0.2763
18090TIP3    H175761   4.374   2.900  14.325  0.1405 -1.7631  0.4974
18090TIP3    H275762   4.494   2.890  14.232 -0.7063 -0.1218 -0.8168
18091TIP3   OH275763   2.849   2.778   1.053  0.2610  0.1802  0.3478
18091TIP3    H175764   2.825   2.767   1.145 -0.4172 -0.9064  0.0622
18091TIP3    H275765   2.766   2.778   1.006  0.4843  2.4044 -0.1519
18092TIP3   OH275766   0.202   2.453   4.054 -0.4533  0.0060 -0.2980
18092TIP3    H175767   0.189   2.358   4.057 -0.2054 -0.0090  0.3953
18092TIP3    H275768   0.285   2.464   4.008 -0.6262 -0.0938 -0.6421
18093TIP3   OH275769   3.439   1.920  12.237  0.4184 -0.3904  0.1102
18093TIP3    H175770   3.496   1.865  12.184  1.2740 -1.4970  2.0725
18093TIP3    H275771   3.389   1.858  12.290  1.7528  0.6231  2.7484
18094TIP3   OH275772   1.632   6.076  17.074 -0.6018  0.1361 -0.0580
18094TIP3    H175773   1.571   6.085  17.147 -0.1651 -0.3363  0.3729
18094TIP3    H275774   1.634   5.982  17.055  0.7319  0.0011  0.6012
18095TIP3   OH275775   3.510   1.734  14.663 -0.0199  0.2292 -0.1094
18095TIP3    H175776   3.423   1.695  14.654  0.0523  0.1600 -0.5308
18095TIP3    H275777   3.517   1.794  14.589  0.4469 -0.0641 -0.3061
18096TIP3   OH275778   4.909   2.319   5.270  0.3938 -1.0653  0.1540
18096TIP3    H175779   4.995   2.358   5.251  0.0273 -0.2269  0.1700
18096TIP3    H275780   4.923   2.225   5.259  2.0028 -1.2180  2.7671
18097TIP3   OH275781   0.711   4.922   3.286  0.2125 -0.4576 -0.4477
18097TIP3    H175782   0.772   4.939   3.358 -0.8819  0.0820  0.3823
18097TIP3    H275783   0.636   4.880   3.328  0.0782 -1.3030 -1.4862
18098TIP3   OH275784   3.120   5.477  13.561  0.7195 -0.5684  0.4364
18098TIP3    H175785   3.121   5.560  13.607 -1.8972 -1.2885  2.0380
18098TIP3    H275786   3.170   5.417  13.617 -0.5750 -0.9104  1.2724
18099TIP3   OH275787   5.617   4.870   5.914  0.1788 -0.6825 -0.2654
18099TIP3    H175788   5.522   4.866   5.905 -0.0899  1.6116  0.7909
18099TIP3    H275789   5.632   4.934   5.984  2.4906 -1.6787  0.2601
18100TIP3   OH275790   1.859   2.463  16.041 -0.2516 -0.5726 -0.2592
18100TIP3    H175791   1.914   2.531  16.081 -0.4956 -0.9331  0.7358
18100TIP3    H275792   1.921   2.402  16.001  0.0460 -0.5787  0.2033
18101TIP3   OH275793   1.052   3.300   3.508  0.1052 -0.6001 -0.4659
18101TIP3    H175794   0.991   3.363   3.546  0.9534  0.6013 -1.0080
18101TIP3    H275795   1.118   3.286   3.576  0.6487  0.1768 -0.8045
18102TIP3   OH275796   2.316   5.933   2.634  0.1238  0.7867  0.4527
18102TIP3    H175797   2.378   5.964   2.569 -0.9692  2.0383 -0.0436
18102TIP3    H275798   2.359   5.857   2.675  1.5590  1.0628 -0.4871
18103TIP3   OH275799   4.707   3.088   2.104 -0.1250 -0.3465  0.2345
18103TIP3    H175800   4.664   3.166   2.069  1.7990  1.9519  2.5617
18103TIP3    H275801   4.780   3.072   2.043 -0.9763 -0.8422 -0.6749
18104TIP3   OH275802   1.756   0.442   3.465 -0.1316 -0.3678  0.2040
18104TIP3    H175803   1.837   0.423   3.417 -0.1753  0.2112 -0.1128
18104TIP3    H275804   1.691   0.383   3.426 -0.6465  1.4139 -1.8525
18105TIP3   OH275805   6.527   0.099  14.070  0.3870  0.2761  0.5960
18105TIP3    H175806   6.452   0.040  14.064 -1.3638  2.4715 -0.6409
18105TIP3    H275807   6.575   0.085  13.989  0.7095 -0.3097  0.8770
18106TIP3   OH275808   0.078   5.593  16.321  0.4278  0.0812  0.0836
18106TIP3    H175809   0.074   5.506  16.281  0.1696  0.2030 -0.1566
18106TIP3    H275810   0.026   5.649  16.263 -1.4398 -0.0935  1.4940
18107TIP3   OH275811   3.754   2.178  11.133 -0.5963  0.4436  0.4623
18107TIP3    H175812   3.698   2.101  11.123 -1.5377  1.3155 -1.4956
18107TIP3    H275813   3.784   2.198  11.045 -0.7502  2.6025  0.8438
18108TIP3   OH275814   3.884   1.053  14.509  0.1214  0.3168  0.4515
18108TIP3    H175815   3.836   0.998  14.571  0.5833  0.7695  1.2302
18108TIP3    H275816   3.816   1.092  14.454 -0.3109  0.0345  0.7777
18109TIP3   OH275817   0.235   1.726   5.542  0.2447 -0.5043  0.1861
18109TIP3    H175818   0.230   1.638   5.505 -2.7832 -0.2964 -0.1618
18109TIP3    H275819   0.226   1.713   5.637 -0.4776 -0.5809  0.1130
18110TIP3   OH275820   5.901   3.928   2.839 -0.2169 -0.0947 -0.1178
18110TIP3    H175821   5.806   3.931   2.843 -0.2309  2.2758  4.3662
18110TIP3    H275822   5.926   3.859   2.900  0.8967  0.8815  0.5851
18111TIP3   OH275823   1.088   0.535  14.236 -0.6404 -0.2625 -0.4705
18111TIP3    H175824   1.023   0.588  14.191  0.0472  1.7569  0.7738
18111TIP3    H275825   1.168   0.544  14.185 -0.5981 -0.3748 -0.4267
18112TIP3   OH275826   5.151   2.523  12.702 -0.1351 -0.0666 -0.5762
18112TIP3    H175827   5.073   2.480  12.736 -0.2404  0.5194 -0.0666
18112TIP3    H275828   5.198   2.454  12.655  1.0077 -1.4843  2.3378
18113TIP3   OH275829   5.932   0.750   4.695 -0.1199  0.1566 -0.5911
18113TIP3    H175830   5.930   0.790   4.782 -0.2695 -2.1612  0.5388
18113TIP3    H275831   5.842   0.723   4.679  0.0445 -0.0591 -1.1781
18114TIP3   OH275832   3.771   4.578   3.450 -0.0472 -0.2399  0.1218
18114TIP3    H175833   3.716   4.615   3.381  0.4714 -0.5002 -0.4530
18114TIP3    H275834   3.732   4.493   3.469 -0.1016 -0.2350  0.0333
18115TIP3   OH275835   6.086   1.222  16.170 -0.0577 -0.3722 -0.3059
18115TIP3    H175836   6.156   1.222  16.235  1.2461  0.8386 -1.6209
18115TIP3    H275837   6.081   1.132  16.139  0.2573 -0.6668  0.4780
18116TIP3   OH275838   1.539   0.487   3.692  0.1677 -0.6191  0.4139
18116TIP3    H175839   1.531   0.581   3.706  0.0285 -0.3320 -1.3777
18116TIP3    H275840   1.497   0.448   3.769  0.2474  0.7674  1.1946
18117TIP3   OH275841   3.729   3.028  13.961 -0.0833  0.4827 -0.3308
18117TIP3    H175842   3.698   3.118  13.967  0.9478  0.9553 -1.4491
18117TIP3    H275843   3.767   3.009  14.047  0.6938  1.5308 -0.4180
18118TIP3   OH275844   3.090   1.877   0.503 -0.1040 -0.2733 -0.2394
18118TIP3    H175845   3.063   1.875   0.594  0.3388 -1.0435 -0.1215
18118TIP3    H275846   3.049   1.800   0.464  0.0513 -0.1797 -0.5926
18119TIP3   OH275847   0.649   2.765  14.813  0.2582 -0.2221 -0.2403
18119TIP3    H175848   0.607   2.718  14.885 -1.0791  0.7564 -0.3377
18119TIP3    H275849   0.663   2.698  14.746 -1.5781 -0.5321 -0.3719
18120TIP3   OH275850   4.875   4.573   4.048  0.2777  0.2640  0.3988
18120TIP3    H175851   4.896   4.485   4.081  1.4134 -0.7845 -2.6608
18120TIP3    H275852   4.793   4.561   3.999  0.3656  0.9500  0.0719
18121TIP3   OH275853   4.192   0.986   1.523  0.0206 -0.2310 -0.0570
18121TIP3    H175854   4.131   0.913   1.509  0.3562 -0.3069 -1.2661
18121TIP3    H275855   4.171   1.019   1.610  0.7767 -2.6355  1.1024
18122TIP3   OH275856   4.773   0.550  12.034 -0.7140 -0.5224  0.1730
18122TIP3    H175857   4.837   0.517  11.971 -1.1935 -0.8637 -0.1417
18122TIP3    H275858   4.825   0.599  12.098 -0.0394 -1.5724  0.4444
18123TIP3   OH275859   1.222   2.828  14.479  0.0683  0.1049  0.2380
18123TIP3    H175860   1.264   2.882  14.546  1.4530  0.2511 -0.7026
18123TIP3    H275861   1.197   2.890  14.411 -2.0768  0.0706  0.9236
18124TIP3   OH275862   0.637   6.605   2.777 -0.0574 -0.1041 -0.1798
18124TIP3    H175863   0.592   6.526   2.745 -0.5084  1.6417 -4.6196
18124TIP3    H275864   0.567   6.663   2.805 -0.1478  0.3777 -1.3516
18125TIP3   OH275865   5.263   4.565  12.513  0.2528 -0.3023 -0.2598
18125TIP3    H175866   5.236   4.590  12.602  1.1919 -0.7965  0.1732
18125TIP3    H275867   5.249   4.470  12.510  2.7712 -0.7695  0.3228
18126TIP3   OH275868   4.004   2.088   3.681 -0.0878 -0.3898  0.1757
18126TIP3    H175869   4.049   2.043   3.610  1.8235 -0.0872  1.1234
18126TIP3    H275870   3.953   2.156   3.639  2.8547  1.3461 -0.8471
18127TIP3   OH275871   4.512   4.252   2.942 -0.2287  0.2394 -0.3658
18127TIP3    H175872   4.508   4.317   3.012  2.1440 -0.1556  0.2247
18127TIP3    H275873   4.574   4.289   2.879  4.2724 -2.8073  1.7260
18128TIP3   OH275874   4.569   0.512   3.139 -0.0055 -0.5416 -0.5327
18128TIP3    H175875   4.654   0.537   3.103  0.5679 -1.1730  0.3525
18128TIP3    H275876   4.568   0.417   3.134 -0.3370 -0.5793  0.1818
18129TIP3   OH275877   4.100   4.132  15.772  0.6408 -0.2857 -0.7266
18129TIP3    H175878   4.070   4.045  15.744 -0.1544  0.0612 -0.9542
18129TIP3    H275879   4.079   4.135  15.866  1.7275 -0.7709 -0.4374
18130TIP3   OH275880   5.181   2.646   2.962  0.2305 -0.6318 -0.4337
18130TIP3    H175881   5.164   2.716   2.899 -0.9367 -0.2735  0.2519
18130TIP3    H275882   5.246   2.682   3.022 -0.9252  0.1913  0.3770
18131TIP3   OH275883   4.153   3.240  14.791 -0.2326  0.5369  0.1161
18131TIP3    H175884   4.176   3.320  14.742  0.1500  0.4146  0.0916
18131TIP3    H275885   4.059   3.248  14.806 -0.6987 -0.1861 -2.0501
18132TIP3   OH275886   5.391   0.002  15.278  0.5413  0.2329  0.1733
18132TIP3    H175887   5.333  -0.074  15.278  1.3326 -0.3806  0.0449
18132TIP3    H275888   5.475  -0.032  15.248  1.1324  0.9856  0.9221
18133TIP3   OH275889   0.181   1.311  16.635  0.0505 -0.5400  0.2457
18133TIP3    H175890   0.145   1.312  16.547 -0.2039  1.4410  0.3252
18133TIP3    H275891   0.153   1.394  16.674  2.2790 -0.2029  1.3010
18134TIP3   OH275892   0.158   3.967   5.184  0.0062  0.2409  0.0427
18134TIP3    H175893   0.237   3.957   5.237  0.2185 -2.3588 -0.6085
18134TIP3    H275894   0.185   3.940   5.096 -1.7043 -1.2595 -0.0668
18135TIP3   OH275895   3.103   4.041   0.766  0.4547 -0.3104 -0.0880
18135TIP3    H175896   3.150   3.983   0.825  1.2484  0.6863  0.2862
18135TIP3    H275897   3.082   4.117   0.819 -0.5379 -0.2342 -0.5831
18136TIP3   OH275898   5.883   3.305   0.285 -0.0750 -0.2510  0.3158
18136TIP3    H175899   5.842   3.391   0.277  0.6749 -0.0652 -2.2346
18136TIP3    H275900   5.819   3.252   0.334 -0.9618  1.4469  1.0828
18137TIP3   OH275901   0.827   3.463   5.429 -0.1013  0.0719 -0.3351
18137TIP3    H175902   0.891   3.392   5.436 -0.4338 -0.3411 -1.3186
18137TIP3    H275903   0.812   3.491   5.519  2.8434  1.4352 -0.1557
18138TIP3   OH275904   2.770   3.497  12.509  0.3604  0.4976  0.3618
18138TIP3    H175905   2.700   3.551  12.547 -0.1292  0.3792 -0.3665
18138TIP3    H275906   2.728   3.413  12.491  1.1641 -0.2186  1.6699
18139TIP3   OH275907   5.987   5.448  12.244  0.3558  0.0494  0.3839
18139TIP3    H175908   5.988   5.512  12.173 -1.9842 -0.3024 -0.0479
18139TIP3    H275909   6.017   5.367  12.203  0.3267  0.1677  0.1242
18140TIP3   OH275910   1.814   4.486   3.322 -0.5856  0.0070 -0.4405
18140TIP3    H175911   1.892   4.444   3.285 -0.4983 -0.0603 -0.1784
18140TIP3    H275912   1.831   4.491   3.416 -0.6157  0.5897 -0.4656
18141TIP3   OH275913   3.533   6.142   3.655  0.2120 -0.8835  0.0682
18141TIP3    H175914   3.520   6.105   3.568 -1.1139  1.1106 -0.6490
18141TIP3    H275915   3.503   6.232   3.648  1.2176 -0.2905  2.2940
18142TIP3   OH275916   3.561   6.524  12.414  0.3406 -0.0741 -0.4009
18142TIP3    H175917   3.546   6.517  12.509  1.1042 -1.5203 -0.3550
18142TIP3    H275918   3.560   6.433  12.383  0.2156  0.3728 -1.7720
18143TIP3   OH275919   2.994   4.210  14.825 -0.2334 -0.7578 -0.2633
18143TIP3    H175920   3.072   4.161  14.850 -1.3614 -1.8209  1.2885
18143TIP3    H275921   2.921   4.149  14.835 -1.4855  0.6867 -0.0370
18144TIP3   OH275922   0.721   2.575   0.034  0.5566  0.2574  0.0304
18144TIP3    H175923   0.704   2.495   0.083 -2.0612  0.1661 -0.9033
18144TIP3    H275924   0.672   2.643   0.081 -0.5400  0.5048 -1.4300
18145TIP3   OH275925   0.606   4.094  16.473  0.1447  0.0267  0.2326
18145TIP3    H175926   0.647   4.034  16.536 -0.0417  1.1859  1.5183
18145TIP3    H275927   0.634   4.181  16.502 -1.1761  0.6894 -0.3969
18146TIP3   OH275928   6.742   2.787   3.854 -0.2172 -0.3233 -0.5850
18146TIP3    H175929   6.660   2.805   3.808 -0.3515  0.9237  0.1122
18146TIP3    H275930   6.764   2.697   3.829 -1.9133 -0.7636 -0.5977
18147TIP3   OH275931   3.958   2.354   4.310  0.1042  0.2277  0.1179
18147TIP3    H175932   3.882   2.403   4.277  1.7540  1.8254 -1.5691
18147TIP3    H275933   3.953   2.363   4.405 -0.6462  2.1696 -0.0674
18148TIP3   OH275934   1.446   1.490  12.140  0.8379  0.5233 -0.0651
18148TIP3    H175935   1.440   1.441  12.059 -1.5164 -1.8137  1.3406
18148TIP3    H275936   1.536   1.479  12.169  0.9991 -0.9674 -1.0287
18149TIP3   OH275937   4.967   0.958  13.417 -0.4375 -0.0943 -0.0466
18149TIP3    H175938   5.047   0.924  13.459  0.4044  2.7237  0.8181
18149TIP3    H275939   4.993   0.973  13.326 -0.0623  0.4612  0.1440
18150TIP3   OH275940   2.762   4.226  12.760 -0.2188 -0.1281 -0.2460
18150TIP3    H175941   2.771   4.278  12.680 -0.0018 -0.1367 -0.2285
18150TIP3    H275942   2.844   4.177  12.766 -0.6612 -0.9184 -0.5710
18151TIP3   OH275943   5.939   5.517   3.447  0.4848  0.2072 -0.2623
18151TIP3    H175944   5.869   5.452   3.445  0.8358 -0.2128  0.5731
18151TIP3    H275945   6.005   5.480   3.506  0.9385  1.0670 -0.2086
18152TIP3   OH275946   5.328   1.645   5.244 -0.4238 -0.3385 -0.4436
18152TIP3    H175947   5.276   1.574   5.205 -1.7228  0.4783 -0.2414
18152TIP3    H275948   5.371   1.687   5.170 -1.0803 -0.2147 -0.7593
18153TIP3   OH275949   0.344   3.250   1.601 -0.4180 -0.8158 -0.2941
18153TIP3    H175950   0.380   3.189   1.666 -0.1671 -0.5756 -0.2042
18153TIP3    H275951   0.421   3.292   1.563 -0.6068  1.3098  1.4501
18154TIP3   OH275952   4.349   2.503   6.374  0.3912 -0.0325 -0.5844
18154TIP3    H175953   4.333   2.409   6.374 -1.0456  0.1983 -0.3830
18154TIP3    H275954   4.360   2.526   6.282  0.4091 -0.3435 -0.6587
18155TIP3   OH275955   5.407   4.119  14.754 -0.6285  0.1997  0.3331
18155TIP3    H175956   5.500   4.102  14.736  0.1005  0.7203  3.1010
18155TIP3    H275957   5.393   4.207  14.719 -0.4867 -0.3779 -1.2691
18156TIP3   OH275958   4.446   2.592   4.188 -0.2879 -0.0103  0.0022
18156TIP3    H175959   4.534   2.564   4.214  0.3106  0.9676 -0.8793
18156TIP3    H275960   4.410   2.516   4.141 -0.2839 -0.7429  1.1475
18157TIP3   OH275961   2.707   1.197  15.132 -0.0405  0.5600 -0.1798
18157TIP3    H175962   2.634   1.161  15.182 -0.2970  0.1965 -0.8155
18157TIP3    H275963   2.671   1.216  15.046  0.8935 -0.7692 -0.8968
18158TIP3   OH275964   3.681   4.474   4.644  0.2136  0.3642  0.1331
18158TIP3    H175965   3.642   4.444   4.562  0.9139  0.7400 -0.3427
18158TIP3    H275966   3.739   4.402   4.671  1.1324  0.8609 -0.4900
18159TIP3   OH275967   0.683   1.827  14.551  0.1326  0.5212  0.0351
18159TIP3    H175968   0.751   1.787  14.606 -0.0064 -1.4033 -1.1077
18159TIP3    H275969   0.630   1.877  14.612  0.8532 -0.3459  1.4325
18160TIP3   OH275970   1.623   3.263  12.442  0.0781 -0.5460 -0.0392
18160TIP3    H175971   1.653   3.195  12.502  0.3253 -1.4030 -1.0981
18160TIP3    H275972   1.691   3.330  12.446 -0.4940 -0.0155  1.5197
18161TIP3   OH275973   6.807   3.913  14.948  0.5508 -0.0970 -0.2106
18161TIP3    H175974   6.779   4.004  14.934  0.9858 -0.0165 -0.5514
18161TIP3    H275975   6.822   3.879  14.860 -0.3145 -0.7295 -0.1318
18162TIP3   OH275976   1.804   4.236   6.759 -0.4099 -0.0588 -0.0282
18162TIP3    H175977   1.724   4.191   6.787 -1.0862 -1.5237 -3.7246
18162TIP3    H275978   1.773   4.317   6.717 -0.2747 -1.3147 -2.7991
18163TIP3   OH275979   1.259   3.062  13.043  0.5755 -0.6621  0.5056
18163TIP3    H175980   1.315   3.039  13.117 -0.1695 -0.1181  1.2596
18163TIP3    H275981   1.236   2.978  13.003  1.7906 -0.9041  0.2600
18164TIP3   OH275982   4.152   0.455   5.851 -0.4475  0.5904 -0.9455
18164TIP3    H175983   4.181   0.446   5.942 -1.2079 -1.1375 -0.8403
18164TIP3    H275984   4.221   0.412   5.800  1.4215  3.9281 -1.5419
18165TIP3   OH275985   5.655   1.218  15.166  0.2986  0.2250  0.3682
18165TIP3    H175986   5.645   1.292  15.226  2.6296  1.0168 -0.0934
18165TIP3    H275987   5.662   1.258  15.079 -0.6063 -0.7235 -0.1553
18166TIP3   OH275988   0.327   3.215   3.933  0.1282  0.5489  0.1895
18166TIP3    H175989   0.379   3.288   3.899  0.1961  1.7439  2.6348
18166TIP3    H275990   0.343   3.143   3.872  1.1424  2.1723 -1.5529
18167TIP3   OH275991   4.687   2.321  12.653  0.2082 -0.5522  0.0668
18167TIP3    H175992   4.639   2.371  12.719  0.4244 -0.2736  0.0199
18167TIP3    H275993   4.779   2.341  12.671  0.2253  1.4397 -1.7502
18168TIP3   OH275994   5.480   1.375   5.325  0.0014  0.3051  0.0949
18168TIP3    H175995   5.471   1.452   5.269  1.4589  0.4386 -0.0057
18168TIP3    H275996   5.500   1.409   5.411  0.7139  0.0443  0.0376
18169TIP3   OH275997   4.961   4.707   3.746 -0.3038  0.6430  0.3336
18169TIP3    H175998   4.887   4.768   3.742  0.3557  1.6747  2.5227
18169TIP3    H275999   5.035   4.759   3.714 -0.3323 -0.1405 -1.0901
18170TIP3   OH276000   4.848   6.686  16.006 -0.1573  0.0251 -0.6821
18170TIP3    H176001   4.850   6.773  15.966  0.9860  1.4006  2.0956
18170TIP3    H276002   4.786   6.695  16.079  0.2434 -1.4022 -0.1340
18171TIP3   OH276003   0.103   5.940   6.813  0.0894  0.2773 -0.5900
18171TIP3    H176004   0.179   5.905   6.859 -0.4413  1.6395  1.4466
18171TIP3    H276005   0.126   5.935   6.720  2.4857  0.3067 -0.0452
18172TIP3   OH276006   3.406   4.128  13.190 -0.4477  0.1154  0.5584
18172TIP3    H176007   3.361   4.089  13.266 -0.8857 -2.7866 -1.0369
18172TIP3    H276008   3.345   4.117  13.118  1.1792 -0.1097 -0.8494
18173TIP3   OH276009   3.238   5.513  10.723 -0.2143 -0.7957 -0.4671
18173TIP3    H176010   3.296   5.445  10.691 -0.3877 -2.0426  1.6346
18173TIP3    H276011   3.229   5.495  10.817 -1.6743  1.0882 -0.1640
18174TIP3   OH276012   2.132   3.707   1.418  0.3949 -0.4832  0.5383
18174TIP3    H176013   2.062   3.752   1.465 -0.9106 -2.2205  0.3502
18174TIP3    H276014   2.128   3.743   1.329 -1.6109 -1.9136 -0.0128
18175TIP3   OH276015   0.825   0.965  14.621  0.2651 -0.6934  0.0927
18175TIP3    H176016   0.822   1.019  14.541  0.5116  2.2729  1.9106
18175TIP3    H276017   0.917   0.943  14.631  0.1562 -1.5763 -0.7011
18176TIP3   OH276018   6.482   4.326   5.229  0.2596 -0.4698  0.5387
18176TIP3    H176019   6.507   4.284   5.311  1.6488 -0.0880  0.3364
18176TIP3    H276020   6.417   4.392   5.254 -0.2159 -1.1589  1.1541
18177TIP3   OH276021   2.597   6.263  13.477 -0.1760  0.0955 -0.0994
18177TIP3    H176022   2.616   6.231  13.389  0.0284 -0.0145 -0.0162
18177TIP3    H276023   2.631   6.195  13.535 -1.9594 -0.7317  0.0380
18178TIP3   OH276024   3.070   0.464  13.128 -0.6890 -0.7144  0.3157
18178TIP3    H176025   3.100   0.437  13.041  0.0371 -0.8249  0.5926
18178TIP3    H276026   3.015   0.541  13.112  0.5463  0.1130 -0.1406
18179TIP3   OH276027   4.828   4.693   3.436 -0.1866  0.4055 -0.1548
18179TIP3    H176028   4.818   4.621   3.374  0.4421  0.7092 -0.6228
18179TIP3    H276029   4.857   4.651   3.517 -1.2110 -0.0160  0.0115
18180TIP3   OH276030   0.507   2.000   2.989 -0.3790  0.0545 -0.1136
18180TIP3    H176031   0.474   2.047   3.065  0.7118  1.5179 -0.4902
18180TIP3    H276032   0.473   2.049   2.914  0.1904 -0.1758 -0.5319
18181TIP3   OH276033   1.850   4.190   0.657  0.4678 -0.7406  0.0806
18181TIP3    H176034   1.918   4.188   0.590 -1.3071 -0.7692 -1.8353
18181TIP3    H276035   1.850   4.280   0.690  1.0763 -0.6110 -0.2651
18182TIP3   OH276036   4.871   2.495   2.087 -0.0881 -0.1111  0.1491
18182TIP3    H176037   4.901   2.575   2.130 -0.7358  0.2887 -0.1261
18182TIP3    H276038   4.784   2.478   2.125  0.4228 -1.1968  0.8703
18183TIP3   OH276039   1.704   3.124  11.456 -0.2511  0.5210  0.6949
18183TIP3    H176040   1.765   3.185  11.415  1.0366 -1.0379  0.1513
18183TIP3    H276041   1.619   3.144  11.416 -0.0609  2.4573  1.1566
18184TIP3   OH276042   3.987   6.563  13.261 -0.3873  0.1341 -1.0870
18184TIP3    H176043   4.049   6.569  13.188  2.1314  0.3551  0.9374
18184TIP3    H276044   4.024   6.619  13.329 -1.7466 -1.3318  0.9784
18185TIP3   OH276045   2.950   1.999  16.669  0.4454 -0.2952  0.0394
18185TIP3    H176046   3.027   2.056  16.660  1.2518 -1.3774 -0.2048
18185TIP3    H276047   2.967   1.949  16.750 -0.0088 -0.5219 -0.0042
18186TIP3   OH276048   4.977   2.254  13.393 -0.2943  0.1995  0.0355
18186TIP3    H176049   4.980   2.181  13.331 -1.9468  0.5052 -0.4562
18186TIP3    H276050   5.065   2.258  13.429  0.6514 -0.2106 -2.0509
18187TIP3   OH276051   1.765   1.625   4.148 -0.0617  0.3339  0.0950
18187TIP3    H176052   1.714   1.669   4.216 -1.1121  1.4313 -1.3447
18187TIP3    H276053   1.702   1.609   4.078  1.2345  0.2670 -1.0878
18188TIP3   OH276054   5.997   1.144  16.505  0.1184 -0.5576 -0.5136
18188TIP3    H176055   6.029   1.234  16.518 -1.0333 -0.2277  0.2586
18188TIP3    H276056   5.933   1.152  16.434 -0.4088 -0.6420 -0.0597
18189TIP3   OH276057   3.512   2.697  14.655 -0.3486 -0.6360  0.0749
18189TIP3    H176058   3.448   2.716  14.724 -0.7889 -0.0929 -0.4710
18189TIP3    H276059   3.575   2.639  14.696  0.3712  1.0338  1.4742
18190TIP3   OH276060   0.970   3.717   0.877  0.2713 -0.3057  0.4456
18190TIP3    H176061   0.992   3.801   0.836 -0.0063 -0.1105  0.6987
18190TIP3    H276062   0.913   3.674   0.814 -1.3536  0.6139  1.2455
18191TIP3   OH276063   4.355   1.534  11.341  0.7698  0.4208  0.0740
18191TIP3    H176064   4.394   1.468  11.283  1.3956  0.1617  0.7769
18191TIP3    H276065   4.376   1.504  11.429 -1.3632  0.0744  0.4989
18192TIP3   OH276066   5.502   3.482   4.482 -0.0573  0.0193  0.1233
18192TIP3    H176067   5.585   3.529   4.488 -0.9809  1.5942  1.4218
18192TIP3    H276068   5.486   3.472   4.389  0.2757  2.1897 -0.2013
18193TIP3   OH276069   3.385   1.950   3.688  0.1760 -0.5725  0.2438
18193TIP3    H176070   3.477   1.963   3.709  0.0609  0.4617  0.1566
18193TIP3    H276071   3.341   2.028   3.722 -0.9869 -1.9765  2.1814
18194TIP3   OH276072   4.922   6.504   1.628 -0.2572  0.2185 -0.5027
18194TIP3    H176073   5.012   6.534   1.618 -0.5434  1.2483 -0.0442
18194TIP3    H276074   4.900   6.522   1.720 -0.6893 -0.7188 -0.3999
18195TIP3   OH276075   1.936   0.343  15.861 -0.3235 -0.5015 -0.2094
18195TIP3    H176076   1.979   0.382  15.937  1.8284  0.1208 -1.6433
18195TIP3    H276077   1.971   0.392  15.786 -3.5971  0.0452 -1.5606
18196TIP3   OH276078   2.624   1.360   2.007 -0.4167  1.1170  0.2189
18196TIP3    H176079   2.607   1.436   1.951  1.5200 -0.1305 -2.2764
18196TIP3    H276080   2.559   1.295   1.980 -0.3533  0.9709  0.4187
18197TIP3   OH276081   6.603   2.985  16.731 -0.7157  0.0363 -0.3078
18197TIP3    H176082   6.588   2.923  16.803 -1.1507  0.4286 -0.0513
18197TIP3    H276083   6.520   2.988  16.684 -0.6637  0.3412 -0.3822
18198TIP3   OH276084   1.836   0.179  15.642  0.4431  0.8104 -0.4503
18198TIP3    H176085   1.750   0.221  15.647 -0.5438 -1.1480  0.1010
18198TIP3    H276086   1.883   0.211  15.718 -0.4865  0.5501  0.2573
18199TIP3   OH276087   4.519   1.702   0.901  0.7286 -0.7960 -0.2189
18199TIP3    H176088   4.601   1.751   0.897  0.8576 -1.0684 -1.5672
18199TIP3    H276089   4.492   1.706   0.993  1.5871  0.3791  0.0034
18200TIP3   OH276090   1.673   3.439   3.015 -0.6787  0.5093 -0.1191
18200TIP3    H176091   1.688   3.421   3.108 -1.6012  0.1497 -0.0277
18200TIP3    H276092   1.625   3.362   2.983  0.0099  0.4262 -1.0009
18201TIP3   OH276093   0.925   1.210  13.954 -0.4950  0.3081 -0.0523
18201TIP3    H176094   0.993   1.273  13.929 -2.2314  2.4497  0.3079
18201TIP3    H276095   0.942   1.134  13.898  0.8604  1.6313 -1.5622
18202TIP3   OH276096   4.682   6.273   3.862  0.1170  0.4053  0.0309
18202TIP3    H176097   4.622   6.336   3.822  0.6939  0.0976 -1.4073
18202TIP3    H276098   4.767   6.292   3.822  0.3607 -1.0702 -0.2411
18203TIP3   OH276099   5.124   1.675   4.026  0.0811 -0.2729  0.0963
18203TIP3    H176100   5.116   1.588   3.986  2.5797  0.5450 -2.5216
18203TIP3    H276101   5.219   1.688   4.036 -0.1458  2.4919 -0.5201
18204TIP3   OH276102   6.471   2.846  11.272 -0.2846 -0.3790  0.1890
18204TIP3    H176103   6.477   2.891  11.188  0.5773 -2.0336 -0.6924
18204TIP3    H276104   6.546   2.877  11.322 -0.7101  0.4908  0.2991
18205TIP3   OH276105   0.915   1.722   3.630  0.2593 -0.7316 -0.6656
18205TIP3    H176106   0.845   1.783   3.655 -0.0661 -0.4421 -2.1852
18205TIP3    H276107   0.957   1.700   3.712 -1.4947 -0.7592  0.2779
18206TIP3   OH276108   2.125   6.654  16.047  0.2653 -0.2193  0.4384
18206TIP3    H176109   2.141   6.743  16.017 -1.8553  0.1488  0.2469
18206TIP3    H276110   2.119   6.602  15.967 -2.0620  0.1636  0.2955
18207TIP3   OH276111   4.725   1.583   4.201 -0.2703 -0.3978 -0.6060
18207TIP3    H176112   4.715   1.553   4.111 -1.9190  0.9850 -0.9365
18207TIP3    H276113   4.641   1.626   4.221  0.4211  0.1697  1.2483
18208TIP3   OH276114   2.320   6.267  14.905 -0.1347 -0.5313 -0.2449
18208TIP3    H176115   2.359   6.234  14.824 -1.3198 -0.9241 -0.6883
18208TIP3    H276116   2.260   6.336  14.876 -0.6135 -0.7182  0.2912
18209TIP3   OH276117   2.481   1.376   2.404 -0.8464  0.6952 -0.6018
18209TIP3    H176118   2.427   1.419   2.337 -2.0333 -2.5066 -1.9263
18209TIP3    H276119   2.568   1.369   2.364 -0.9540  0.8055 -0.8621
18210TIP3   OH276120   0.537   2.765   6.846  0.6329  0.2985  0.1684
18210TIP3    H176121   0.503   2.833   6.904 -0.8020 -1.1146  1.0477
18210TIP3    H276122   0.461   2.735   6.796  1.2199 -0.7003 -0.1625
18211TIP3   OH276123   6.407   5.303   2.137  0.0532  0.5479 -0.2491
18211TIP3    H176124   6.482   5.278   2.190  0.9042 -0.6476 -1.9309
18211TIP3    H276125   6.425   5.394   2.111  0.2322  0.7185  0.4425
18212TIP3   OH276126   1.246   5.694  14.023 -0.4492  0.5015 -0.4074
18212TIP3    H176127   1.244   5.604  14.055  0.6487  0.5856 -0.0567
18212TIP3    H276128   1.338   5.718  14.025 -0.5967  1.2442 -1.6394
18213TIP3   OH276129   1.427   1.719   1.103  0.0251 -0.0140  0.2337
18213TIP3    H176130   1.411   1.704   1.196 -2.8195  0.1908 -0.1358
18213TIP3    H276131   1.368   1.791   1.080  1.1774  0.4033 -1.5953
18214TIP3   OH276132   2.183   1.132  10.760  0.3739 -0.4487  0.8946
18214TIP3    H176133   2.190   1.227  10.768  0.1516 -0.3798  0.3551
18214TIP3    H276134   2.092   1.113  10.781 -0.8494 -0.0226 -3.1078
18215TIP3   OH276135   1.890   2.393  16.493 -0.0892  0.1191  0.9654
18215TIP3    H176136   1.845   2.309  16.479 -1.4095  1.0185 -0.4111
18215TIP3    H276137   1.981   2.368  16.509 -0.4220 -1.5692  0.4810
18216TIP3   OH276138   2.840   1.646  13.411 -0.6284 -0.3675 -0.2747
18216TIP3    H176139   2.864   1.737  13.396  0.9618 -0.7234 -0.0831
18216TIP3    H276140   2.851   1.603  13.326  0.1270 -0.6807 -0.0243
18217TIP3   OH276141   4.650   5.944  12.752 -0.0841 -0.1758  0.2048
18217TIP3    H176142   4.705   5.878  12.794  0.9445  1.8350  2.2120
18217TIP3    H276143   4.707   6.020  12.741 -1.7629  1.1216 -0.0387
18218TIP3   OH276144   4.852   6.104   4.559 -0.1098 -0.0205 -0.3785
18218TIP3    H176145   4.861   6.074   4.649  1.7117  2.2290  0.2839
18218TIP3    H276146   4.928   6.066   4.514  0.7298  1.3674 -0.1701
18219TIP3   OH276147   4.673   3.660   1.719  0.7920  0.0265 -0.7464
18219TIP3    H176148   4.756   3.696   1.750 -0.8400  2.0259  1.6798
18219TIP3    H276149   4.663   3.694   1.630  1.5208  1.6686 -0.2255
18220TIP3   OH276150   6.614   1.293  14.242 -0.0441 -0.7748  0.1949
18220TIP3    H176151   6.574   1.373  14.276 -1.5126 -1.1699 -0.5318
18220TIP3    H276152   6.570   1.223  14.290 -2.4052 -1.3712 -2.5630
18221TIP3   OH276153   3.970   0.036   2.029  0.2359 -0.5144  0.1631
18221TIP3    H176154   4.017   0.049   1.947 -0.8390 -1.4035 -0.6205
18221TIP3    H276155   3.888  -0.007   2.004 -0.1753 -0.6906  1.6882
18222TIP3   OH276156   0.937   3.757   1.177  0.3910 -0.0723  0.4175
18222TIP3    H176157   0.945   3.723   1.088  0.1256 -0.5527  0.5767
18222TIP3    H276158   0.986   3.839   1.176  0.4631 -0.1220 -0.1479
18223TIP3   OH276159   1.232   4.313  14.769  0.2441  0.3951  0.2890
18223TIP3    H176160   1.213   4.224  14.801 -2.0214  1.1412  1.2670
18223TIP3    H276161   1.298   4.346  14.830  0.1514 -0.1909  0.7244
18224TIP3   OH276162   5.294   6.718  12.370 -0.1035  0.2129 -0.1303
18224TIP3    H176163   5.271   6.804  12.405  1.4348  1.3407 -1.7489
18224TIP3    H276164   5.217   6.664  12.387 -1.7005  2.2971 -0.3545
18225TIP3   OH276165   1.338   1.421   1.725 -0.2095  0.2967  0.1353
18225TIP3    H176166   1.424   1.433   1.685 -0.0566  0.9810  0.6446
18225TIP3    H276167   1.287   1.497   1.697 -1.4521 -1.2382 -2.0992
18226TIP3   OH276168   0.308   0.769  16.214  0.0067 -0.2423 -0.0984
18226TIP3    H176169   0.235   0.784  16.155 -0.5984 -0.0886  0.6711
18226TIP3    H276170   0.385   0.772  16.158 -0.4934  0.5947 -0.7688
18227TIP3   OH276171   2.433   0.803  15.608  0.2982 -0.6306  0.1535
18227TIP3    H176172   2.386   0.886  15.599  1.0936  0.3645  3.7753
18227TIP3    H276173   2.489   0.800  15.530 -1.2350  1.1424 -1.1380
18228TIP3   OH276174   1.104   0.753  11.363  0.0458  0.2627 -0.5864
18228TIP3    H176175   1.022   0.704  11.356  0.1109  0.1414 -0.5187
18228TIP3    H276176   1.079   0.844  11.350 -0.6713  0.6830  2.8533
18229TIP3   OH276177   1.269   2.594  11.646 -0.2044  0.6043 -0.1949
18229TIP3    H176178   1.272   2.561  11.736  3.0861  0.4949 -0.2291
18229TIP3    H276179   1.259   2.688  11.655 -0.2154  0.5593  0.2866
18230TIP3   OH276180   5.114   5.847   1.586  0.4707 -0.4413  0.1484
18230TIP3    H176181   5.168   5.886   1.517  0.1811 -0.7063 -0.2291
18230TIP3    H276182   5.128   5.753   1.578 -0.2752 -0.5303 -0.1443
18231TIP3   OH276183   1.059   5.346   3.196 -0.7753  0.1475  0.5547
18231TIP3    H176184   1.000   5.377   3.264  0.3779 -1.1194  2.1978
18231TIP3    H276185   1.073   5.253   3.215  0.9371  0.1566 -0.3761
18232TIP3   OH276186   4.490   1.105  13.527  0.3975  0.3250 -0.2387
18232TIP3    H176187   4.521   1.182  13.575 -1.4968  1.1100 -0.1887
18232TIP3    H276188   4.493   1.132  13.435  0.0267  0.3597 -0.2416
18233TIP3   OH276189   3.293   5.763  10.633  0.0893 -0.0576 -0.2616
18233TIP3    H176190   3.215   5.799  10.591  1.0103 -0.2977 -2.3481
18233TIP3    H276191   3.269   5.673  10.656 -0.8090  0.4462  0.8607
18234TIP3   OH276192   4.773   0.770  14.864  0.1458  0.6429 -0.4851
18234TIP3    H176193   4.799   0.839  14.924 -1.3109  1.1720 -0.4290
18234TIP3    H276194   4.703   0.809  14.811 -2.2593 -1.3537  0.9668
18235TIP3   OH276195   5.831   1.244  15.791  0.8929  0.1255 -0.2883
18235TIP3    H176196   5.831   1.300  15.869  0.4996 -1.1725  0.6768
18235TIP3    H276197   5.756   1.274  15.740  0.8366  0.6373  0.0814
18236TIP3   OH276198   1.219   4.300   3.876 -0.6849 -0.3553 -0.1472
18236TIP3    H176199   1.158   4.373   3.889  0.8920  1.1381 -0.6945
18236TIP3    H276200   1.266   4.294   3.960  0.0439  0.1327 -0.5041
18237TIP3   OH276201   3.644   4.861  16.244 -0.7617  0.1311  0.1895
18237TIP3    H176202   3.725   4.899  16.209  0.0688 -1.2875  0.4776
18237TIP3    H276203   3.641   4.893  16.335 -0.3386 -0.0770  0.2804
18238TIP3   OH276204   1.026   6.463  11.766  0.1391  0.4184 -0.3978
18238TIP3    H176205   1.116   6.432  11.753  0.0155 -1.6180  2.5317
18238TIP3    H276206   0.972   6.394  11.727 -0.0885 -1.1515  2.4122
18239TIP3   OH276207   6.158   2.499   5.571  0.4488 -0.1271  0.2233
18239TIP3    H176208   6.132   2.589   5.551 -0.6266 -0.0130  1.9282
18239TIP3    H276209   6.209   2.471   5.495  1.1031  2.0341 -0.1914
18240TIP3   OH276210   5.195   1.827  13.651  0.2715  0.0228  0.2639
18240TIP3    H176211   5.288   1.807  13.636  1.2835  3.4835  0.9742
18240TIP3    H276212   5.192   1.859  13.741 -1.0678  2.3956 -0.5474
18241TIP3   OH276213   4.885   5.780   2.951  0.3800  0.3971  0.3692
18241TIP3    H176214   4.791   5.763   2.963 -0.1158  2.0390 -0.8546
18241TIP3    H276215   4.902   5.750   2.861  1.2355 -0.6231  0.8550
18242TIP3   OH276216   4.800   6.364   5.350 -0.1595 -0.2444 -0.1453
18242TIP3    H176217   4.894   6.381   5.353 -0.4323  1.3618  1.9782
18242TIP3    H276218   4.778   6.368   5.257  2.0828 -2.3011 -0.8497
18243TIP3   OH276219   1.159   3.493  12.952 -0.1053  0.2306 -0.0726
18243TIP3    H176220   1.081   3.548  12.964 -0.8630 -0.7367 -0.3556
18243TIP3    H276221   1.188   3.511  12.863 -1.0423 -0.6304 -0.5830
18244TIP3   OH276222   6.444   2.260   1.581 -0.1919 -0.2476  0.0975
18244TIP3    H176223   6.454   2.295   1.670 -2.2282  1.3032 -0.2327
18244TIP3    H276224   6.532   2.229   1.558  0.6759  0.5144  2.1316
18245TIP3   OH276225   6.367   6.763  16.875 -0.4697  0.3061 -0.2338
18245TIP3    H176226   6.374   6.671  16.900 -0.4490  0.0443 -1.1617
18245TIP3    H276227   6.320   6.762  16.792 -2.5260  1.3192  0.8449
18246TIP3   OH276228   2.231   6.464  10.872 -0.7928  0.1478 -0.1746
18246TIP3    H176229   2.289   6.415  10.930 -0.7784 -0.3669 -0.6232
18246TIP3    H276230   2.258   6.439  10.784 -0.7120  1.0424 -0.4129
18247TIP3   OH276231   0.719   2.079   5.794 -0.1862 -0.4979 -0.3241
18247TIP3    H176232   0.776   2.004   5.807  1.3166  0.6575  0.0998
18247TIP3    H276233   0.648   2.067   5.857  0.8697 -0.7881  0.8359
18248TIP3   OH276234   5.546   3.414  13.935 -0.0797  0.7578  0.1281
18248TIP3    H176235   5.451   3.403  13.925 -0.4240  2.7797  0.6702
18248TIP3    H276236   5.569   3.478  13.867  1.0561 -0.2879 -0.4991
18249TIP3   OH276237   3.428   0.780   2.907  0.2156  0.2448 -0.4882
18249TIP3    H176238   3.508   0.778   2.960  0.3556  0.2917 -0.6992
18249TIP3    H276239   3.408   0.873   2.896  0.6060  0.2517 -1.1527
18250TIP3   OH276240   5.279   0.853  11.827 -0.5063  0.3115 -0.0496
18250TIP3    H176241   5.278   0.937  11.782  0.6382  0.7805  0.7400
18250TIP3    H276242   5.293   0.875  11.919  0.0852 -0.7481  0.1378
18251TIP3   OH276243   0.791   5.573   4.011 -0.0320 -0.3139 -0.1005
18251TIP3    H176244   0.852   5.624   4.063 -1.1528  0.6905  0.2914
18251TIP3    H276245   0.729   5.537   4.074  0.5572 -1.9497 -0.4088
18252TIP3   OH276246   0.502   1.715   2.838 -0.3370  0.5985  0.6185
18252TIP3    H176247   0.546   1.796   2.866  0.2496 -0.2128  2.1122
18252TIP3    H276248   0.417   1.717   2.881 -0.5212  0.6445  0.2592
18253TIP3   OH276249   6.702   3.575  14.789  0.4133 -0.0120 -0.5368
18253TIP3    H176250   6.660   3.589  14.875 -0.6183  2.0617 -1.3048
18253TIP3    H276251   6.730   3.663  14.762 -1.6785 -0.1150 -3.4743
18254TIP3   OH276252   0.126   1.469   3.377  0.7720  0.3338 -0.0855
18254TIP3    H176253   0.173   1.540   3.333  1.8285 -0.4402 -0.2339
18254TIP3    H276254   0.122   1.497   3.469 -0.8907  1.6561 -0.5001
18255TIP3   OH276255   6.506   0.501  13.877  0.0791  0.0922 -0.3213
18255TIP3    H176256   6.565   0.427  13.860 -1.1139 -0.7382 -0.9923
18255TIP3    H276257   6.445   0.468  13.943  1.4097  1.5414  1.7455
18256TIP3   OH276258   0.281   2.711   2.178 -0.1975 -0.3718 -0.2193
18256TIP3    H176259   0.217   2.780   2.163  0.6120 -0.2169 -3.8708
18256TIP3    H276260   0.341   2.747   2.242 -1.3304  1.1936  0.0162
18257TIP3   OH276261   2.521   1.166   2.787 -0.1821  0.0588  0.6557
18257TIP3    H176262   2.509   1.257   2.759  1.8943 -0.1712 -1.2527
18257TIP3    H276263   2.443   1.121   2.757  0.1099  0.6673 -1.1247
18258TIP3   OH276264   2.367   3.170  15.058 -0.0282  0.4162  0.7905
18258TIP3    H176265   2.272   3.174  15.072 -0.4213 -1.4897 -0.8601
18258TIP3    H276266   2.386   3.246  15.002 -0.4755  1.0864  1.5277
18259TIP3   OH276267   3.614   4.581  12.445  0.3602 -0.1448 -0.1245
18259TIP3    H176268   3.638   4.489  12.460 -1.6281 -1.3300 -3.1366
18259TIP3    H276269   3.540   4.596  12.504  0.7246 -0.4460  0.4181
18260TIP3   OH276270   3.710   3.317   4.750 -0.1462  0.0440  0.6066
18260TIP3    H176271   3.706   3.413   4.745  0.9659  0.0380 -0.8600
18260TIP3    H276272   3.782   3.293   4.692 -0.2871 -1.6849  1.1058
18261TIP3   OH276273   1.599   2.715  15.157  0.2847  0.4162  0.3322
18261TIP3    H176274   1.509   2.706  15.125  0.0836  2.9930 -0.0442
18261TIP3    H276275   1.620   2.629  15.193 -2.3675 -0.2511  0.5339
18262TIP3   OH276276   3.769   5.942  17.000  0.3811 -0.4557  0.1748
18262TIP3    H176277   3.814   6.024  16.980  2.9802 -2.2704 -2.2152
18262TIP3    H276278   3.835   5.890  17.046 -0.4098 -2.0063 -0.3799
18263TIP3   OH276279   5.076   0.524   4.957  0.0526  0.1115  0.3842
18263TIP3    H176280   5.098   0.439   4.920  0.4920  0.1275  0.5998
18263TIP3    H276281   4.981   0.533   4.945 -0.1653 -0.8444  1.2567
18264TIP3   OH276282   2.267   6.384  12.405  0.1942  0.7367  0.4007
18264TIP3    H176283   2.315   6.302  12.391 -0.7161  0.3022 -0.3271
18264TIP3    H276284   2.331   6.444  12.442  0.6101 -0.6443  2.0448
18265TIP3   OH276285   3.377   5.232  11.284 -0.0585  0.5093  0.4401
18265TIP3    H176286   3.323   5.170  11.333 -1.8519  1.8788  0.2930
18265TIP3    H276287   3.465   5.221  11.321 -0.8630 -0.2272  2.2708
18266TIP3   OH276288   0.654   4.293  13.787  0.3137  0.2223 -0.2804
18266TIP3    H176289   0.626   4.250  13.706  2.3285  0.9124 -1.4162
18266TIP3    H276290   0.667   4.384  13.762 -0.9731  0.8977  1.3600
18267TIP3   OH276291   1.708   0.844  14.892  0.0557  0.1736 -0.4208
18267TIP3    H176292   1.707   0.751  14.911 -1.5719  0.4927  1.4489
18267TIP3    H276293   1.649   0.882  14.958  1.3490  2.6226 -0.5723
18268TIP3   OH276294   5.065   6.523   2.170 -0.4914  0.3635 -0.1965
18268TIP3    H176295   5.104   6.611   2.170 -2.1423  1.1296 -0.2931
18268TIP3    H276296   5.045   6.505   2.262 -0.3620  0.1844 -0.2033
18269TIP3   OH276297   6.227   0.521  13.447  0.2709 -0.4810 -0.6527
18269TIP3    H176298   6.240   0.456  13.377  0.5733 -0.3895 -0.6798
18269TIP3    H276299   6.247   0.605  13.406 -0.7310 -0.2985 -0.7942
18270TIP3   OH276300   5.146   0.050   5.809  0.0065 -0.3400 -0.1178
18270TIP3    H176301   5.191  -0.033   5.825 -0.4334 -0.4593  0.5845
18270TIP3    H276302   5.060   0.039   5.851 -0.3397  0.1975 -0.6673
18271TIP3   OH276303   2.707   1.945  13.709  0.3078 -0.2001  0.3452
18271TIP3    H176304   2.655   2.018  13.743  1.3375  1.4850 -1.4398
18271TIP3    H276305   2.656   1.911  13.636  0.8153  0.2719 -0.2548
18272TIP3   OH276306   2.690   2.139  11.941 -0.0700  0.0706  0.4635
18272TIP3    H176307   2.773   2.176  11.971 -0.2362  0.1170  0.8749
18272TIP3    H276308   2.624   2.191  11.986 -0.3102 -1.4319  1.9480
18273TIP3   OH276309   0.399   0.451   1.062  0.1445 -0.2511 -0.2025
18273TIP3    H176310   0.442   0.458   0.977 -0.7403 -1.1116 -0.7480
18273TIP3    H276311   0.306   0.462   1.042 -0.0954 -0.7563  0.6122
18274TIP3   OH276312   5.734   2.215   3.421  0.0609 -0.5334  0.2040
18274TIP3    H176313   5.660   2.259   3.464  0.5624 -0.8152  1.4077
18274TIP3    H276314   5.796   2.286   3.403 -0.6432 -0.2382 -1.1628
18275TIP3   OH276315   6.771   4.625  17.241  0.0809  0.1936 -0.2088
18275TIP3    H176316   6.713   4.625  17.318 -1.6482  1.5423 -1.4533
18275TIP3    H276317   6.837   4.559  17.262 -1.1449 -0.4824  1.8362
18276TIP3   OH276318   6.284   0.497   2.350 -0.5665  0.6070  0.2004
18276TIP3    H176319   6.343   0.569   2.328  0.4979 -0.6004 -1.0410
18276TIP3    H276320   6.203   0.518   2.304 -0.1597  0.8453 -0.4153
18277TIP3   OH276321   2.811   3.866  13.230  0.4223  0.2056 -0.3245
18277TIP3    H176322   2.797   3.803  13.301 -0.5522  1.3432  0.5322
18277TIP3    H276323   2.765   3.828  13.155  1.0693 -0.7881 -0.2342
18278TIP3   OH276324   5.201   4.710  12.079  0.1031  0.1735 -0.4263
18278TIP3    H176325   5.138   4.769  12.120  0.2708 -0.0126  0.1144
18278TIP3    H276326   5.231   4.654  12.150  0.5403 -0.0379 -0.7700
18279TIP3   OH276327   6.661   4.710  14.464  0.0308  0.4704 -0.1575
18279TIP3    H176328   6.652   4.744  14.375  0.8146  2.0081  0.3065
18279TIP3    H276329   6.755   4.702  14.478 -0.1146 -1.1362  0.0670
18280TIP3   OH276330   5.207   2.431  16.046 -0.4275  0.0196 -0.0731
18280TIP3    H176331   5.114   2.413  16.035 -0.2016 -1.2536 -0.0962
18280TIP3    H276332   5.212   2.525  16.058 -1.7796  0.0451  0.5152
18281TIP3   OH276333   1.683   5.089  13.422  0.2676 -0.4490  0.1851
18281TIP3    H176334   1.649   5.030  13.355  1.7785  0.7133 -1.7223
18281TIP3    H276335   1.772   5.056  13.439  1.9682  2.2660 -2.4538
18282TIP3   OH276336   5.160   0.037   4.486  0.1778 -0.1416  0.0656
18282TIP3    H176337   5.164  -0.001   4.398  1.3570 -1.2558  0.5835
18282TIP3    H276338   5.094  -0.015   4.532  0.0407  0.0215  0.0583
18283TIP3   OH276339   1.517   6.037  15.085 -0.2557  0.2822 -0.0726
18283TIP3    H176340   1.540   6.064  15.174  0.9934 -0.3292 -0.1895
18283TIP3    H276341   1.601   6.023  15.041 -0.8398  1.3120 -1.5909
18284TIP3   OH276342   1.982   3.978   1.286  0.7762 -0.3804 -0.2193
18284TIP3    H176343   1.951   3.928   1.211  2.1217 -1.3903 -0.1418
18284TIP3    H276344   2.039   4.045   1.248  0.0817  0.2268 -0.2133
18285TIP3   OH276345   0.015   0.677   2.980  0.0937  0.0092  0.1090
18285TIP3    H176346  -0.043   0.641   3.046  1.6347 -0.3050  1.3574
18285TIP3    H276347   0.097   0.694   3.026  0.1659  3.1409 -0.8767
18286TIP3   OH276348   3.917   2.427  14.215  0.3507  0.0233  0.1162
18286TIP3    H176349   3.904   2.406  14.308  1.1306  1.0600  0.4760
18286TIP3    H276350   4.006   2.398  14.196  0.3919  0.3289 -0.1584
18287TIP3   OH276351   1.494   3.559   5.691 -0.3056 -0.0450 -0.0003
18287TIP3    H176352   1.466   3.615   5.619  0.6433  1.6296  0.8580
18287TIP3    H276353   1.581   3.529   5.666  0.7198  1.8311  1.0406
18288TIP3   OH276354   4.060   2.385  12.954 -0.3118  0.2529 -0.2969
18288TIP3    H176355   4.090   2.467  12.914 -2.4141  2.1334  1.6655
18288TIP3    H276356   4.035   2.410  13.043  0.4042 -2.8996  0.9005
18289TIP3   OH276357   5.540   1.583   0.559 -0.2385  0.5454  0.0931
18289TIP3    H176358   5.620   1.542   0.589  1.6411  2.6177 -1.6907
18289TIP3    H276359   5.517   1.534   0.479 -1.0604 -0.3357  0.8477
18290TIP3   OH276360   0.584   1.814   0.849 -0.2647 -0.5734  0.1194
18290TIP3    H176361   0.646   1.863   0.795  0.8275 -0.3452  1.4919
18290TIP3    H276362   0.515   1.877   0.870 -0.4812 -0.5464 -0.6636
18291TIP3   OH276363   3.371   5.324  14.338 -0.0092  0.6089 -0.5440
18291TIP3    H176364   3.379   5.403  14.284  0.0175  0.4274 -0.8078
18291TIP3    H276365   3.364   5.357  14.428  1.1218  0.8715 -0.5446
18292TIP3   OH276366   6.678   6.119   0.767 -0.2262 -0.4397  0.1551
18292TIP3    H176367   6.616   6.065   0.817 -0.2790 -0.8076 -0.2950
18292TIP3    H276368   6.762   6.107   0.812 -0.5410  0.3421  0.9811
18293TIP3   OH276369   3.208   1.529  16.902  0.3805 -0.6471  0.2286
18293TIP3    H176370   3.126   1.531  16.853  0.7671  0.1423 -0.3970
18293TIP3    H276371   3.181   1.504  16.991 -0.7347  0.9610  0.3924
18294TIP3   OH276372   0.133   3.440   0.117 -0.9003  0.3640 -0.3970
18294TIP3    H176373   0.114   3.361   0.168  2.9506  0.2265  1.2530
18294TIP3    H276374   0.206   3.414   0.060 -1.4216  2.0448 -1.9007
18295TIP3   OH276375   5.754   5.952  15.050 -0.1806  0.3273  0.4287
18295TIP3    H176376   5.671   5.962  15.097 -0.5554  3.1473 -0.6461
18295TIP3    H276377   5.728   5.931  14.960  0.3875 -0.6161  0.4670
18296TIP3   OH276378   5.208   3.085   5.523 -0.5123  0.1084  0.0838
18296TIP3    H176379   5.189   3.119   5.436  1.4949  2.4017  0.4055
18296TIP3    H276380   5.174   3.152   5.583  0.2598 -0.2349  0.9365
18297TIP3   OH276381   0.369   2.565  14.573 -0.4354  0.1431  0.0988
18297TIP3    H176382   0.425   2.513  14.515  0.7625  2.1382 -0.6326
18297TIP3    H276383   0.402   2.655  14.564 -1.2623  0.7909  2.6512
18298TIP3   OH276384   1.772   0.931   5.790 -0.3372 -0.5147  0.4163
18298TIP3    H176385   1.695   0.966   5.746  0.2712 -0.8843 -1.0242
18298TIP3    H276386   1.842   0.939   5.725  1.4997  2.1958  2.5153
18299TIP3   OH276387   4.433   5.779  16.546 -0.3843 -0.1099  0.5221
18299TIP3    H176388   4.406   5.870  16.535  0.0557  0.2045  1.9418
18299TIP3    H276389   4.351   5.729  16.538 -0.9586  0.5870  1.7397
18300TIP3   OH276390   4.612   1.217   0.412  0.0316 -0.0454 -0.3003
18300TIP3    H176391   4.590   1.124   0.407  1.6060 -0.5243  0.8740
18300TIP3    H276392   4.529   1.261   0.430 -0.8721 -1.1152 -1.6747
18301TIP3   OH276393   4.187   5.541  14.046  0.1312 -0.4675 -0.0213
18301TIP3    H176394   4.215   5.628  14.017 -0.2844 -0.5796 -0.7990
18301TIP3    H276395   4.091   5.543  14.037  0.0693 -0.7872  0.5781
18302TIP3   OH276396   2.847   5.993   0.914  0.6755  0.1048 -0.2907
18302TIP3    H176397   2.874   6.084   0.904  0.0064  0.2214 -1.1655
18302TIP3    H276398   2.890   5.963   0.994  0.7107  1.2591  0.1301
18303TIP3   OH276399   6.191   2.934  10.924  0.6538  0.0187 -0.1699
18303TIP3    H176400   6.244   3.012  10.939 -0.7016  0.9457 -0.1219
18303TIP3    H276401   6.188   2.891  11.010 -1.0011  1.4666  0.5384
18304TIP3   OH276402   6.552   2.232  14.317  0.1537 -0.0773 -0.5763
18304TIP3    H176403   6.627   2.206  14.370 -0.0981 -0.4738 -0.4085
18304TIP3    H276404   6.500   2.152  14.309 -0.4270  0.2799 -0.3943
18305TIP3   OH276405   0.739   6.370  14.882  0.0030 -0.5442 -0.1286
18305TIP3    H176406   0.648   6.344  14.864  0.0345 -0.5336 -0.3025
18305TIP3    H276407   0.792   6.303  14.839  0.0950  0.2111 -1.2081
18306TIP3   OH276408   2.044   2.779   0.067 -0.0864 -0.2161 -0.2561
18306TIP3    H176409   1.962   2.828   0.077 -0.0003 -0.3230  1.2369
18306TIP3    H276410   2.112   2.847   0.065 -0.0554 -0.2082  0.6869
18307TIP3   OH276411   4.735   4.219  11.283 -0.0568 -0.1395 -1.1918
18307TIP3    H176412   4.812   4.164  11.268 -1.0564 -1.9076 -0.2410
18307TIP3    H276413   4.661   4.163  11.258 -1.2394  0.0628  1.5647
18308TIP3   OH276414   4.612   6.270  11.279  0.4136  0.2539  0.3340
18308TIP3    H176415   4.524   6.254  11.245  1.2719 -1.5418 -1.2425
18308TIP3    H276416   4.667   6.273  11.201  1.8034  1.2171  1.2983
18309TIP3   OH276417   1.960   6.635   3.568 -0.1205 -0.4181  0.4641
18309TIP3    H176418   1.936   6.715   3.615  1.3015  1.7933 -2.2745
18309TIP3    H276419   2.055   6.628   3.582 -0.1581 -1.3348  0.2545
18310TIP3   OH276420   6.420   0.288   3.878 -0.5838 -0.3104 -0.3471
18310TIP3    H176421   6.369   0.207   3.876  0.3247 -0.8904 -0.3165
18310TIP3    H276422   6.444   0.303   3.786  0.8228 -1.0941 -0.1213
18311TIP3   OH276423   6.350   6.069  13.449  0.2384 -0.3273 -0.2679
18311TIP3    H176424   6.291   6.112  13.387  0.8867  1.0603  0.0510
18311TIP3    H276425   6.410   6.137  13.478  1.6261 -1.5594 -0.1005
18312TIP3   OH276426   4.998   1.882  13.441  0.5321 -0.2384 -0.0330
18312TIP3    H176427   4.989   1.799  13.395  0.6833 -0.4871  0.3832
18312TIP3    H276428   5.070   1.868  13.502 -0.9084 -0.5715  1.6848
18313TIP3   OH276429   3.321   0.275   5.358 -0.0102 -0.1704 -0.6610
18313TIP3    H176430   3.310   0.239   5.446 -0.1273 -0.7907 -0.9236
18313TIP3    H276431   3.257   0.228   5.304 -1.1316  1.3774 -0.7602
18314TIP3   OH276432   1.924   2.390   4.572  0.7188  0.5275  0.2041
18314TIP3    H176433   1.832   2.371   4.557  0.1844  2.6566  0.4993
18314TIP3    H276434   1.961   2.308   4.604 -1.2625 -0.1322  0.9226
18315TIP3   OH276435   5.522   3.228   5.347 -0.3483 -0.0513 -0.9072
18315TIP3    H176436   5.502   3.268   5.431 -0.9811 -1.0097 -0.5790
18315TIP3    H276437   5.485   3.288   5.282  1.2093  1.3138 -0.5884
18316TIP3   OH276438   3.843   5.417   0.990 -0.2204  0.4630 -0.3402
18316TIP3    H176439   3.867   5.474   0.917 -1.3505 -0.0556 -1.1447
18316TIP3    H276440   3.832   5.330   0.951 -1.1317  0.2297  0.3870
18317TIP3   OH276441   1.265   4.422   1.698  0.0601  0.0881  0.4097
18317TIP3    H176442   1.270   4.509   1.737 -0.2948 -0.2622  1.2705
18317TIP3    H276443   1.350   4.382   1.718  0.5574  0.5340 -0.7464
18318TIP3   OH276444   3.648   1.168  14.404  0.8684  0.6103 -0.2964
18318TIP3    H176445   3.601   1.179  14.487  1.0069  0.8608 -0.2504
18318TIP3    H276446   3.584   1.192  14.337  0.5870 -0.1100 -0.2928
18319TIP3   OH276447   2.225   2.305  12.134 -0.2211 -0.0198 -0.7548
18319TIP3    H176448   2.148   2.361  12.140 -0.5542 -0.4751 -0.7156
18319TIP3    H276449   2.207   2.233  12.194  0.9310  0.6742  0.4794
18320TIP3   OH276450   6.087   5.292   0.308 -0.5522  0.4512 -0.8907
18320TIP3    H176451   6.142   5.306   0.232  0.3078  1.9276 -0.0318
18320TIP3    H276452   6.013   5.352   0.296 -0.3553  0.7742 -0.5166
18321TIP3   OH276453   1.005   1.669  13.406  0.0574 -0.0609  0.5176
18321TIP3    H176454   1.025   1.694  13.316  0.4611  0.7701  0.8321
18321TIP3    H276455   0.931   1.608  13.398 -0.1453  0.2831 -0.3503
18322TIP3   OH276456   6.136   0.013   6.433 -0.2182 -0.6559  0.1256
18322TIP3    H176457   6.051   0.028   6.393 -0.4537 -2.0657  0.0638
18322TIP3    H276458   6.180   0.098   6.427 -0.2503 -0.7526 -3.0670
18323TIP3   OH276459   4.300   0.179  11.649  0.2857  0.7202  0.3339
18323TIP3    H176460   4.288   0.208  11.559  1.2008 -2.8704 -1.0848
18323TIP3    H276461   4.393   0.155  11.655  0.0775  0.1847  2.0043
18324TIP3   OH276462   6.377   2.981  17.069 -0.3608  0.4361 -0.4694
18324TIP3    H176463   6.397   3.073  17.056 -0.9345  0.3818 -1.9591
18324TIP3    H276464   6.437   2.934  17.011  0.7785 -0.2334  1.1854
18325TIP3   OH276465   4.933   1.065  13.818  0.2294 -0.9289  0.0122
18325TIP3    H176466   4.964   1.151  13.846 -0.7126  0.1304 -2.0066
18325TIP3    H276467   4.856   1.049  13.873 -1.0328  0.6740 -1.1896
18326TIP3   OH276468   6.289   2.348   3.980 -0.4358 -0.4425  0.2576
18326TIP3    H176469   6.258   2.432   4.014 -1.4665  0.1423 -1.9417
18326TIP3    H276470   6.366   2.327   4.034  0.9947  2.8412 -0.2882
18327TIP3   OH276471   2.433   2.392   3.651  0.4035  0.0241  0.4161
18327TIP3    H176472   2.462   2.305   3.622 -2.8772 -2.1397  2.7367
18327TIP3    H276473   2.501   2.422   3.710  0.6104 -2.1727  1.4045
18328TIP3   OH276474   4.280   4.910   0.443  0.4574  0.4356 -0.2319
18328TIP3    H176475   4.346   4.975   0.418  0.2990  0.5950 -0.2328
18328TIP3    H276476   4.310   4.829   0.402  0.6597  0.5044 -0.2239
18329TIP3   OH276477   2.699   0.648  10.662  0.0911  0.1168  0.4546
18329TIP3    H176478   2.693   0.631  10.568  0.7597  0.1639  0.3996
18329TIP3    H276479   2.725   0.564  10.700  0.6054  0.2987  0.5068
18330TIP3   OH276480   5.939   3.453   4.789 -0.5705  0.1394  0.6096
18330TIP3    H176481   5.875   3.393   4.750 -1.6963  0.8330  1.3393
18330TIP3    H276482   5.911   3.463   4.880  0.8650  0.1010  1.0780
18331TIP3   OH276483   2.662   4.346   3.953 -0.7003  0.6983 -0.4137
18331TIP3    H176484   2.607   4.357   3.876 -0.5715  1.4331 -0.4019
18331TIP3    H276485   2.727   4.281   3.927 -1.0726  0.4354 -0.6961
18332TIP3   OH276486   5.993   2.280  15.972  0.1962  0.3666  0.0027
18332TIP3    H176487   6.040   2.267  16.054  1.3359  1.2597 -0.4814
18332TIP3    H276488   5.953   2.367  15.982  0.1566  0.3836 -0.3126
18333TIP3   OH276489   3.621   6.648  13.492 -0.1699 -0.2026  0.2674
18333TIP3    H176490   3.693   6.609  13.542 -1.0114 -1.1292  0.7965
18333TIP3    H276491   3.564   6.574  13.470 -1.4421  0.6095  0.6746
18334TIP3   OH276492   1.158   6.190   6.155 -0.1133 -0.3734  0.1266
18334TIP3    H176493   1.201   6.246   6.220 -2.1529  0.4891  0.8097
18334TIP3    H276494   1.139   6.109   6.203 -2.6630  0.6807  1.0902
18335TIP3   OH276495   5.836   1.346   3.731  0.1098 -0.6529  0.1904
18335TIP3    H176496   5.745   1.366   3.708  0.7978  2.8801  0.0158
18335TIP3    H276497   5.831   1.316   3.822 -1.2052 -0.3215  0.2502
18336TIP3   OH276498   3.379   1.468   3.360  0.1488  0.6133 -0.2042
18336TIP3    H176499   3.463   1.426   3.379  0.5433  1.9341  1.2114
18336TIP3    H276500   3.391   1.559   3.389 -1.8688  0.7548  0.3538
18337TIP3   OH276501   5.762   5.959   0.545  0.1819 -0.2704  0.1595
18337TIP3    H176502   5.821   5.883   0.543 -0.2631 -0.6057 -0.5405
18337TIP3    H276503   5.767   5.995   0.457 -1.9747 -1.3314 -0.4618
18338TIP3   OH276504   0.741   3.338   2.897  0.3451 -0.1369 -0.2536
18338TIP3    H176505   0.725   3.244   2.900  1.5212 -0.3496 -0.1907
18338TIP3    H276506   0.742   3.366   2.989 -0.4278  0.0365 -0.2824
18339TIP3   OH276507   0.210   4.939   4.945 -0.5757  0.3922 -0.3107
18339TIP3    H176508   0.228   4.850   4.914  2.2455  1.0272 -0.7550
18339TIP3    H276509   0.116   4.952   4.929 -1.4877 -3.0371  1.2529
18340TIP3   OH276510   4.448   0.423   0.700  0.6098  0.4217  0.4684
18340TIP3    H176511   4.511   0.495   0.701  0.8590  0.2312 -0.5165
18340TIP3    H276512   4.478   0.366   0.630 -0.1170 -0.1698  0.6262
18341TIP3   OH276513   6.686   3.069  14.524 -0.3246  0.4933 -0.1593
18341TIP3    H176514   6.604   3.019  14.528  0.5643 -0.9371  2.0905
18341TIP3    H276515   6.753   3.004  14.505  0.5114  1.3580 -0.2111
18342TIP3   OH276516   4.075   0.423  14.578  0.2186 -0.1736 -0.4206
18342TIP3    H176517   4.077   0.509  14.537 -0.5574  0.5055  0.8834
18342TIP3    H276518   3.985   0.391  14.563  0.6244 -0.9644 -1.2708
18343TIP3   OH276519   0.444   6.572   1.273 -0.5392 -0.1315 -0.4797
18343TIP3    H176520   0.383   6.504   1.301 -1.7068  1.0086 -0.1963
18343TIP3    H276521   0.400   6.618   1.202  0.1661  0.4440 -0.5640
18344TIP3   OH276522   2.671   4.349  13.306  0.1639 -0.3374 -0.1618
18344TIP3    H176523   2.593   4.316  13.260 -0.2019 -1.1260  0.9656
18344TIP3    H276524   2.657   4.324  13.398  0.6544  1.5657  0.4915
18345TIP3   OH276525   2.411   1.083  11.075 -0.0601 -0.3169  0.1266
18345TIP3    H176526   2.423   1.102  11.168  0.0175 -0.6985  0.1935
18345TIP3    H276527   2.317   1.066  11.067  0.0961 -1.3355  0.3307
18346TIP3   OH276528   3.102   1.157  10.935  0.3034  0.3839  0.2395
18346TIP3    H176529   3.050   1.078  10.949  1.4349 -0.2555  1.0095
18346TIP3    H276530   3.128   1.153  10.843 -1.4138  0.9926 -0.3051
18347TIP3   OH276531   1.627   4.999   1.938  0.2367 -0.0587  0.0523
18347TIP3    H176532   1.581   5.082   1.924 -0.0205  0.2579  2.2847
18347TIP3    H276533   1.685   5.017   2.012  2.7416 -0.9409 -1.5903
18348TIP3   OH276534   2.483   2.857   6.566  0.3625 -0.4323 -0.2518
18348TIP3    H176535   2.453   2.866   6.656  0.1116  1.3772 -0.4854
18348TIP3    H276536   2.413   2.895   6.513  2.1433  2.1194 -0.9405
18349TIP3   OH276537   0.261   6.423  13.490  0.2038 -0.1271  0.1558
18349TIP3    H176538   0.171   6.407  13.464  0.7499 -0.2942 -1.7749
18349TIP3    H276539   0.313   6.402  13.412  2.0556 -1.5398  1.6658
18350TIP3   OH276540   6.259   5.070   4.352  0.3390  0.0782 -0.1778
18350TIP3    H176541   6.225   5.155   4.381  0.7237 -0.0036  0.5344
18350TIP3    H276542   6.290   5.028   4.432  2.0086  0.1001 -0.7779
18351TIP3   OH276543   2.681   1.562   0.929 -0.1587 -0.0868 -0.5738
18351TIP3    H176544   2.630   1.533   1.005 -1.2505 -1.2508 -1.6923
18351TIP3    H276545   2.743   1.626   0.964 -1.4253  0.2888  1.0952
18352TIP3   OH276546   0.022   0.545   5.988 -0.0318 -0.3224 -0.2575
18352TIP3    H176547   0.002   0.560   5.895  0.8634  1.4728 -0.2155
18352TIP3    H276548   0.005   0.452   6.002 -0.5780 -0.5477 -2.1151
18353TIP3   OH276549   0.068   4.306   2.057  0.1165 -0.1795 -0.3734
18353TIP3    H176550   0.114   4.299   2.140  1.2794  0.4337 -0.9444
18353TIP3    H276551   0.134   4.285   1.991 -0.5136  0.3676 -1.1996
18354TIP3   OH276552   1.714   1.434  15.779 -0.6809 -0.3964  0.9683
18354TIP3    H176553   1.664   1.449  15.858  0.3577 -0.6547  1.6984
18354TIP3    H276554   1.802   1.412  15.810  0.4187  1.9090 -0.3045
18355TIP3   OH276555   4.420   5.725  16.156 -0.0167 -0.1285  0.1441
18355TIP3    H176556   4.437   5.633  16.132 -1.7063 -0.4807  0.1909
18355TIP3    H276557   4.421   5.725  16.252 -1.1508 -0.3589  0.1736
18356TIP3   OH276558   4.502   6.711   4.367 -0.1432 -0.0003 -0.5590
18356TIP3    H176559   4.584   6.663   4.378  0.6218  0.8836 -2.0550
18356TIP3    H276560   4.514   6.761   4.286 -0.6752  3.1137  1.1005
18357TIP3   OH276561   5.654   2.342  12.640 -0.2219 -0.0682 -0.5426
18357TIP3    H176562   5.609   2.412  12.688  0.3809 -0.3826  0.4939
18357TIP3    H276563   5.747   2.360  12.652 -0.0516 -0.1708 -1.5866
18358TIP3   OH276564   2.207   1.864  15.516  0.3237 -0.0992 -0.1241
18358TIP3    H176565   2.276   1.811  15.474 -0.5157 -0.8816 -0.5487
18358TIP3    H276566   2.130   1.849  15.462 -1.3606 -2.7351  2.7246
18359TIP3   OH276567   6.179   4.700  14.272  0.3998 -0.3922  0.1754
18359TIP3    H176568   6.227   4.621  14.249 -1.7543 -1.5734 -0.4432
18359TIP3    H276569   6.225   4.734  14.349  3.2897 -0.4177 -1.3704
18360TIP3   OH276570   0.925   3.047  16.377  0.0767 -0.0945 -0.0665
18360TIP3    H176571   0.935   3.108  16.304 -0.8135 -0.8218 -0.8116
18360TIP3    H276572   0.867   3.092  16.438 -0.8589 -0.3097 -0.7741
18361TIP3   OH276573   2.231   2.360  12.556 -0.1571 -0.3840  0.2180
18361TIP3    H176574   2.142   2.389  12.538  0.1420  2.3054  2.4921
18361TIP3    H276575   2.223   2.306  12.635  0.1592 -0.8541 -0.0634
18362TIP3   OH276576   1.307   4.129  16.909 -0.6835 -0.5317 -0.1811
18362TIP3    H176577   1.219   4.164  16.917 -0.5780 -0.0125 -1.1421
18362TIP3    H276578   1.364   4.206  16.904 -0.0041 -0.8472  1.9261
18363TIP3   OH276579   0.241   5.089  15.563 -0.1484 -0.4760  0.2075
18363TIP3    H176580   0.218   5.156  15.628 -2.0802  1.1359 -1.9667
18363TIP3    H276581   0.300   5.134  15.503 -1.1519 -0.7744 -1.0535
18364TIP3   OH276582   1.983   2.295  11.918 -0.2334  0.0259 -0.3053
18364TIP3    H176583   1.895   2.320  11.891 -1.0487 -1.6719  0.5862
18364TIP3    H276584   2.018   2.373  11.961 -1.0363  0.9329 -1.2595
18365TIP3   OH276585   4.198   1.062  16.576 -0.1632 -0.6108 -0.2270
18365TIP3    H176586   4.182   1.104  16.661 -0.6710 -1.2573  0.0109
18365TIP3    H276587   4.289   1.033  16.580  1.1247  2.7622 -1.4333
18366TIP3   OH276588   6.248   1.312  13.287 -0.7229 -0.0984 -0.3386
18366TIP3    H176589   6.308   1.328  13.359  0.2780  0.2334 -1.2184
18366TIP3    H276590   6.161   1.307  13.328 -0.0360 -1.2686  1.0316
18367TIP3   OH276591   2.305   2.184  14.875 -0.1758 -0.1414  0.0240
18367TIP3    H176592   2.294   2.242  14.800 -1.8083  0.3077  0.5745
18367TIP3    H276593   2.368   2.228  14.931 -1.5185  1.2299  0.5144
18368TIP3   OH276594   1.658   2.271  14.187 -0.3245 -0.2194 -0.5200
18368TIP3    H176595   1.610   2.200  14.230  0.4649 -0.8685 -0.6837
18368TIP3    H276596   1.627   2.270  14.097  0.4068 -1.0289 -0.7761
18369TIP3   OH276597   4.927   3.764   1.793  0.1623 -0.7931 -0.3081
18369TIP3    H176598   4.998   3.712   1.830  1.8693  0.1303 -2.1654
18369TIP3    H276599   4.969   3.824   1.732 -1.8252  2.1428  0.9561
18370TIP3   OH276600   0.003   6.305   5.880 -0.4606 -0.3636 -0.4603
18370TIP3    H176601  -0.083   6.305   5.921 -0.3134 -1.4428 -0.1346
18370TIP3    H276602   0.062   6.337   5.948 -0.4028 -0.9742 -0.2150
18371TIP3   OH276603   5.847   4.517   2.663 -0.2559  0.1135 -0.5153
18371TIP3    H176604   5.854   4.504   2.568 -0.5755 -0.7292 -0.4286
18371TIP3    H276605   5.835   4.611   2.673  1.0434  0.3856 -1.2441
18372TIP3   OH276606   6.196   5.602   0.453 -0.3936 -0.2786 -0.8460
18372TIP3    H176607   6.206   5.617   0.359  0.6228 -0.0076 -0.6990
18372TIP3    H276608   6.284   5.585   0.484 -0.8584 -1.3989 -0.1049
18373TIP3   OH276609   0.573   1.502  17.178 -0.7559  0.0892 -0.1965
18373TIP3    H176610   0.600   1.492  17.269  0.4529 -1.4382 -0.6642
18373TIP3    H276611   0.655   1.516  17.130 -1.1914 -0.6174 -1.1994
18374TIP3   OH276612   2.669   3.228   2.007  0.6035  0.3504 -0.3881
18374TIP3    H176613   2.725   3.279   1.949  0.8296  0.0798 -0.4081
18374TIP3    H276614   2.667   3.279   2.088 -0.6078  1.2964 -0.9804
18375TIP3   OH276615   5.128   6.762  16.033 -0.1758  0.0916  0.1690
18375TIP3    H176616   5.137   6.856  16.045 -0.4525 -0.1635  3.0508
18375TIP3    H276617   5.036   6.744  16.053 -0.8325 -0.5573 -2.9048
18376TIP3   OH276618   4.519   2.520  14.471  0.8223 -0.1320  0.2920
18376TIP3    H176619   4.553   2.431  14.466 -0.6176 -0.6630 -2.0075
18376TIP3    H276620   4.589   2.575  14.434  1.1222 -0.5178  0.2817
18377TIP3   OH276621   4.805   5.719  14.034  0.2327  0.5319 -0.1629
18377TIP3    H176622   4.829   5.627  14.026  0.2475  0.6133 -1.3080
18377TIP3    H276623   4.889   5.765  14.040  0.2499  0.3086  3.5648
18378TIP3   OH276624   2.047   0.440   5.749  0.5652  0.9763 -0.4647
18378TIP3    H176625   2.022   0.519   5.799 -2.0286  0.3196 -0.6128
18378TIP3    H276626   2.123   0.406   5.796  0.8111  2.7324  0.5028
18379TIP3   OH276627   4.242   5.359  14.483  0.7818 -0.3703  0.2121
18379TIP3    H176628   4.296   5.437  14.468 -0.1037  0.4742  1.2502
18379TIP3    H276629   4.218   5.330  14.395 -0.3299  1.5793 -0.1873
18380TIP3   OH276630   2.590   6.132   0.811  0.6087  0.0051 -0.3549
18380TIP3    H176631   2.622   6.059   0.863 -0.5525  0.1034  0.5310
18380TIP3    H276632   2.621   6.210   0.857 -0.2485  0.0902  0.0906
18381TIP3   OH276633   6.001   4.274   2.644  0.0243  0.1734  0.4242
18381TIP3    H176634   6.075   4.261   2.703  0.8948 -0.9102 -0.8596
18381TIP3    H276635   5.990   4.369   2.641  2.7828  0.5461 -0.9775
18382TIP3   OH276636   1.000   4.652   1.572 -0.2937 -0.3949  0.6160
18382TIP3    H176637   0.997   4.698   1.656 -0.2417 -1.0687  0.9907
18382TIP3    H276638   1.004   4.722   1.506 -1.5429  0.1640  1.1102
18383TIP3   OH276639   6.616   6.552  15.216 -0.1982 -0.1432 -0.7793
18383TIP3    H176640   6.608   6.507  15.132  1.8984 -0.0310 -1.1015
18383TIP3    H276641   6.698   6.518  15.253 -0.0492  1.2810  0.2823
18384TIP3   OH276642   1.696   6.423  14.963 -0.0031  0.1412  0.1352
18384TIP3    H176643   1.780   6.469  14.962 -1.1286  2.3136 -1.1115
18384TIP3    H276644   1.656   6.449  15.046 -0.9337  2.1330 -0.8650
18385TIP3   OH276645   5.486   3.017  12.367  0.5543 -0.0549 -0.4618
18385TIP3    H176646   5.518   3.080  12.433  0.4763 -2.4448  2.0292
18385TIP3    H276647   5.565   2.989  12.321  0.8382  0.4374 -0.2924
18386TIP3   OH276648   1.641   4.815  11.265  0.5897  0.9142  0.0339
18386TIP3    H176649   1.589   4.737  11.285  0.0558  0.7624 -1.8105
18386TIP3    H276650   1.604   4.849  11.184  1.7858  2.2326  0.0068
18387TIP3   OH276651   3.797   2.863   1.957  0.3200  0.0648  0.0292
18387TIP3    H176652   3.891   2.859   1.972  0.4113  2.3721  0.5432
18387TIP3    H276653   3.784   2.946   1.911 -1.5167  0.2227  0.7431
18388TIP3   OH276654   5.289   4.952   6.417 -0.2167  0.1823 -0.4412
18388TIP3    H176655   5.296   4.857   6.422 -2.3237  0.0207  0.1409
18388TIP3    H276656   5.280   4.971   6.324 -1.1269 -0.3280 -0.4700
18389TIP3   OH276657   3.384   4.736   1.365 -0.0331  0.6056  0.4785
18389TIP3    H176658   3.449   4.699   1.306  1.3374  0.3267  2.0922
18389TIP3    H276659   3.305   4.747   1.311  0.6120 -1.2941 -0.9337
18390TIP3   OH276660   3.753   0.723  13.346  0.6231  0.1708 -0.1949
18390TIP3    H176661   3.784   0.813  13.337 -0.6404  0.6500 -0.0256
18390TIP3    H276662   3.700   0.724  13.426  1.9179 -1.1341  0.7346
18391TIP3   OH276663   0.613   1.020   3.556 -0.3400 -0.2559 -0.1455
18391TIP3    H176664   0.617   1.080   3.630  1.3571 -0.8046  0.2377
18391TIP3    H276665   0.649   1.070   3.483  0.8050 -0.6867  0.1086
18392TIP3   OH276666   6.716   1.369   3.126  0.2681  0.0404 -0.9781
18392TIP3    H176667   6.660   1.311   3.074 -0.4577  0.4098 -0.6218
18392TIP3    H276668   6.658   1.441   3.151  0.2509 -0.7437  1.4213
18393TIP3   OH276669   0.099   6.461  12.744 -0.4021 -0.2984 -0.2383
18393TIP3    H176670   0.024   6.435  12.797  0.0293  0.5562  0.8395
18393TIP3    H276671   0.155   6.511  12.804  0.2038  0.5374 -1.4492
18394TIP3   OH276672   2.633   2.974   3.148  0.2611  0.8958 -0.2610
18394TIP3    H176673   2.570   2.932   3.089 -0.6571 -0.7865  1.7592
18394TIP3    H276674   2.581   3.039   3.196  0.0235 -0.3495  1.2600
18395TIP3   OH276675   0.170   3.426   2.061  0.2023  0.3665  0.0653
18395TIP3    H176676   0.106   3.464   2.002  0.7093  0.3452 -0.5118
18395TIP3    H276677   0.253   3.429   2.012  0.2688 -1.4601 -0.0049
18396TIP3   OH276678   3.881   1.759  14.290  0.8312 -0.0146  0.0078
18396TIP3    H176679   3.841   1.757  14.203  0.6892  2.0134 -0.0145
18396TIP3    H276680   3.834   1.828  14.337  0.0684 -1.8758  2.1582
18397TIP3   OH276681   1.051   5.750   4.666  0.4798  0.3121  0.2930
18397TIP3    H176682   1.078   5.835   4.699 -2.3831  1.2225  0.5336
18397TIP3    H276683   0.962   5.738   4.699 -0.0888 -1.6952 -1.7091
18398TIP3   OH276684   2.699   6.371   0.092  0.1207 -0.1899  0.3056
18398TIP3    H176685   2.789   6.401   0.105 -0.0714 -0.2258  2.0646
18398TIP3    H276686   2.650   6.410   0.165 -1.1217 -0.8532 -0.1370
18399TIP3   OH276687   6.176   5.937   5.579  0.2941  0.0788 -0.4195
18399TIP3    H176688   6.164   6.008   5.516  0.6841  2.1507  1.7012
18399TIP3    H276689   6.260   5.898   5.555 -0.4556 -0.4851 -2.3139
18400TIP3   OH276690   5.700   3.148  15.357 -0.0760 -0.1837 -0.4065
18400TIP3    H176691   5.727   3.240  15.366  0.0867 -0.2435 -0.2853
18400TIP3    H276692   5.777   3.104  15.319 -0.0509 -0.3271 -0.1889
18401TIP3   OH276693   3.353   3.483  14.185 -0.4163  0.3781  0.2319
18401TIP3    H176694   3.350   3.400  14.232  2.5068 -2.2610 -3.6793
18401TIP3    H276695   3.417   3.536  14.233 -1.3425 -0.0365  2.0152
18402TIP3   OH276696   5.167   0.042   3.932  0.5429 -0.2201 -0.1730
18402TIP3    H176697   5.114   0.119   3.913  0.8884  0.6616  2.1161
18402TIP3    H276698   5.256   0.076   3.939  0.3801 -0.1010  3.7755
18403TIP3   OH276699   3.670   2.466   4.890  0.2669  0.0907  0.0557
18403TIP3    H176700   3.621   2.538   4.851 -0.7735  0.0021  1.1297
18403TIP3    H276701   3.754   2.504   4.915  1.7359 -0.2570 -3.7782
18404TIP3   OH276702   3.292   1.960  14.222 -0.1105  0.3843 -0.7557
18404TIP3    H176703   3.282   1.866  14.239 -0.7596  0.3628 -1.2604
18404TIP3    H276704   3.307   1.966  14.128  0.7943  0.7289 -0.6073
18405TIP3   OH276705   6.775   5.668  16.568 -0.0064 -0.2800 -0.0552
18405TIP3    H176706   6.845   5.618  16.610  0.3245 -0.5860 -0.9489
18405TIP3    H276707   6.786   5.650  16.475  1.1865  2.7807 -0.6160
18406TIP3   OH276708   5.134   4.410  16.729 -0.3400  0.4598  0.2813
18406TIP3    H176709   5.174   4.343  16.785  0.8090 -0.2697 -1.3351
18406TIP3    H276710   5.043   4.383  16.720  0.1486 -1.0410 -0.5026
18407TIP3   OH276711   3.654   4.955   4.715  0.7427 -0.3144  0.1007
18407TIP3    H176712   3.572   4.918   4.683 -0.1182  2.4026 -1.1545
18407TIP3    H276713   3.718   4.884   4.707 -0.8969 -1.6829 -1.4926
18408TIP3   OH276714   0.107   3.842   0.677 -0.1752  0.5554 -0.0230
18408TIP3    H176715   0.070   3.917   0.723 -0.1639  1.3553 -1.2690
18408TIP3    H276716   0.050   3.769   0.700 -0.1790  0.9225  1.2211
18409TIP3   OH276717   4.671   6.451   3.594 -0.2024 -0.0267  0.3006
18409TIP3    H176718   4.600   6.469   3.656  0.7653 -0.2250  1.5198
18409TIP3    H276719   4.665   6.357   3.578  0.6525 -0.3298  1.5766
18410TIP3   OH276720   0.539   0.619  16.064 -0.2280 -0.4201  0.7691
18410TIP3    H176721   0.532   0.586  15.974 -1.3801  1.1887  0.2241
18410TIP3    H276722   0.558   0.541  16.117 -2.2444 -1.8738 -0.5132
18411TIP3   OH276723   0.105   5.786   1.782 -0.1316 -0.1218  0.1024
18411TIP3    H176724   0.069   5.700   1.760 -0.7675  0.0834  0.3139
18411TIP3    H276725   0.057   5.846   1.725  0.1585  0.1141  0.1093
18412TIP3   OH276726   1.803   4.508   5.147  0.6044 -0.2287  0.6879
18412TIP3    H176727   1.792   4.420   5.183  1.0233 -0.7915 -0.4934
18412TIP3    H276728   1.785   4.498   5.053  1.5716  0.7532  0.3726
18413TIP3   OH276729   4.693   6.544   4.593 -0.3653 -0.0899 -0.0904
18413TIP3    H176730   4.656   6.622   4.635  1.6952  0.6111  0.5081
18413TIP3    H276731   4.684   6.475   4.659  0.8733  0.4893  0.7199
18414TIP3   OH276732   5.687   5.688   6.183 -0.4717  0.1215  0.5295
18414TIP3    H176733   5.637   5.731   6.252  0.3471 -0.0799  1.2803
18414TIP3    H276734   5.705   5.758   6.120 -0.6539  0.4756  0.8602
18415TIP3   OH276735   4.796   6.589   3.079  0.0641  0.4476  0.3730
18415TIP3    H176736   4.712   6.591   3.126 -0.8711  1.6117 -1.2266
18415TIP3    H276737   4.841   6.668   3.108  0.5325 -0.0648  1.0670
18416TIP3   OH276738   4.828   6.120  17.163  0.4371  0.0783 -0.7548
18416TIP3    H176739   4.792   6.195  17.209  0.3266 -0.8361  0.7280
18416TIP3    H276740   4.785   6.044  17.204  0.9434 -0.8211 -1.8256
18417TIP3   OH276741   0.690   0.537  16.535  0.1354  0.0134  0.0055
18417TIP3    H176742   0.655   0.583  16.611 -0.7338 -1.7482  0.7201
18417TIP3    H276743   0.661   0.589  16.460  1.3291  1.9887  0.8361
18418TIP3   OH276744   2.211   0.493   0.085  0.8499 -0.1486  0.0999
18418TIP3    H176745   2.237   0.576   0.044  1.6467 -0.5890 -0.3248
18418TIP3    H276746   2.176   0.518   0.171 -1.9543  0.9075 -1.2298
18419TIP3   OH276747   0.483   4.819  16.862  0.1373  0.0708  0.7049
18419TIP3    H176748   0.479   4.911  16.888  0.8221  0.0436  0.9123
18419TIP3    H276749   0.391   4.793  16.853 -0.0552  0.8729  0.2696
18420TIP3   OH276750   4.043   3.443  13.961 -0.6911  0.8084 -0.2967
18420TIP3    H176751   4.063   3.421  13.870  1.9247  1.2202  0.1102
18420TIP3    H276752   3.963   3.393  13.981 -0.5855 -0.2988 -2.4021
18421TIP3   OH276753   2.342   3.446  14.990 -0.4420 -0.6529 -0.1292
18421TIP3    H176754   2.345   3.541  14.974  0.5663 -0.5761  0.4420
18421TIP3    H276755   2.313   3.438  15.081 -1.0263 -0.9229 -0.3303
18422TIP3   OH276756   0.740   1.440   5.706  0.1340 -0.2838  0.2090
18422TIP3    H176757   0.705   1.505   5.644  0.6392  0.0667  0.2852
18422TIP3    H276758   0.804   1.489   5.758 -0.3897 -0.5496  1.1045
18423TIP3   OH276759   5.256   2.996   4.869  0.5613  0.1456  0.7197
18423TIP3    H176760   5.323   2.981   4.801  0.4662 -2.2608  1.0636
18423TIP3    H276761   5.261   3.090   4.886  2.4350  0.3924 -0.7221
18424TIP3   OH276762   6.781   2.730  15.914 -0.5570  0.2420 -0.5044
18424TIP3    H176763   6.749   2.669  15.848 -0.7136 -1.6063  1.1833
18424TIP3    H276764   6.724   2.716  15.990 -0.3586  2.2565  0.0710
18425TIP3   OH276765   4.353   4.110  10.789  0.2076  0.4841 -0.3516
18425TIP3    H176766   4.417   4.168  10.830 -0.1550  0.7914 -0.2115
18425TIP3    H276767   4.402   4.029  10.772  0.3153  0.2538  0.9127
18426TIP3   OH276768   6.380   4.248  16.223 -0.2631 -0.0389  0.6713
18426TIP3    H176769   6.434   4.322  16.194 -1.6551  0.7752  0.0215
18426TIP3    H276770   6.388   4.249  16.318  0.2123  0.5765  0.6394
18427TIP3   OH276771   6.660   2.094  17.145 -0.1401 -0.1473 -0.2819
18427TIP3    H176772   6.707   2.161  17.195 -0.7369 -0.2107  0.3777
18427TIP3    H276773   6.618   2.039  17.211 -1.1306 -0.0941 -0.8470
18428TIP3   OH276774   0.463   4.104  15.007 -0.1683 -0.1787  0.3521
18428TIP3    H176775   0.495   4.159  14.936  2.0626 -2.2286 -0.3723
18428TIP3    H276776   0.478   4.156  15.087  0.9233  0.6568 -0.3713
18429TIP3   OH276777   0.328   4.895   2.526 -0.5392  0.2850 -0.3056
18429TIP3    H176778   0.331   4.915   2.432  0.4728 -0.2917 -0.4112
18429TIP3    H276779   0.323   4.981   2.569  0.0521  0.6059 -0.8600
18430TIP3   OH276780   4.083   5.246   0.331  0.4091 -0.6164 -0.0638
18430TIP3    H176781   4.106   5.178   0.268  0.2008 -1.1696  0.4503
18430TIP3    H276782   4.164   5.261   0.380  0.7128  0.1754 -0.7839
18431TIP3   OH276783   2.740   1.444   5.176 -0.8173 -0.3057  0.6452
18431TIP3    H176784   2.668   1.480   5.227 -0.5008 -0.5351  1.2692
18431TIP3    H276785   2.792   1.394   5.239  0.2704  0.4121  0.3434
18432TIP3   OH276786   0.343   4.765   3.857 -0.0124 -1.1122 -0.5276
18432TIP3    H176787   0.305   4.794   3.775 -0.9962 -0.4507  0.1386
18432TIP3    H276788   0.318   4.833   3.920 -0.1292 -2.1060  0.5201
18433TIP3   OH276789   0.131   0.124  13.733 -0.0370  1.0434  0.3376
18433TIP3    H176790   0.190   0.196  13.754  1.6346 -0.4644  1.0155
18433TIP3    H276791   0.160   0.052  13.788 -0.8982 -0.5290 -1.1731
18434TIP3   OH276792   4.876   0.235   2.046 -0.0030  0.0782  0.1352
18434TIP3    H176793   4.956   0.192   2.074 -0.4769  0.6084  2.5202
18434TIP3    H276794   4.901   0.282   1.966  1.1823 -2.3313 -1.0241
18435TIP3   OH276795   4.997   1.346  13.004 -0.1232 -0.5226  0.4224
18435TIP3    H176796   5.079   1.371  13.048  0.8115 -1.7044 -0.5889
18435TIP3    H276797   4.969   1.266  13.048 -0.1162 -0.7446  0.0313
18436TIP3   OH276798   1.124   0.921   1.661  0.1716 -0.8304  0.0048
18436TIP3    H176799   1.206   0.937   1.614  0.7019  1.2997  1.5294
18436TIP3    H276800   1.062   0.900   1.592  1.3764  0.2085 -1.4844
18437TIP3   OH276801   4.597   0.492  12.499  0.2062 -0.0083 -0.1345
18437TIP3    H176802   4.526   0.431  12.480  0.7604 -1.3029  1.6889
18437TIP3    H276803   4.556   0.579  12.499 -1.6146 -0.7980  1.8445
18438TIP3   OH276804   2.595   0.448  16.402 -0.3806 -0.1069  0.6037
18438TIP3    H176805   2.550   0.373  16.442 -2.9437  0.5942 -0.7508
18438TIP3    H276806   2.687   0.422  16.398 -1.1151 -3.0037  0.5893
18439TIP3   OH276807   4.662   3.799   3.376 -0.3938 -0.6233 -0.6956
18439TIP3    H176808   4.694   3.745   3.304  1.2620 -0.6191 -0.0183
18439TIP3    H276809   4.681   3.889   3.350  0.5359 -0.6409 -0.1454
18440TIP3   OH276810   0.285   2.264  12.927 -0.4584  0.2571 -0.5955
18440TIP3    H176811   0.269   2.172  12.904  0.0981 -0.1451  0.5733
18440TIP3    H276812   0.270   2.312  12.845  0.0070 -0.9528 -1.4114
18441TIP3   OH276813   4.871   3.916  14.393  0.0474  0.1330 -0.2006
18441TIP3    H176814   4.933   3.909  14.465  0.0021  0.7303 -0.0955
18441TIP3    H276815   4.909   3.865  14.322  1.2736  1.4902 -0.5598
18442TIP3   OH276816   4.312   0.475  11.731  0.0996  0.6533 -0.8631
18442TIP3    H176817   4.256   0.415  11.682  2.6826 -0.5512 -2.5129
18442TIP3    H276818   4.383   0.421  11.765 -0.1189  1.9476  2.0383
18443TIP3   OH276819   1.914   4.146  13.401  0.0184 -0.4014  0.3541
18443TIP3    H176820   1.949   4.113  13.484  0.4439  1.2145  0.8523
18443TIP3    H276821   1.840   4.201  13.427  0.8309  1.0147 -0.2169
18444TIP3   OH276822   4.921   6.772  13.010 -0.2039  0.1439 -0.4881
18444TIP3    H176823   4.857   6.711  13.047 -0.4576  1.5771  1.6225
18444TIP3    H276824   5.003   6.749  13.054 -0.2584  1.1550  0.1569
18445TIP3   OH276825   0.777   5.877   5.209  0.3161 -0.1742  0.3882
18445TIP3    H176826   0.730   5.794   5.198 -1.1703  0.4707  1.4610
18445TIP3    H276827   0.710   5.944   5.196  1.2466  0.8358  0.6366
18446TIP3   OH276828   2.421   1.129  11.970 -0.0561 -0.3527 -0.3877
18446TIP3    H176829   2.336   1.110  11.929  0.7667 -0.2606 -2.2417
18446TIP3    H276830   2.449   1.211  11.929  0.0116  0.7509  1.7471
18447TIP3   OH276831   2.282   4.664   3.194 -0.1526  0.4205 -0.3670
18447TIP3    H176832   2.315   4.678   3.105  2.4432  0.5604  0.5597
18447TIP3    H276833   2.276   4.752   3.232 -2.0886  0.4488 -0.5964
18448TIP3   OH276834   6.212   5.006   6.490  0.5330  0.4123 -0.0577
18448TIP3    H176835   6.132   5.058   6.487  1.4176  1.8025 -2.6439
18448TIP3    H276836   6.278   5.066   6.525  0.8150 -0.1378  0.3594
18449TIP3   OH276837   3.914   2.760  14.499 -0.1505  0.1872 -0.1687
18449TIP3    H176838   3.833   2.710  14.488 -0.9154  1.4304 -0.3567
18449TIP3    H276839   3.889   2.850  14.480  0.9101  0.8448  1.4148
18450TIP3   OH276840   3.386   2.354   3.874 -0.1932  0.3755 -0.7972
18450TIP3    H176841   3.341   2.298   3.812 -1.3258 -0.8225  1.0313
18450TIP3    H276842   3.470   2.311   3.889 -1.2323 -1.2046  0.9451
18451TIP3   OH276843   6.592   1.815  14.141  0.3233  0.6394 -0.1683
18451TIP3    H176844   6.680   1.851  14.152  0.5348 -0.0170  0.3983
18451TIP3    H276845   6.540   1.858  14.209  0.1525  1.1772 -0.6325
18452TIP3   OH276846   5.742   2.515   3.951 -0.3372  0.2726  0.4705
18452TIP3    H176847   5.732   2.437   4.006  0.3907 -0.2405 -0.1007
18452TIP3    H276848   5.803   2.571   4.000 -1.2259  0.7061  1.1022
18453TIP3   OH276849   5.966   1.268   2.097 -0.0771 -0.2745 -0.2710
18453TIP3    H176850   5.927   1.192   2.139 -0.2483 -0.4701 -0.7819
18453TIP3    H276851   6.020   1.231   2.026 -0.4082  0.0912 -0.7202
18454TIP3   OH276852   3.649   0.274  11.054 -0.5111 -0.4232 -0.0217
18454TIP3    H176853   3.719   0.224  11.012 -0.1675 -0.2524  0.3497
18454TIP3    H276854   3.673   0.366  11.041 -0.8295 -0.3587 -0.1675
18455TIP3   OH276855   6.338   1.589   1.452 -0.1090  0.0338 -0.1914
18455TIP3    H176856   6.424   1.631   1.460 -0.1097  0.3516 -1.4818
18455TIP3    H276857   6.275   1.659   1.470 -0.1018 -0.0216  0.0509
18456TIP3   OH276858   0.793   2.289   5.384 -0.8629  1.0002 -0.4408
18456TIP3    H176859   0.716   2.238   5.358 -1.1423  1.4649 -0.5402
18456TIP3    H276860   0.781   2.307   5.477 -0.8271  0.9855 -0.4333
18457TIP3   OH276861   3.567   2.808   5.392  0.6047 -0.1791 -0.0317
18457TIP3    H176862   3.592   2.766   5.310  0.9011 -0.5966  0.2662
18457TIP3    H276863   3.572   2.902   5.373  0.5107 -0.2710 -0.5343
18458TIP3   OH276864   1.290   3.115   3.958 -0.7765  0.6105 -0.3557
18458TIP3    H176865   1.237   3.195   3.960 -1.3475  0.2948 -1.4889
18458TIP3    H276866   1.362   3.136   3.898 -0.7367  0.3949 -0.3832
18459TIP3   OH276867   2.225   6.666  16.316 -0.7736 -0.2347 -0.3321
18459TIP3    H176868   2.149   6.684  16.371 -2.3457 -3.1050 -1.3537
18459TIP3    H276869   2.190   6.662  16.227  0.8727 -0.1589 -1.0188
18460TIP3   OH276870   2.666   4.826  13.880 -0.1386  0.0472  0.0840
18460TIP3    H176871   2.760   4.820  13.860  0.1450 -0.9727  1.5456
18460TIP3    H276872   2.661   4.890  13.951 -0.7877  1.4192 -1.1323
18461TIP3   OH276873   2.890   3.745   2.479 -0.4706 -0.3000 -1.0139
18461TIP3    H176874   2.958   3.735   2.412 -0.2884 -0.6086 -0.7854
18461TIP3    H276875   2.841   3.662   2.475  1.1320 -1.4304  0.9899
18462TIP3   OH276876   1.249   5.279   2.077 -0.2123  0.0700 -0.0447
18462TIP3    H176877   1.242   5.372   2.098 -1.1659  0.5521 -2.2263
18462TIP3    H276878   1.190   5.236   2.139  2.2495  0.4892  2.8491
18463TIP3   OH276879   2.410   5.728   3.826  0.1133 -0.2032  0.4541
18463TIP3    H176880   2.506   5.732   3.823  0.1459 -1.1560 -1.7455
18463TIP3    H276881   2.383   5.814   3.858  1.6716  0.3497  0.3657
18464TIP3   OH276882   3.783   5.209   0.353 -0.4458 -0.0557 -0.0699
18464TIP3    H176883   3.722   5.244   0.288  0.0446 -1.1625 -1.1836
18464TIP3    H276884   3.868   5.246   0.327 -0.2255 -0.6085 -0.1449
18465TIP3   OH276885   6.194   1.748   1.954 -0.0385  0.2912  0.2815
18465TIP3    H176886   6.229   1.717   1.870  0.2383  0.3407  0.3792
18465TIP3    H276887   6.145   1.827   1.931  0.6484  0.7243  0.2651
18466TIP3   OH276888   6.387   4.597  13.529  0.0185 -0.4339  0.0511
18466TIP3    H176889   6.455   4.589  13.596  2.0505  2.3283 -1.4361
18466TIP3    H276890   6.367   4.691  13.526 -2.4437 -0.9098 -0.9655
18467TIP3   OH276891   4.456   5.227   1.754 -0.1463 -0.3597  0.3449
18467TIP3    H176892   4.550   5.241   1.739 -0.1231 -1.5434 -0.8446
18467TIP3    H276893   4.414   5.278   1.684 -0.4059  0.3416  1.0072
18468TIP3   OH276894   6.424   4.384  12.121 -0.2882  0.0843 -0.2478
18468TIP3    H176895   6.356   4.344  12.067 -1.4740 -0.8735  1.8407
18468TIP3    H276896   6.398   4.476  12.128 -1.1367 -0.1723  0.1427
18469TIP3   OH276897   5.670   4.269  11.044  0.1595 -0.5358  0.0267
18469TIP3    H176898   5.724   4.316  11.108  0.3068 -0.6351 -0.0245
18469TIP3    H276899   5.626   4.202  11.096 -0.9354  0.3749  0.3094
18470TIP3   OH276900   2.437   4.000  17.056 -0.1194 -0.1034  0.3343
18470TIP3    H176901   2.388   3.993  16.974  1.2090 -1.2756 -0.3964
18470TIP3    H276902   2.490   4.079  17.046 -1.0878  0.6209  0.7309
18471TIP3   OH276903   5.895   4.579  15.370 -0.8128 -0.2451 -0.4759
18471TIP3    H176904   5.923   4.664  15.405 -0.4742 -0.3208 -0.5581
18471TIP3    H276905   5.853   4.600  15.286  0.5122 -0.2820 -1.1644
18472TIP3   OH276906   5.860   0.725   0.590  0.7173 -0.4332  0.0168
18472TIP3    H176907   5.951   0.753   0.579  0.5373 -0.1767 -0.8655
18472TIP3    H276908   5.815   0.757   0.513 -0.4708  0.7700  1.1604
18473TIP3   OH276909   0.475   6.734  15.837  0.0182 -0.2920  0.2389
18473TIP3    H176910   0.447   6.741  15.928 -0.6309  0.2430  0.0004
18473TIP3    H276911   0.482   6.824  15.806 -3.3129 -0.4169 -1.3093
18474TIP3   OH276912   1.132   4.753   1.284  0.1864  0.1139 -0.1464
18474TIP3    H176913   1.088   4.838   1.277  0.6772  0.3825 -0.0011
18474TIP3    H276914   1.061   4.689   1.274 -0.1772  0.5364 -0.3364
18475TIP3   OH276915   3.682   0.993  12.450  0.6342  0.1494  0.2023
18475TIP3    H176916   3.769   1.008  12.412  1.0701 -2.4059  0.0639
18475TIP3    H276917   3.699   0.943  12.529 -0.6657  0.6392  0.8088
18476TIP3   OH276918   4.819   5.007  14.637  0.0451 -0.5477 -0.0369
18476TIP3    H176919   4.754   5.054  14.585  2.7532  0.3601 -2.9075
18476TIP3    H276920   4.805   4.915  14.616  1.4497 -0.1942 -3.1786
18477TIP3   OH276921   4.554   1.338  11.250 -0.1079 -0.1328  0.3539
18477TIP3    H176922   4.631   1.330  11.306  1.5319 -1.4196 -1.9134
18477TIP3    H276923   4.556   1.259  11.195 -0.7053  1.7097 -2.5468
18478TIP3   OH276924   3.580   2.754  13.412  0.2264 -0.5564  0.2169
18478TIP3    H176925   3.485   2.753  13.425  0.3125 -1.5491  0.9018
18478TIP3    H276926   3.609   2.668  13.444  1.2993 -0.4372 -0.4146
18479TIP3   OH276927   3.414   1.845  15.408  0.2266 -0.2546 -0.1118
18479TIP3    H176928   3.377   1.881  15.489  0.2585 -0.3335 -0.0626
18479TIP3    H276929   3.423   1.921  15.350  0.7414 -0.1028  0.1616
18480TIP3   OH276930   2.637   6.448   5.956 -0.2264  0.4602 -0.4592
18480TIP3    H176931   2.712   6.389   5.946 -0.0955  0.5225  0.1311
18480TIP3    H276932   2.659   6.523   5.901 -0.2239  0.1252 -0.9232
18481TIP3   OH276933   4.852   0.881   1.891 -0.7446  0.1382  0.5931
18481TIP3    H176934   4.943   0.881   1.863 -1.0522 -2.2702 -0.6706
18481TIP3    H276935   4.818   0.966   1.861  1.5253  2.0472  3.0423
18482TIP3   OH276936   0.543   1.224   0.970  0.5476 -0.2493 -0.0114
18482TIP3    H176937   0.462   1.197   0.928  0.4854 -0.5353  0.2945
18482TIP3    H276938   0.609   1.163   0.937  0.6226 -0.0712 -0.1928
18483TIP3   OH276939   3.763   4.430   3.021  0.2893  0.3974  0.1520
18483TIP3    H176940   3.682   4.476   3.042 -0.6304 -1.0626 -0.1032
18483TIP3    H276941   3.746   4.389   2.936  1.1586 -0.2430  0.2722
18484TIP3   OH276942   1.864   4.874  17.077  0.0362 -0.2885 -0.6886
18484TIP3    H176943   1.952   4.880  17.040  0.1730 -0.7526 -0.4449
18484TIP3    H276944   1.806   4.887  17.002  0.3082  0.2194 -0.8159
18485TIP3   OH276945   5.928   0.017   1.183  0.4955  0.6356 -0.3133
18485TIP3    H176946   5.922   0.041   1.275  0.2347  0.6175 -0.3245
18485TIP3    H276947   5.941   0.100   1.137 -0.9315  0.8327 -0.4001
18486TIP3   OH276948   5.980   3.564   0.191  0.1711 -0.0070 -0.4883
18486TIP3    H176949   5.984   3.471   0.169 -0.9606  0.0421 -0.9765
18486TIP3    H276950   6.034   3.573   0.269 -0.1047 -1.1600 -0.1509
18487TIP3   OH276951   3.906   3.489  11.125 -0.1302 -0.0014 -0.6668
18487TIP3    H176952   3.887   3.471  11.033  0.5347 -1.4547 -0.5478
18487TIP3    H276953   3.878   3.409  11.171 -2.9725  1.6854  0.7796
18488TIP3   OH276954   4.550   4.332   3.885 -0.4351 -0.0807 -0.0976
18488TIP3    H176955   4.482   4.398   3.872 -0.3441 -0.2200 -1.3617
18488TIP3    H276956   4.502   4.249   3.887 -0.5659  0.0050  1.6371
18489TIP3   OH276957   5.300   1.069  11.671 -0.3570 -0.1946  0.4124
18489TIP3    H176958   5.339   1.154  11.651  0.0358 -0.6378 -0.7904
18489TIP3    H276959   5.232   1.057  11.605  1.3038 -1.9133 -1.1094
18490TIP3   OH276960   1.236   2.751  13.362 -0.0774 -0.3364  0.1152
18490TIP3    H176961   1.285   2.831  13.342 -1.7095  0.5871 -0.3687
18490TIP3    H276962   1.274   2.685  13.304  0.9465  0.1991  0.1468
18491TIP3   OH276963   0.266   2.713   5.514  0.2306  0.0302  0.1962
18491TIP3    H176964   0.192   2.734   5.570 -1.6652  2.4371 -2.8892
18491TIP3    H276965   0.312   2.796   5.502  2.7490 -1.1594  0.9759
18492TIP3   OH276966   2.610   3.805   5.589 -0.0715 -0.2314  0.0316
18492TIP3    H176967   2.558   3.860   5.648  1.1748  0.6401  0.3566
18492TIP3    H276968   2.622   3.723   5.636 -0.0271  0.0496  0.5177
18493TIP3   OH276969   0.887   0.603  14.037 -0.3733  0.5753 -0.3287
18493TIP3    H176970   0.829   0.675  14.061  0.6723  2.3416 -2.6971
18493TIP3    H276971   0.889   0.605  13.941  1.8496 -0.8629 -0.3776
18494TIP3   OH276972   4.337   5.973   5.352 -0.0982 -0.1749 -0.0763
18494TIP3    H176973   4.385   6.048   5.387  0.9423  0.3278 -2.3916
18494TIP3    H276974   4.249   6.007   5.336 -0.1601  0.0065  0.6196
18495TIP3   OH276975   1.175   2.693  15.555  0.2979 -0.3849  0.2116
18495TIP3    H176976   1.104   2.756  15.545  0.7219 -0.2411 -3.4487
18495TIP3    H276977   1.248   2.731  15.506  1.3277 -2.6211 -0.1467
18496TIP3   OH276978   4.939   1.391  11.726 -0.0872 -0.4284  0.2738
18496TIP3    H176979   4.926   1.406  11.819  0.6818  0.5740  0.2475
18496TIP3    H276980   5.032   1.369  11.718 -0.1072 -0.3402 -0.2700
18497TIP3   OH276981   3.618   4.990   5.419  0.7828  0.1277  0.3534
18497TIP3    H176982   3.666   4.908   5.423  0.9115  0.0888 -1.1672
18497TIP3    H276983   3.553   4.976   5.349  1.0577  1.4243 -0.1934
18498TIP3   OH276984   1.092   6.590   1.377 -0.2471  0.4823 -0.0413
18498TIP3    H176985   1.026   6.526   1.404  0.3076  0.7521  2.2079
18498TIP3    H276986   1.049   6.675   1.389 -0.7418  0.6061 -2.3258
18499TIP3   OH276987   4.378   6.399  11.516  0.5277 -0.2642 -0.2143
18499TIP3    H176988   4.436   6.474  11.500 -0.2914  0.0602 -1.8590
18499TIP3    H276989   4.315   6.401  11.444 -0.6938 -1.4233  0.7601
18500TIP3   OH276990   4.369   2.927  11.758 -0.5784 -0.3476 -0.5997
18500TIP3    H176991   4.442   2.974  11.719 -1.0561  0.9116 -0.0219
18500TIP3    H276992   4.409   2.856  11.808  0.4031  1.3904  1.2075
18501TIP3   OH276993   1.463   2.937  12.568  0.5231  1.0734 -0.8707
18501TIP3    H176994   1.514   2.889  12.502  1.5217 -1.2402  1.4008
18501TIP3    H276995   1.522   3.006  12.598  1.7137 -0.4021  0.3809
18502TIP3   OH276996   3.229   3.824  16.353 -0.2324 -0.0760 -0.0164
18502TIP3    H176997   3.218   3.786  16.265  0.2545  0.9056 -0.5118
18502TIP3    H276998   3.318   3.799  16.378 -0.1001  0.2769 -0.1254
18503TIP3   OH276999   1.810   4.964  14.540  0.4540  0.3643 -0.1966
18503TIP3    H177000   1.862   4.901  14.590 -0.6838  0.9040  1.7871
18503TIP3    H277001   1.743   4.911  14.497 -1.0606  0.2121  2.1921
18504TIP3   OH277002   3.361   4.558   3.581 -0.0016 -0.1223 -0.0388
18504TIP3    H177003   3.296   4.617   3.619  1.5737  1.4202  0.3922
18504TIP3    H277004   3.316   4.474   3.574 -2.5204  1.2135 -1.1846
18505TIP3   OH277005   4.416   0.063  14.935  0.3192  0.3575  0.1606
18505TIP3    H177006   4.320   0.070  14.936  0.4042  1.7295  0.2947
18505TIP3    H277007   4.445   0.138  14.884  1.2913 -0.8315 -1.0986
18506TIP3   OH277008   4.535   3.522  11.089 -0.5684  0.3897 -0.1881
18506TIP3    H177009   4.463   3.465  11.116 -1.0432  1.4145  0.8423
18506TIP3    H277010   4.612   3.467  11.093 -1.0061 -0.1828  0.8627
18507TIP3   OH277011   2.714   5.800   6.146 -0.0832  0.1414 -0.1413
18507TIP3    H177012   2.725   5.876   6.202 -2.0610  0.8404 -0.6414
18507TIP3    H277013   2.665   5.737   6.199  0.1823 -0.1748 -0.2633
18508TIP3   OH277014   4.479   3.485   6.501 -1.0550 -0.4028 -0.0804
18508TIP3    H177015   4.413   3.463   6.567 -2.7216  1.3695 -1.0729
18508TIP3    H277016   4.473   3.415   6.436  0.4896 -2.0826  1.4365
18509TIP3   OH277017   4.361   6.006   4.008 -0.1779 -0.0597  0.2615
18509TIP3    H177018   4.306   6.072   4.049  0.6996  0.7506  0.1675
18509TIP3    H277019   4.323   5.993   3.921  0.6209  1.6093 -0.3807
18510TIP3   OH277020   5.440   5.998  16.823  0.0653 -0.4913  0.1544
18510TIP3    H177021   5.534   5.988  16.839 -0.0161 -0.3748  0.7607
18510TIP3    H277022   5.419   5.928  16.761  0.5517 -0.5206  0.0176
18511TIP3   OH277023   1.177   4.159   1.376  0.3196  0.1246 -0.2174
18511TIP3    H177024   1.169   4.255   1.375  0.8721  0.1731 -1.5745
18511TIP3    H277025   1.270   4.143   1.389  0.0054 -0.2920  1.9758
18512TIP3   OH277026   5.879   0.430  12.856 -0.0688 -0.0739 -0.1197
18512TIP3    H177027   5.871   0.359  12.793  1.4726 -0.3269 -0.0721
18512TIP3    H277028   5.838   0.396  12.936  1.6477 -1.4023  0.2582
18513TIP3   OH277029   2.391   1.868   0.414  0.4568 -0.3039 -0.0064
18513TIP3    H177030   2.344   1.792   0.450 -0.5481 -0.4214 -1.4980
18513TIP3    H277031   2.448   1.896   0.486 -0.5134 -1.3221  1.2212
18514TIP3   OH277032   3.078   6.095   4.711  0.2009  0.6442 -0.0144
18514TIP3    H177033   3.030   6.139   4.782 -0.2536 -1.4929  1.0820
18514TIP3    H277034   3.170   6.106   4.735  0.0274 -1.3470  1.8195
18515TIP3   OH277035   4.713   5.843   1.245 -0.0600  0.2284 -0.5299
18515TIP3    H177036   4.797   5.889   1.253  0.3915 -0.3939 -1.4720
18515TIP3    H277037   4.659   5.901   1.192  0.3626 -0.1173 -1.3557
18516TIP3   OH277038   0.390   0.703   4.851  0.2108 -0.9250  0.2340
18516TIP3    H177039   0.314   0.652   4.823  0.8448 -2.1202  0.5945
18516TIP3    H277040   0.405   0.674   4.942  1.1304 -0.7685  0.1391
18517TIP3   OH277041   0.833   3.920  11.170 -0.0758 -0.1900 -0.4384
18517TIP3    H177042   0.910   3.976  11.164 -0.4683  0.3153 -0.8646
18517TIP3    H277043   0.814   3.894  11.080 -1.7376  1.5656 -0.6673
18518TIP3   OH277044   5.930   3.752   3.064  0.4571 -0.4302 -0.0028
18518TIP3    H177045   5.862   3.728   3.126  0.6068  1.5742  1.0050
18518TIP3    H277046   6.000   3.689   3.079 -0.7600 -1.9318 -0.4080
18519TIP3   OH277047   5.485   0.362  16.599 -0.5464 -0.0878 -0.3732
18519TIP3    H177048   5.567   0.365  16.550 -1.2702 -0.8014 -1.6724
18519TIP3    H277049   5.450   0.451  16.592  0.0508  0.1973  0.1203
18520TIP3   OH277050   1.642   4.740  13.010 -0.0671  0.8353 -0.1716
18520TIP3    H177051   1.631   4.713  13.102 -0.9389  0.8513 -0.2665
18520TIP3    H277052   1.736   4.751  13.000  0.1827 -0.6612  0.2986
18521TIP3   OH277053   4.246   0.550   4.437  0.7417 -0.2397 -0.1877
18521TIP3    H177054   4.183   0.478   4.443  0.9012 -0.3021  0.9259
18521TIP3    H277055   4.255   0.565   4.343 -0.4168 -0.6809 -0.3969
18522TIP3   OH277056   3.881   4.288   4.810 -0.4077 -0.0356  0.3198
18522TIP3    H177057   3.941   4.342   4.861 -0.6936  2.0286 -1.3835
18522TIP3    H277058   3.924   4.277   4.725 -2.3608  1.5729 -0.9907
18523TIP3   OH277059   3.750   6.609   1.187 -0.1519  0.3022 -0.0937
18523TIP3    H177060   3.665   6.567   1.201  0.8509 -2.4533 -1.6553
18523TIP3    H277061   3.747   6.640   1.097  0.7771 -0.5224 -0.4171
18524TIP3   OH277062   4.365   3.045   0.694  0.0002 -0.6651 -0.4901
18524TIP3    H177063   4.447   3.094   0.698  0.4502 -1.4392 -0.0886
18524TIP3    H277064   4.372   2.981   0.764 -1.2456 -0.2924  0.0000
18525TIP3   OH277065   6.012   5.964   1.938 -0.2792  0.2010 -0.0689
18525TIP3    H177066   6.059   6.011   1.870 -0.5905 -0.8679 -1.0458
18525TIP3    H277067   6.000   5.876   1.903  0.4046 -0.6686  1.7484
18526TIP3   OH277068   2.867   0.191   2.380  0.1114 -0.0707  0.3317
18526TIP3    H177069   2.951   0.211   2.341  0.7040 -1.7944  0.6332
18526TIP3    H277070   2.802   0.228   2.319  1.0231 -1.4507 -1.5618
18527TIP3   OH277071   6.348   2.299  15.368 -0.1365 -0.4030 -0.2933
18527TIP3    H177072   6.423   2.325  15.422 -1.3309  1.0698  0.7578
18527TIP3    H277073   6.350   2.203  15.369  0.3114 -0.4227  1.8232
18528TIP3   OH277074   0.815   6.421   1.298  0.3376 -0.4432  1.0973
18528TIP3    H177075   0.784   6.491   1.356 -0.1922 -0.2967  0.6527
18528TIP3    H277076   0.794   6.340   1.346 -1.9046 -0.4082  0.3231
18529TIP3   OH277077   1.946   1.833  14.082 -0.9147 -0.4614 -0.5611
18529TIP3    H177078   1.958   1.886  14.003  0.3265 -0.0776 -0.1308
18529TIP3    H277079   2.024   1.777  14.086 -0.3756  0.3519  1.0020
18530TIP3   OH277080   5.150   3.783   4.776 -0.4859  0.4240 -0.2251
18530TIP3    H177081   5.205   3.707   4.758  0.0747  0.6436  0.5143
18530TIP3    H277082   5.170   3.806   4.867 -1.4825  0.7723 -0.0845
18531TIP3   OH277083   6.144   4.371  11.614  0.2275  0.8423  0.3232
18531TIP3    H177084   6.236   4.363  11.591  0.0879 -1.6776  0.4317
18531TIP3    H277085   6.134   4.463  11.640  2.5021  1.3682 -0.4325
18532TIP3   OH277086   4.832   3.686  11.213  0.5800 -0.2736 -0.1342
18532TIP3    H177087   4.861   3.721  11.128  1.3769 -0.2737  0.1294
18532TIP3    H277088   4.800   3.598  11.193  1.1345 -0.4241 -0.3773
18533TIP3   OH277089   0.837   3.838   4.838 -0.1395 -0.2469  0.1536
18533TIP3    H177090   0.887   3.919   4.846 -0.4475 -0.0890  0.5522
18533TIP3    H277091   0.802   3.839   4.749 -0.6069  0.3316  0.3410
18534TIP3   OH277092   2.377   2.823  11.475 -0.1670  0.0285 -0.2911
18534TIP3    H177093   2.285   2.820  11.502 -0.5371 -1.0989 -1.5619
18534TIP3    H277094   2.407   2.909  11.504 -0.9607 -0.4365  2.1404
18535TIP3   OH277095   0.755   0.745   5.582 -0.2309 -0.3218  0.3153
18535TIP3    H177096   0.674   0.699   5.604  0.6085 -1.3359  1.3980
18535TIP3    H277097   0.762   0.736   5.487 -1.7599  0.4644  0.0823
18536TIP3   OH277098   3.886   4.747   1.575  0.2326 -0.0008 -0.0716
18536TIP3    H177099   3.830   4.819   1.604  1.2925  0.5963  0.5605
18536TIP3    H277100   3.924   4.712   1.656  2.5625  1.1149 -0.5979
18537TIP3   OH277101   3.703   5.767  16.787  0.2246  0.8213 -0.2258
18537TIP3    H177102   3.711   5.804  16.699  0.7420 -1.9904 -1.4809
18537TIP3    H277103   3.715   5.841  16.845 -0.2671  2.8339 -2.5038
18538TIP3   OH277104   3.351   3.252   3.108  0.0070 -0.1361  0.2511
18538TIP3    H177105   3.311   3.286   3.188 -0.9291  1.4810 -0.8487
18538TIP3    H277106   3.291   3.183   3.079  0.1213 -0.4294  0.6991
18539TIP3   OH277107   3.651   0.425  11.767  0.2344  0.0938 -0.0074
18539TIP3    H177108   3.740   0.407  11.736 -0.4489 -0.9815 -1.5101
18539TIP3    H277109   3.659   0.501  11.823  2.4943 -1.4921  1.9990
18540TIP3   OH277110   2.254   0.524  15.971  0.0753 -0.5416 -0.2302
18540TIP3    H177111   2.312   0.447  15.975 -0.1498 -0.7488 -0.8447
18540TIP3    H277112   2.177   0.498  16.021  0.1407 -0.5981 -0.1587
18541TIP3   OH277113   1.633   1.704  15.743  0.2229 -0.4466  0.5917
18541TIP3    H177114   1.687   1.762  15.691 -1.3879 -0.2330 -0.9477
18541TIP3    H277115   1.669   1.616  15.727 -0.3723 -0.4098 -1.1166
18542TIP3   OH277116   6.012   5.594   1.541  0.0777 -0.2246  0.4410
18542TIP3    H177117   5.949   5.662   1.517  1.0364  0.6084  0.2138
18542TIP3    H277118   6.083   5.603   1.478  1.1942 -0.0438  1.6702
18543TIP3   OH277119   6.769   5.912   0.543  0.1907  0.7866  0.6499
18543TIP3    H177120   6.714   5.959   0.606 -2.0610 -0.1070 -0.5347
18543TIP3    H277121   6.803   5.837   0.592 -0.1696  1.0034  1.2497
18544TIP3   OH277122   1.906   5.051   0.266  0.7467  0.2478  0.3974
18544TIP3    H177123   1.924   5.044   0.359  0.4454  2.3077  0.6432
18544TIP3    H277124   1.992   5.057   0.224  0.8551  1.3583  0.7529
18545TIP3   OH277125   3.751   4.890  12.614 -0.2777 -0.1892 -0.3537
18545TIP3    H177126   3.842   4.895  12.643 -0.0877  0.8163 -1.1066
18545TIP3    H277127   3.755   4.843  12.530 -0.5678 -0.9889  0.0680
18546TIP3   OH277128   4.785   0.487  12.682  0.0951  0.0451  0.0750
18546TIP3    H177129   4.748   0.547  12.747 -0.4124 -0.6290  0.4236
18546TIP3    H277130   4.708   0.450  12.638  0.3302 -1.3730  0.8033
18547TIP3   OH277131   5.209   6.262  10.456  0.5911  1.2466  0.5708
18547TIP3    H177132   5.179   6.205  10.385 -1.2192  3.0553 -0.2235
18547TIP3    H277133   5.183   6.216  10.536 -0.1056  0.5868 -0.0176
18548TIP3   OH277134   1.008   5.477  14.344 -0.2887  0.4070 -0.0328
18548TIP3    H177135   0.973   5.512  14.262  1.6357 -0.0051 -1.0728
18548TIP3    H277136   1.097   5.451  14.324  0.3486  0.5373  2.2769
18549TIP3   OH277137   3.596   4.567  11.121  0.0295  0.0399  0.0837
18549TIP3    H177138   3.614   4.604  11.034  1.4303 -0.3060  0.2105
18549TIP3    H277139   3.541   4.490  11.103  0.0325  0.1581 -0.4638
18550TIP3   OH277140   4.607   5.723   3.054 -0.2364 -0.4257  0.0109
18550TIP3    H177141   4.535   5.703   2.994  0.2524  0.0551 -0.7544
18550TIP3    H277142   4.565   5.731   3.140 -1.2618  0.7942 -0.5662
18551TIP3   OH277143   3.436   0.935  12.748 -0.7281 -0.3354  0.5755
18551TIP3    H177144   3.521   0.896  12.727 -1.0158 -0.8138  0.2613
18551TIP3    H277145   3.427   1.008  12.687 -1.1613 -1.1635 -0.3875
18552TIP3   OH277146   6.578   2.972   5.920  0.5208  0.2147  0.4595
18552TIP3    H177147   6.624   3.009   5.844 -0.0552  1.2557  0.5976
18552TIP3    H277148   6.563   3.047   5.977 -0.8972 -0.1947  0.6483
18553TIP3   OH277149   0.790   1.599  12.204  0.5168  0.1477  0.1649
18553TIP3    H177150   0.871   1.646  12.184  0.2310  0.9609  0.8322
18553TIP3    H277151   0.728   1.668  12.228  0.5268 -0.6236  2.7591
18554TIP3   OH277152   5.946   2.094  16.923 -0.1993 -0.2942  0.0885
18554TIP3    H177153   5.973   2.006  16.898 -1.2840 -0.7295  0.3867
18554TIP3    H277154   5.902   2.129  16.846  0.9428  0.3200 -0.3118
18555TIP3   OH277155   0.844   2.067  14.869 -0.3982 -0.0900 -0.3742
18555TIP3    H177156   0.757   2.097  14.896 -0.0788  2.6222 -2.0161
18555TIP3    H277157   0.900   2.085  14.945 -0.9555 -0.4258  0.1332
18556TIP3   OH277158   4.665   5.826  13.026 -0.0336  0.2963 -0.0075
18556TIP3    H177159   4.696   5.770  13.097  0.1288 -1.1098 -1.1423
18556TIP3    H277160   4.703   5.912  13.044  3.1956 -0.9202 -0.4350
18557TIP3   OH277161   3.544   1.236   4.105 -0.0504  0.2239  0.7717
18557TIP3    H177162   3.500   1.319   4.091  0.5237  1.1346  3.7462
18557TIP3    H277163   3.598   1.250   4.182 -0.6784 -3.1688  2.0041
18558TIP3   OH277164   1.282   5.675  13.127 -0.0607 -0.2304  0.1887
18558TIP3    H177165   1.324   5.665  13.212 -0.1657 -0.5250  0.2067
18558TIP3    H277166   1.350   5.652  13.064 -0.2568 -0.9293  0.2245
18559TIP3   OH277167   2.057   0.223  11.236 -0.7552 -0.5517  0.1127
18559TIP3    H177168   2.080   0.131  11.227 -1.9382 -0.6515 -4.6113
18559TIP3    H277169   2.135   0.270  11.209 -0.9311 -0.2684  0.0910
18560TIP3   OH277170   3.643   3.543   2.368 -0.1116  0.1562 -0.1029
18560TIP3    H177171   3.593   3.608   2.416  0.5424  1.4880 -1.1762
18560TIP3    H277172   3.730   3.545   2.409  0.3075  0.9560 -1.0050
18561TIP3   OH277173   6.340   4.876  13.545 -0.6774  0.3498  0.1352
18561TIP3    H177174   6.345   4.891  13.451 -0.8075 -2.3555 -0.3848
18561TIP3    H277175   6.346   4.963  13.584 -4.7194  2.0439 -2.4606
18562TIP3   OH277176   0.875   4.411  16.045 -0.1592  0.1650 -0.5588
18562TIP3    H177177   0.781   4.402  16.057 -0.2176  0.6081 -0.6633
18562TIP3    H277178   0.886   4.496  16.003  0.5002  1.5709  2.1996
18563TIP3   OH277179   6.633   0.010   6.140 -0.0712 -0.1123  0.2082
18563TIP3    H177180   6.622  -0.066   6.082 -1.4197  0.5102 -0.3816
18563TIP3    H277181   6.707   0.058   6.102 -0.9034  0.2624 -1.0150
18564TIP3   OH277182   1.174   0.678   2.658 -0.0292 -0.0999  0.2091
18564TIP3    H177183   1.260   0.649   2.687  0.0331  0.8711  1.0501
18564TIP3    H277184   1.142   0.607   2.602  0.7898 -1.0196  0.8876
18565TIP3   OH277185   1.703   5.452   0.044  0.2768 -0.0035 -0.2181
18565TIP3    H177186   1.674   5.532   0.088 -0.5968  0.0339 -0.8325
18565TIP3    H277187   1.689   5.382   0.108  1.2702  0.3446  0.4109
18566TIP3   OH277188   5.429   3.702  14.022 -0.1696  0.1114 -0.6527
18566TIP3    H177189   5.519   3.693  14.052 -0.1424 -0.6052 -0.9483
18566TIP3    H277190   5.380   3.634  14.069 -0.6284  0.7123 -0.2365
18567TIP3   OH277191   1.582   5.365  12.077  0.4007  0.4231 -0.2749
18567TIP3    H177192   1.504   5.419  12.068  1.2003  1.6104 -0.3861
18567TIP3    H277193   1.575   5.327  12.164 -0.3107  0.4819 -0.2979
18568TIP3   OH277194   4.256   2.529  13.304 -1.1001  0.5387 -0.4620
18568TIP3    H177195   4.257   2.543  13.399  0.3969 -2.5491  0.1175
18568TIP3    H277196   4.181   2.471  13.290 -1.8392  1.6777 -1.3387
18569TIP3   OH277197   1.423   1.864  15.171 -0.7410  0.3854  0.1847
18569TIP3    H177198   1.518   1.876  15.177 -0.8611  1.7121 -0.3859
18569TIP3    H277199   1.387   1.952  15.181 -1.8735  0.0086 -0.4635
18570TIP3   OH277200   0.776   4.305   5.303  0.1685 -0.4302 -0.2099
18570TIP3    H177201   0.737   4.233   5.352 -2.2434  0.3383 -0.8706
18570TIP3    H277202   0.768   4.277   5.211 -0.2259  0.4025 -0.4335
18571TIP3   OH277203   3.426   1.381  14.516 -0.6700 -0.3888  0.0304
18571TIP3    H177204   3.353   1.442  14.529  0.0981  0.3801  0.9938
18571TIP3    H277205   3.468   1.377  14.602  1.5328  0.6747 -0.9298
18572TIP3   OH277206   1.133   6.746  16.532 -1.3291 -0.2260  0.2372
18572TIP3    H177207   1.160   6.667  16.485 -1.7574 -0.0900 -0.2556
18572TIP3    H277208   1.190   6.750  16.608 -0.0168  0.0258 -0.7274
18573TIP3   OH277209   2.263   4.625  11.712 -0.5393 -0.3064  0.0705
18573TIP3    H177210   2.183   4.674  11.700 -1.0852 -0.7510  1.6022
18573TIP3    H277211   2.319   4.682  11.765 -0.0641 -0.2363 -0.4904
18574TIP3   OH277212   1.666   5.262  16.244 -0.1905 -0.1971  0.0781
18574TIP3    H177213   1.571   5.259  16.233 -0.0732  0.3801 -1.2931
18574TIP3    H277214   1.700   5.213  16.169  0.5834 -1.4912  1.2264
18575TIP3   OH277215   5.684   4.621  11.840 -0.5426 -0.8212  0.2558
18575TIP3    H177216   5.610   4.563  11.855 -0.6665 -1.1175 -1.2609
18575TIP3    H277217   5.718   4.594  11.754  0.2770  0.4041  0.1690
18576TIP3   OH277218   3.774   3.350  13.875  0.4784  0.2472  0.2134
18576TIP3    H177219   3.729   3.428  13.906  1.2265  1.1409 -0.8647
18576TIP3    H277220   3.744   3.338  13.785 -0.3018 -1.2558  0.6376
18577TIP3   OH277221   1.507   5.123  11.324  0.2178  0.1242 -0.0153
18577TIP3    H177222   1.583   5.181  11.316 -1.1486  2.3323  1.6805
18577TIP3    H277223   1.474   5.115  11.234  1.8539 -0.0715 -0.6358
18578TIP3   OH277224   6.353   1.913  14.895  0.4064 -0.1908 -0.1921
18578TIP3    H177225   6.350   2.000  14.935  0.1673 -0.1503 -0.3006
18578TIP3    H277226   6.345   1.930  14.801 -1.7300 -0.4690 -0.0987
18579TIP3   OH277227   0.162   6.457  16.194  0.6684 -0.3917 -0.3703
18579TIP3    H177228   0.164   6.510  16.273 -0.4904 -0.1746 -0.4615
18579TIP3    H277229   0.129   6.517  16.126  2.5414 -0.2981 -1.2586
18580TIP3   OH277230   6.448   6.054   2.794 -0.0849  0.5010 -0.0447
18580TIP3    H177231   6.489   6.113   2.857 -1.5051  0.4159  0.9966
18580TIP3    H277232   6.452   5.968   2.835 -0.6728  0.3787 -0.2353
18581TIP3   OH277233   0.293   2.712   6.750 -0.0368 -0.8814  0.2942
18581TIP3    H177234   0.209   2.751   6.776  0.9728  3.1345 -1.6873
18581TIP3    H277235   0.271   2.656   6.675 -0.9201  0.9334 -0.8776
18582TIP3   OH277236   6.000   2.782  16.608 -0.3195  0.0067  0.5857
18582TIP3    H177237   5.972   2.802  16.518 -0.9444 -4.9255 -0.6452
18582TIP3    H277238   5.922   2.798  16.661 -1.1094 -0.3411 -0.4154
18583TIP3   OH277239   6.536   0.267   2.089  0.1427 -0.1924 -0.0999
18583TIP3    H177240   6.546   0.251   2.183  1.1825 -1.3639 -0.3855
18583TIP3    H277241   6.443   0.285   2.077  0.2363  1.4740  1.3487
18584TIP3   OH277242   2.857   3.533  16.181 -0.2226  0.2851  0.0193
18584TIP3    H177243   2.811   3.611  16.151 -0.5302 -0.1278 -0.6072
18584TIP3    H277244   2.792   3.483  16.230 -0.1096  0.2729  0.1588
18585TIP3   OH277245   4.938   1.661  13.842 -0.0989 -0.3939  0.3227
18585TIP3    H177246   4.895   1.662  13.927 -1.8230  1.2691 -0.4912
18585TIP3    H277247   5.018   1.712  13.854  0.8905 -2.1008  1.4396
18586TIP3   OH277248   1.217   5.383  14.795 -0.4440 -0.0147 -0.3808
18586TIP3    H177249   1.260   5.466  14.772  0.2294 -0.6059 -1.3104
18586TIP3    H277250   1.138   5.382  14.741 -0.2305 -0.1725 -0.6931
18587TIP3   OH277251   6.529   0.196   2.344 -0.2252  0.0120 -0.0078
18587TIP3    H177252   6.445   0.184   2.389 -0.4319 -0.2975 -0.4677
18587TIP3    H277253   6.581   0.121   2.371 -0.2837 -0.0762 -0.1418
18588TIP3   OH277254   6.643   6.042   0.152  0.3673  0.2106 -0.2196
18588TIP3    H177255   6.588   6.003   0.220 -0.6402 -1.3506 -1.8622
18588TIP3    H277256   6.657   6.132   0.181 -0.4949 -0.2418  1.7493
18589TIP3   OH277257   0.156   1.167  14.446 -0.4771  0.3330 -0.0601
18589TIP3    H177258   0.140   1.148  14.538 -0.0393 -0.1569 -0.0862
18589TIP3    H277259   0.226   1.107  14.420 -2.8333 -1.9683 -1.5893
18590TIP3   OH277260   1.065   2.037  11.516  0.9984  0.3987  0.4544
18590TIP3    H177261   1.126   2.102  11.482  0.2920  0.9699  0.2466
18590TIP3    H277262   1.096   2.019  11.605  2.1451 -0.1961 -0.0578
18591TIP3   OH277263   6.524   5.534   0.994 -0.0025 -0.6257 -0.0694
18591TIP3    H177264   6.587   5.572   0.933 -1.1352 -1.6474 -1.9437
18591TIP3    H277265   6.456   5.601   1.003 -0.2458 -0.7929 -0.6085
18592TIP3   OH277266   6.139   1.868   2.211 -0.4267 -0.0167  0.6206
18592TIP3    H177267   6.143   1.792   2.153 -0.9493 -0.2432  0.8775
18592TIP3    H277268   6.125   1.831   2.298  1.4706  0.2510  1.0785
18593TIP3   OH277269   2.791   1.039   5.580 -0.3058 -0.2212 -0.0677
18593TIP3    H177270   2.797   0.962   5.637  0.8268 -1.5257 -1.8244
18593TIP3    H277271   2.869   1.033   5.524 -1.1013  1.2436 -1.4080
18594TIP3   OH277272   4.715   0.595   0.146  0.2175 -0.1325 -0.6861
18594TIP3    H177273   4.788   0.603   0.084 -0.8549 -3.0245 -2.5185
18594TIP3    H277274   4.648   0.545   0.098 -3.0375  2.3436  0.8903
18595TIP3   OH277275   4.817   1.582  15.526  0.2540  0.1964 -0.3100
18595TIP3    H177276   4.722   1.583  15.523  0.1361  3.6771  0.4821
18595TIP3    H277277   4.844   1.637  15.452  1.8552 -2.3474 -1.8033
18596TIP3   OH277278   1.484   2.084   5.255  0.7858 -0.3355 -0.1150
18596TIP3    H177279   1.560   2.029   5.276  0.1773 -1.1448 -0.0251
18596TIP3    H277280   1.410   2.024   5.252  0.2646  0.3351 -0.9894
18597TIP3   OH277281   0.588   1.400   5.252 -0.0502  0.7954  0.0454
18597TIP3    H177282   0.517   1.356   5.299  0.0575 -0.2274 -0.7306
18597TIP3    H277283   0.668   1.367   5.293  0.0586 -0.4029 -1.0753
18598TIP3   OH277284   5.894   5.487  14.579  0.0792 -0.1537  0.2164
18598TIP3    H177285   5.825   5.456  14.637 -0.0990 -0.4794 -0.1622
18598TIP3    H277286   5.875   5.580  14.566  0.3054 -0.0044  0.9278
18599TIP3   OH277287   6.077   1.098   3.817  0.4451 -0.0468 -0.6126
18599TIP3    H177288   6.128   1.178   3.810 -1.1041  0.9675 -0.7724
18599TIP3    H277289   6.049   1.079   3.727  1.9360 -1.5678 -0.7954
18600TIP3   OH277290   1.764   2.773   1.540  0.5968 -0.0819 -0.0334
18600TIP3    H177291   1.809   2.802   1.461  1.1072 -1.8055 -0.3949
18600TIP3    H277292   1.832   2.731   1.593 -0.0271 -0.1922  0.6977
18601TIP3   OH277293   2.547   5.457   1.641 -0.0065  0.2269 -0.0588
18601TIP3    H177294   2.453   5.473   1.648 -0.0920 -0.3431  0.2338
18601TIP3    H277295   2.581   5.472   1.730  0.0957 -0.0458 -0.0507
18602TIP3   OH277296   2.074   3.253  14.713  0.4257 -0.5233 -0.1484
18602TIP3    H177297   2.021   3.333  14.718  0.1637 -0.7231  0.3358
18602TIP3    H277298   2.015   3.184  14.740  0.1163 -1.1580 -2.2354
18603TIP3   OH277299   6.264   0.867  11.574  0.2643 -0.0190 -0.0152
18603TIP3    H177300   6.237   0.796  11.516 -0.6112  1.2005 -1.1602
18603TIP3    H277301   6.253   0.946  11.522  1.0734  0.9811  1.2770
18604TIP3   OH277302   2.430   5.614   0.441 -0.2654 -0.2348 -0.2774
18604TIP3    H177303   2.377   5.673   0.494  0.1162 -0.1675  0.0304
18604TIP3    H277304   2.516   5.655   0.437 -0.0966 -0.5890 -0.3663
18605TIP3   OH277305   1.585   4.919   3.809  0.0405 -0.2164  0.0379
18605TIP3    H177306   1.669   4.961   3.828  0.4243 -0.8645 -0.1826
18605TIP3    H277307   1.562   4.951   3.721 -0.1514  0.2907  0.2735
18606TIP3   OH277308   4.012   5.668   3.925  0.1938  0.3176 -0.3309
18606TIP3    H177309   3.972   5.581   3.926 -0.6639  0.7014  0.4955
18606TIP3    H277310   4.048   5.678   4.012 -1.0075  1.3534  0.0723
18607TIP3   OH277311   3.315   5.963  12.314 -0.4539 -0.0949  0.0079
18607TIP3    H177312   3.308   6.053  12.284 -0.8270  0.4169  1.5614
18607TIP3    H277313   3.314   5.969  12.410 -1.1676 -1.7908  0.1435
18608TIP3   OH277314   6.633   4.633  13.707  0.1353  0.2315 -0.1982
18608TIP3    H177315   6.681   4.657  13.628  0.7749  2.5635  0.7948
18608TIP3    H277316   6.694   4.581  13.758  0.0315 -0.5196 -0.8198
18609TIP3   OH277317   2.782   1.222   3.217 -0.1920  0.2568 -0.5113
18609TIP3    H177318   2.841   1.148   3.231  1.4853  1.6968  0.4954
18609TIP3    H277319   2.715   1.189   3.158  0.0230 -2.2768  0.5615
18610TIP3   OH277320   6.453   3.457  15.828 -0.0647  0.3716  0.7205
18610TIP3    H177321   6.363   3.441  15.798  0.9694 -1.4202 -1.7098
18610TIP3    H277322   6.499   3.487  15.750  1.5107  1.2415  1.9257
18611TIP3   OH277323   1.764   5.411  15.176  0.5808  0.9163 -0.0551
18611TIP3    H177324   1.741   5.464  15.252  0.8125  2.0681 -0.7592
18611TIP3    H277325   1.805   5.333  15.213  0.4040  1.3072  1.0066
18612TIP3   OH277326   3.203   6.599   4.527 -0.0716  0.2043  0.2319
18612TIP3    H177327   3.129   6.540   4.518 -0.5713  0.9170 -0.3891
18612TIP3    H277328   3.262   6.575   4.456 -0.1258  0.2293  0.1780
18613TIP3   OH277329   6.083   0.275  10.794  0.1880 -1.0172 -0.1318
18613TIP3    H177330   6.090   0.313  10.882  2.2258 -2.2891  0.3259
18613TIP3    H277331   5.995   0.298  10.765  0.3299  1.6050  1.1963
18614TIP3   OH277332   1.752   2.783   5.733  0.0627 -0.4497  0.0765
18614TIP3    H177333   1.770   2.767   5.826 -0.1637 -1.3644 -0.0270
18614TIP3    H277334   1.824   2.742   5.687  1.9238  2.7058 -0.0985
18615TIP3   OH277335   4.712   1.097  15.922 -0.1366  0.3736  0.2944
18615TIP3    H177336   4.663   1.177  15.942  1.0943  1.9111 -2.2575
18615TIP3    H277337   4.801   1.114  15.955  0.0635 -0.0844  0.0049
18616TIP3   OH277338   1.635   3.389   0.027  0.5724  0.4333  0.4524
18616TIP3    H177339   1.540   3.392   0.016  0.3223 -0.9995  1.8513
18616TIP3    H277340   1.650   3.426   0.114  1.2619  0.2387  0.4247
18617TIP3   OH277341   6.405   6.514  13.028  0.0910  0.6894 -0.3269
18617TIP3    H177342   6.484   6.470  13.060 -1.3161 -1.4762  0.3314
18617TIP3    H277343   6.390   6.585  13.090  1.3583  0.9713 -0.3167
18618TIP3   OH277344   5.840   3.675  16.563  0.3064  0.1072 -0.6444
18618TIP3    H177345   5.891   3.654  16.485 -1.8360  0.2886 -2.1935
18618TIP3    H277346   5.829   3.591  16.609  1.9549  0.0800 -0.2442
18619TIP3   OH277347   6.614   0.169   0.244 -0.3079  0.4242  0.0481
18619TIP3    H177348   6.566   0.252   0.250  0.8258  1.1172 -0.0522
18619TIP3    H277349   6.579   0.127   0.165 -1.0625  0.6899  0.2286
18620TIP3   OH277350   6.384   4.588   5.229 -0.0300  0.6293  0.3089
18620TIP3    H177351   6.364   4.647   5.156 -0.4502  0.0749 -0.0328
18620TIP3    H277352   6.479   4.587   5.234  0.0402 -0.0571 -0.8486
18621TIP3   OH277353   0.000   2.474  16.216 -0.0946 -0.2517  0.1823
18621TIP3    H177354   0.031   2.407  16.277  0.1950 -2.2866 -2.0368
18621TIP3    H277355   0.013   2.435  16.129 -1.3327  2.1132 -1.1688
18622TIP3   OH277356   0.817   0.692   3.923  0.0907 -0.4678  0.0605
18622TIP3    H177357   0.892   0.751   3.928 -0.2700 -0.0273  0.2393
18622TIP3    H277358   0.766   0.724   3.849  0.6446 -1.4359 -0.7677
18623TIP3   OH277359   0.309   1.373   0.671  0.3230 -0.1516 -0.1179
18623TIP3    H177360   0.336   1.437   0.737  2.1486 -1.0619  0.1012
18623TIP3    H277361   0.259   1.423   0.607  2.0908  1.6226 -0.2052
18624TIP3   OH277362   0.819   0.679   4.573 -0.3221  0.4803 -0.0655
18624TIP3    H177363   0.838   0.596   4.528 -0.6009  0.7993 -0.7845
18624TIP3    H277364   0.729   0.700   4.547  0.1254  1.5636 -0.7694
18625TIP3   OH277365   2.776   3.515  11.584  0.0196 -0.2758 -0.0457
18625TIP3    H177366   2.864   3.550  11.570 -0.6186  2.5453  1.8915
18625TIP3    H277367   2.774   3.433  11.535  3.9337 -0.8493  0.4003
18626TIP3   OH277368   3.892   0.707  15.768  0.3267  0.4107 -0.2959
18626TIP3    H177369   3.814   0.694  15.715  0.3495 -0.2588 -0.1767
18626TIP3    H277370   3.942   0.626  15.757  1.4893  1.2270 -1.1814
18627TIP3   OH277371   6.737   4.054   4.247 -0.0914  0.2750  0.0900
18627TIP3    H177372   6.785   4.057   4.330  0.0690  0.7635 -0.0202
18627TIP3    H277373   6.783   4.116   4.190  0.5013 -0.8615 -0.7366
18628TIP3   OH277374   0.603   4.233  10.687  0.3395  0.0734  0.0203
18628TIP3    H177375   0.612   4.138  10.697 -0.8857 -0.0104  0.6012
18628TIP3    H277376   0.540   4.258  10.755  2.3725  1.6638  1.4517
18629TIP3   OH277377   5.644   1.659   3.048 -0.2155  0.0457 -0.1242
18629TIP3    H177378   5.711   1.641   2.982  0.6243  1.1566  0.3922
18629TIP3    H277379   5.565   1.677   2.997  0.0996 -0.3670 -0.7783
18630TIP3   OH277380   2.797   5.802   2.755 -0.9118 -0.7656 -0.1957
18630TIP3    H177381   2.808   5.855   2.676  1.2978  1.5938  1.5474
18630TIP3    H277382   2.837   5.718   2.734 -0.0675 -0.0644 -1.5009
18631TIP3   OH277383   6.228   5.447   2.645 -0.0829 -0.2298  0.5850
18631TIP3    H177384   6.136   5.420   2.649 -0.1065 -0.1629  0.4769
18631TIP3    H277385   6.231   5.513   2.577 -0.1412  0.5423  1.3210
18632TIP3   OH277386   5.454   5.470   3.983 -0.2380  0.3837  0.7621
18632TIP3    H177387   5.369   5.425   3.984  1.2425 -2.7469 -0.4154
18632TIP3    H277388   5.440   5.546   3.927 -1.6188 -1.7800 -2.1442
18633TIP3   OH277389   0.228   3.691   2.675 -0.1982 -0.5901  0.0422
18633TIP3    H177390   0.166   3.625   2.644  0.7391 -1.9908  1.0456
18633TIP3    H277391   0.207   3.702   2.768  0.0964  0.0255  0.0414
18634TIP3   OH277392   5.415   3.562  14.390  0.0092  0.1068  0.0183
18634TIP3    H177393   5.474   3.487  14.399  0.6732  0.1603 -2.8174
18634TIP3    H277394   5.337   3.526  14.347 -0.8050  0.5872  1.0517
18635TIP3   OH277395   4.686   5.425   2.344 -0.6003  0.3261  0.5006
18635TIP3    H177396   4.600   5.384   2.355 -0.8448  1.3395  3.1726
18635TIP3    H277397   4.683   5.464   2.257 -3.0983  0.8267  0.7453
18636TIP3   OH277398   2.410   5.612   4.332 -0.2308  0.2307 -0.0261
18636TIP3    H177399   2.476   5.562   4.282  0.3686  1.0182 -0.0398
18636TIP3    H277400   2.407   5.567   4.417 -2.6325 -2.2998 -1.2901
18637TIP3   OH277401   2.360   3.103  15.479  0.2113  0.0214 -0.1427
18637TIP3    H177402   2.339   3.010  15.494 -0.9241  0.0995 -1.0641
18637TIP3    H277403   2.440   3.101  15.426 -1.0401 -0.5590 -2.1384
18638TIP3   OH277404   5.493   1.369  13.109  0.2204  0.2799 -0.7154
18638TIP3    H177405   5.424   1.436  13.108 -0.8272 -0.6397  1.6698
18638TIP3    H277406   5.527   1.371  13.198  0.4510 -2.0365 -0.6914
18639TIP3   OH277407   5.437   1.894   3.354 -0.4207 -0.0341  0.5445
18639TIP3    H177408   5.478   1.901   3.268  1.6614 -0.1777  1.4595
18639TIP3    H277409   5.350   1.858   3.336 -0.0593 -0.0200 -1.4928
18640TIP3   OH277410   3.268   6.183  12.810  1.1114 -0.0985 -0.6754
18640TIP3    H177411   3.361   6.187  12.832  1.1511  2.7612 -1.0166
18640TIP3    H277412   3.264   6.215  12.720 -0.4948  3.8846  0.6232
18641TIP3   OH277413   3.335   4.020   3.587  0.4455  0.0235 -0.6578
18641TIP3    H177414   3.271   4.021   3.516 -0.3358  1.3041  0.0229
18641TIP3    H277415   3.340   4.111   3.615 -0.0092 -0.5890  1.5807
18642TIP3   OH277416   3.194   0.712   3.513 -0.0678 -0.2497  0.3451
18642TIP3    H177417   3.263   0.700   3.448  1.9735  1.5023  2.0170
18642TIP3    H277418   3.143   0.787   3.481 -0.8597 -1.1746 -0.6014
18643TIP3   OH277419   3.589   4.535   0.380  0.4669  0.3893 -0.3111
18643TIP3    H177420   3.675   4.507   0.413  0.5250 -0.5719 -1.2313
18643TIP3    H277421   3.609   4.602   0.315  0.5845 -0.3120 -1.0192
18644TIP3   OH277422   4.675   4.596  14.948  0.0743 -0.2937 -0.0111
18644TIP3    H177423   4.601   4.544  14.979  1.3642 -0.9186  2.2263
18644TIP3    H277424   4.647   4.629  14.863 -2.1806 -1.7138  0.1031
18645TIP3   OH277425   4.279   2.232  15.535  0.0494 -0.2133 -0.3020
18645TIP3    H177426   4.284   2.294  15.607 -0.3719  0.0391 -0.4867
18645TIP3    H277427   4.365   2.237  15.492 -0.0962  0.4900 -0.5188
18646TIP3   OH277428   1.441   0.392   3.928  0.2271 -0.2492  0.1481
18646TIP3    H177429   1.532   0.380   3.955  0.2139 -3.0514 -0.7450
18646TIP3    H277430   1.398   0.426   4.007  1.9653  0.9164  0.6550
18647TIP3   OH277431   2.217   1.083   6.578 -0.2253 -0.4564 -0.0360
18647TIP3    H177432   2.208   1.034   6.496 -3.0354  0.7783 -0.5761
18647TIP3    H277433   2.185   1.171   6.557 -0.6112  0.0125  2.2660
18648TIP3   OH277434   5.528   1.938  15.428  0.2824  0.6366  0.3599
18648TIP3    H177435   5.553   1.945  15.520  2.1212  1.6174 -0.1441
18648TIP3    H277436   5.440   1.901  15.429  0.1882  0.7923  2.5057
18649TIP3   OH277437   1.029   3.687  12.787  0.0301  0.1154 -0.0319
18649TIP3    H177438   1.031   3.726  12.700  0.0594  0.1693 -0.0069
18649TIP3    H277439   1.022   3.762  12.847  1.3087  0.1650  0.0829
18650TIP3   OH277440   0.954   1.197   5.149 -0.1968 -0.4477 -0.3713
18650TIP3    H177441   0.873   1.233   5.114 -0.1591 -1.0873 -1.1555
18650TIP3    H277442   1.020   1.215   5.082  0.2668 -0.1334  0.1569
18651TIP3   OH277443   2.594   5.271   0.602 -0.0043  0.4745  0.3409
18651TIP3    H177444   2.659   5.267   0.672 -1.8003 -1.2364  2.0451
18651TIP3    H277445   2.645   5.289   0.523  2.2832  1.0385  1.8275
18652TIP3   OH277446   1.764   4.039  15.950  0.1087 -0.3158 -0.0224
18652TIP3    H177447   1.753   4.114  16.008 -1.3779 -0.3680 -0.2034
18652TIP3    H277448   1.851   4.051  15.912  0.7759  0.1554  1.5718
18653TIP3   OH277449   3.833   4.363  11.521 -0.3367  0.5041  0.0274
18653TIP3    H177450   3.769   4.339  11.588 -3.6210  0.2704 -2.8614
18653TIP3    H277451   3.837   4.287  11.463  0.8276  1.4054 -1.1331
18654TIP3   OH277452   3.407   0.787  16.217 -0.4217  0.1709  0.2460
18654TIP3    H177453   3.488   0.838  16.205 -0.3937  0.4624  1.5158
18654TIP3    H277454   3.346   0.823  16.152 -0.1340  1.2622  0.5575
18655TIP3   OH277455   0.311   2.268   0.208 -0.2592  0.4921 -0.1027
18655TIP3    H177456   0.276   2.323   0.138 -0.6611  0.9815  0.4816
18655TIP3    H277457   0.233   2.231   0.250 -0.1456  2.0869  1.6152
18656TIP3   OH277458   1.077   0.379  12.340  0.5500 -0.2886 -0.4611
18656TIP3    H177459   1.017   0.320  12.385  1.5605 -0.7844  0.2650
18656TIP3    H277460   1.146   0.397  12.403  1.9860 -0.9576 -1.7634
18657TIP3   OH277461   2.070   2.280   6.106  0.3452 -0.1058  0.4976
18657TIP3    H177462   2.075   2.359   6.161  3.8418 -0.3168  0.7407
18657TIP3    H277463   2.081   2.208   6.168 -2.4382 -0.8367  0.2252
18658TIP3   OH277464   4.371   4.171  15.611 -0.0360 -0.3859 -0.2817
18658TIP3    H177465   4.408   4.165  15.523  1.9377 -2.9748  0.6054
18658TIP3    H277466   4.340   4.083  15.631 -0.8795  0.2433  1.4609
18659TIP3   OH277467   2.123   6.422   5.276  0.2260  0.2128 -0.2083
18659TIP3    H177468   2.154   6.393   5.362  0.8367  0.2878 -0.3988
18659TIP3    H277469   2.156   6.356   5.215  1.4310  1.1621 -0.6181
18660TIP3   OH277470   2.292   2.197  12.783 -0.2605 -0.2014 -0.3740
18660TIP3    H177471   2.276   2.252  12.860 -2.4408 -1.3474  0.0720
18660TIP3    H277472   2.385   2.211  12.762  0.2397  0.6063  2.0755
18661TIP3   OH277473   0.142   2.277  15.179  0.2076 -0.2128  0.6278
18661TIP3    H177474   0.218   2.335  15.172 -0.0094 -0.0798 -0.9866
18661TIP3    H277475   0.179   2.188  15.176  0.3824 -0.1516  0.9793
18662TIP3   OH277476   0.029   4.580   2.781 -0.1313  0.1615 -0.0085
18662TIP3    H177477   0.096   4.515   2.802  1.1970  1.8436  1.3034
18662TIP3    H277478   0.067   4.631   2.710  0.6780  1.9660  1.6148
18663TIP3   OH277479   3.175   6.146   4.397 -0.0764 -0.6262 -0.2071
18663TIP3    H177480   3.080   6.151   4.388 -0.0182  1.4661 -0.2399
18663TIP3    H277481   3.204   6.095   4.321 -1.0511  0.2121 -1.1704
18664TIP3   OH277482   0.641   1.703  13.880  0.1736 -0.2634 -0.2746
18664TIP3    H177483   0.662   1.795  13.896  2.4292 -0.5236 -1.2965
18664TIP3    H277484   0.607   1.701  13.791 -0.2498 -0.3694 -0.1113
18665TIP3   OH277485   3.108   3.416   2.014 -0.3446 -0.1901  0.1378
18665TIP3    H177486   3.118   3.385   1.924  0.3403  0.1635  0.0836
18665TIP3    H277487   3.150   3.349   2.068  0.7913  0.4341  0.0509
18666TIP3   OH277488   2.476   5.284   5.904  0.3210  0.4799 -0.3215
18666TIP3    H177489   2.417   5.251   5.971 -0.9325 -0.7665 -1.9535
18666TIP3    H277490   2.446   5.373   5.887  1.9183  1.5796  2.0954
18667TIP3   OH277491   4.610   6.290  16.403 -0.3399 -0.5584 -0.1973
18667TIP3    H177492   4.554   6.314  16.477  0.3689 -0.9927  0.4911
18667TIP3    H277493   4.677   6.233  16.441  0.7190  0.1440 -0.9530
18668TIP3   OH277494   3.373   6.073   2.989  0.1352 -0.2242 -0.6161
18668TIP3    H177495   3.437   6.081   2.918  0.5972  0.7497 -0.1156
18668TIP3    H277496   3.426   6.056   3.067 -0.2060  0.6608 -0.1831
18669TIP3   OH277497   0.917   1.520   6.433 -0.3402 -0.4871 -0.2465
18669TIP3    H177498   0.975   1.451   6.400  1.5891  1.2846 -0.7804
18669TIP3    H277499   0.891   1.569   6.355  0.8233  1.1985  0.3655
18670TIP3   OH277500   5.249   2.589  13.144 -0.0038  0.4557 -0.2362
18670TIP3    H177501   5.250   2.498  13.114 -0.1073  0.5630 -0.5752
18670TIP3    H277502   5.253   2.640  13.063  1.8207  0.7598  0.0141
18671TIP3   OH277503   4.376   5.673  11.085 -0.1232 -0.0609 -0.2071
18671TIP3    H177504   4.351   5.741  11.023  0.6154  1.5341  1.1649
18671TIP3    H277505   4.304   5.668  11.147  1.5812  2.8084  2.3204
18672TIP3   OH277506   4.554   0.827  11.068  0.7392 -0.9986  0.1567
18672TIP3    H177507   4.494   0.810  11.141  1.1096 -0.9977  0.4620
18672TIP3    H277508   4.497   0.833  10.991  0.1475  0.6391  0.6657
18673TIP3   OH277509   5.251   6.091   1.945 -0.6500 -0.0213  0.6151
18673TIP3    H177510   5.183   6.127   1.888 -0.9295 -2.2330 -0.5342
18673TIP3    H277511   5.213   6.011   1.981  0.6811 -0.3263  1.4132
18674TIP3   OH277512   0.249   4.990  16.008 -0.1821 -0.6911 -0.0301
18674TIP3    H177513   0.209   4.949  15.931  0.2734  1.2799 -1.3870
18674TIP3    H277514   0.336   4.950  16.013  0.4668  0.4110 -1.6619
18675TIP3   OH277515   4.980   2.621  15.745  0.6894  0.2588 -0.4484
18675TIP3    H177516   4.969   2.650  15.835 -0.1974 -1.2058 -0.0693
18675TIP3    H277517   4.900   2.649  15.701  0.0578 -1.1185 -0.2005
18676TIP3   OH277518   3.519   0.391   5.212  0.4602 -0.2379 -0.2789
18676TIP3    H177519   3.554   0.310   5.175  0.8719 -0.5401  0.7551
18676TIP3    H277520   3.436   0.364   5.252 -0.2789  0.2005 -1.4456
18677TIP3   OH277521   3.701   1.635  13.301 -0.4053 -0.3560  0.1187
18677TIP3    H177522   3.760   1.572  13.261  0.3455 -1.5106  2.7812
18677TIP3    H277523   3.758   1.706  13.331 -1.0389  0.8556 -1.4210
18678TIP3   OH277524   3.042   4.898   1.446  0.4085  0.7666  0.3127
18678TIP3    H177525   3.109   4.842   1.484 -1.2369  0.0592  2.3422
18678TIP3    H277526   3.000   4.844   1.379 -1.2651 -0.6082  2.3566
18679TIP3   OH277527   4.947   5.061  13.240  0.5598  0.4499 -0.1737
18679TIP3    H177528   4.968   5.149  13.273 -2.1778  2.2699 -2.7978
18679TIP3    H277529   4.892   5.022  13.308  2.2281  0.4333  1.2574
18680TIP3   OH277530   6.650   0.475   4.049  0.4148  0.0250 -0.1473
18680TIP3    H177531   6.711   0.538   4.088  0.5574 -0.8452  1.1224
18680TIP3    H277532   6.701   0.433   3.979  0.4152  1.0723 -0.7989
18681TIP3   OH277533   5.175   0.791  14.677  0.2255  0.2698 -0.0939
18681TIP3    H177534   5.101   0.731  14.686  1.3872 -1.3421 -0.5824
18681TIP3    H277535   5.213   0.796  14.764  2.5124 -3.1022 -0.7024
18682TIP3   OH277536   2.601   4.817  12.635  0.4281 -0.5098 -0.0698
18682TIP3    H177537   2.695   4.828  12.649  0.4933 -1.2596  0.1040
18682TIP3    H277538   2.575   4.751  12.699 -0.3524  0.2079  0.3759
18683TIP3   OH277539   1.572   0.046  11.989 -0.0124  0.0922  0.6616
18683TIP3    H177540   1.541  -0.028  11.937  0.7198  0.4769 -0.3671
18683TIP3    H277541   1.546   0.123  11.938 -0.7567  0.5484  1.7115
18684TIP3   OH277542   6.648   6.348   3.331  0.2193  0.0284 -0.5168
18684TIP3    H177543   6.599   6.396   3.264 -1.3826 -0.2568  0.3754
18684TIP3    H277544   6.668   6.264   3.291 -0.6156 -0.0936 -0.6973
18685TIP3   OH277545   5.790   2.555  16.898 -0.0807 -0.4759  0.1512
18685TIP3    H177546   5.736   2.626  16.931 -0.5464 -0.2590 -1.0412
18685TIP3    H277547   5.870   2.560  16.950 -0.2215  0.7417  0.2823
18686TIP3   OH277548   0.433   0.072  13.845  0.1789  0.2108  0.1782
18686TIP3    H177549   0.435   0.007  13.775 -0.3979  0.1059  0.2542
18686TIP3    H277550   0.424   0.156  13.799  0.4178  0.1953  0.1020
18687TIP3   OH277551   6.389   0.829  16.732 -0.4777 -0.1710 -0.7655
18687TIP3    H177552   6.296   0.825  16.711 -0.4986 -1.9790 -0.5037
18687TIP3    H277553   6.398   0.907  16.787 -1.9490 -0.3355 -0.2475
18688TIP3   OH277554   6.025   1.938  12.705 -0.3063 -0.7713 -0.6081
18688TIP3    H177555   6.084   1.910  12.776 -0.6990 -1.1596 -0.4296
18688TIP3    H277556   6.071   1.911  12.625  0.9451  1.1773 -0.6171
18689TIP3   OH277557   4.776   1.183  14.667 -0.2472 -0.5122 -0.0126
18689TIP3    H177558   4.846   1.123  14.642  0.4305  0.6139 -0.9039
18689TIP3    H277559   4.770   1.245  14.595  0.2537  1.5405  1.6198
18690TIP3   OH277560   3.319   2.559   0.771  0.2430  0.3798 -0.2401
18690TIP3    H177561   3.415   2.558   0.778  0.2775  0.6722 -0.6366
18690TIP3    H277562   3.301   2.624   0.704 -0.1345 -1.3471 -1.8966
18691TIP3   OH277563   0.727   1.244   4.344  0.0737  0.4385 -0.6718
18691TIP3    H177564   0.726   1.337   4.366  1.5454  0.5978 -1.1593
18691TIP3    H277565   0.808   1.211   4.383 -0.6105 -0.7367 -0.1800
18692TIP3   OH277566   0.265   4.263   1.444 -0.1249 -0.1028  0.8059
18692TIP3    H177567   0.346   4.313   1.453 -0.6275  0.8483  0.3165
18692TIP3    H277568   0.201   4.327   1.411 -1.1967 -0.7109  1.6320
18693TIP3   OH277569   2.095   3.542   5.788 -0.5410 -0.9340 -0.3284
18693TIP3    H177570   2.133   3.526   5.702  1.0047  0.1728  0.1233
18693TIP3    H277571   2.011   3.585   5.770  0.4208  0.6054 -1.2724
18694TIP3   OH277572   5.163   2.900   0.160  0.0712  0.0356  0.2588
18694TIP3    H177573   5.219   2.917   0.235 -0.7588 -0.9886  1.1455
18694TIP3    H277574   5.081   2.945   0.179 -0.1761 -0.3002  0.0190
18695TIP3   OH277575   0.297   1.021  11.854 -0.5119 -0.3673 -0.4701
18695TIP3    H177576   0.227   0.983  11.907 -1.2703 -0.0213 -1.1947
18695TIP3    H277577   0.339   0.946  11.812  0.4401 -0.6909  0.9928
18696TIP3   OH277578   1.258   3.668  11.469  0.6883  0.0623  0.0159
18696TIP3    H177579   1.178   3.722  11.470  1.5834  1.4380  0.3854
18696TIP3    H277580   1.247   3.610  11.394 -1.1412 -0.5251  0.6913
18697TIP3   OH277581   0.797   6.085   1.724  0.1335  0.6475 -0.3307
18697TIP3    H177582   0.880   6.089   1.770  0.4355 -0.3912 -0.7646
18697TIP3    H277583   0.765   5.996   1.739 -0.1254  0.5300 -1.4692
18698TIP3   OH277584   0.139   0.191  10.934  0.3049  0.4182  0.3514
18698TIP3    H177585   0.082   0.177  11.010  2.9236 -2.1596  2.0733
18698TIP3    H277586   0.116   0.120  10.874  1.1845 -0.2384  0.7671
18699TIP3   OH277587   0.906   1.595   0.124  0.0939 -0.1569 -0.2589
18699TIP3    H177588   0.922   1.586   0.030 -0.0076 -0.3747 -0.2549
18699TIP3    H277589   0.866   1.513   0.150  0.1582 -0.1135 -0.0154
18700TIP3   OH277590   3.119   6.162   5.033 -0.4662  0.4747  0.4476
18700TIP3    H177591   3.197   6.186   5.084  0.6449 -1.9522  0.0449
18700TIP3    H277592   3.114   6.229   4.965  1.0335  0.9334  0.7427
18701TIP3   OH277593   1.518   3.981   0.030  0.1414 -0.0491  0.2285
18701TIP3    H177594   1.581   4.032   0.082  0.9424 -0.6898 -0.0871
18701TIP3    H277595   1.527   3.892   0.062  1.1427 -0.5917 -1.4087
18702TIP3   OH277596   0.796   1.029   3.911 -0.0274 -0.0420  0.0897
18702TIP3    H177597   0.705   1.016   3.939 -0.4294 -2.1296 -1.9664
18702TIP3    H277598   0.789   1.078   3.829  0.3949 -2.9278 -1.8045
18703TIP3   OH277599   1.335   5.225   1.218 -0.1135  0.4058  0.8886
18703TIP3    H177600   1.242   5.249   1.219 -0.4540 -0.7968  0.2901
18703TIP3    H277601   1.357   5.217   1.125  0.3336 -0.2191  1.0371
18704TIP3   OH277602   2.073   4.318   2.231  1.4104 -0.1361 -0.5379
18704TIP3    H177603   2.149   4.307   2.288  1.4427  0.5717 -0.4421
18704TIP3    H277604   2.081   4.406   2.195  1.5249 -0.6671 -1.8559
18705TIP3   OH277605   3.568   6.668   0.409 -0.0330  0.0256  0.1427
18705TIP3    H177606   3.570   6.752   0.456 -1.6743  0.5268 -0.6280
18705TIP3    H277607   3.529   6.607   0.472 -0.7298  0.3236  0.0113
18706TIP3   OH277608   4.517   5.062  17.110  0.0071  0.0977  0.0320
18706TIP3    H177609   4.446   5.007  17.076 -0.5712  0.9805 -0.2347
18706TIP3    H277610   4.594   5.033  17.063 -0.0978 -1.1227  0.5811
18707TIP3   OH277611   3.564   5.739  11.620 -0.4944 -0.0672  0.0229
18707TIP3    H177612   3.617   5.774  11.692  1.0798 -0.2149 -1.0245
18707TIP3    H277613   3.491   5.695  11.664 -1.2424  2.4170  1.4290
18708TIP3   OH277614   0.026   0.678   3.416  0.0210  0.3462 -0.4710
18708TIP3    H177615  -0.037   0.707   3.482  0.1591  0.1723 -0.2598
18708TIP3    H277616   0.037   0.754   3.359 -0.7384  0.2278 -0.7922
18709TIP3   OH277617   5.336   4.975  15.086 -0.2840  0.6134 -0.4036
18709TIP3    H177618   5.318   4.938  15.172 -1.0994  0.5585 -0.5892
18709TIP3    H277619   5.383   5.057  15.104 -0.2074  0.4653  0.0783
18710TIP3   OH277620   1.358   0.565  14.060 -0.2381  0.3733  0.3382
18710TIP3    H177621   1.407   0.618  14.123 -0.5040  2.3752 -1.0265
18710TIP3    H277622   1.420   0.547  13.990 -0.6972  0.6362 -0.1470
18711TIP3   OH277623   3.423   4.688  16.580 -0.6615 -0.0589  0.0033
18711TIP3    H177624   3.360   4.743  16.532  2.6494  3.5957 -0.6764
18711TIP3    H277625   3.492   4.670  16.517 -0.3697 -2.9781  1.0321
18712TIP3   OH277626   0.449   4.927  14.891 -0.8851 -0.4351 -0.6883
18712TIP3    H177627   0.420   4.853  14.945 -0.0816  0.0251  0.4152
18712TIP3    H277628   0.406   5.003  14.930  1.1642  0.1581  0.5420
18713TIP3   OH277629   2.498   4.155   0.586  0.0079 -0.0486 -0.3385
18713TIP3    H177630   2.581   4.198   0.569  0.4519 -0.4966  0.6379
18713TIP3    H277631   2.520   4.062   0.591 -0.1749 -0.0209  1.9436
18714TIP3   OH277632   1.153   6.823   3.483  0.2949  0.3677 -0.1040
18714TIP3    H177633   1.235   6.780   3.509  0.8193  0.9671 -0.7236
18714TIP3    H277634   1.162   6.912   3.515  0.4094  0.7631 -1.1892
18715TIP3   OH277635   6.099   0.884  16.774 -0.0214  0.1492 -0.3896
18715TIP3    H177636   6.012   0.924  16.780 -0.9512 -1.5579 -1.7669
18715TIP3    H277637   6.111   0.841  16.859 -0.7535 -0.0246 -0.3657
18716TIP3   OH277638   4.059   6.649   4.311 -0.1015 -0.1244 -0.2454
18716TIP3    H177639   4.088   6.740   4.308  1.5627 -0.6204 -0.2388
18716TIP3    H277640   4.047   6.631   4.404 -0.8854  0.2145 -0.2767
18717TIP3   OH277641   1.792   2.562   2.058 -0.3081  0.9853  0.1151
18717TIP3    H177642   1.745   2.516   2.128  0.9843  2.7918  2.3205
18717TIP3    H277643   1.748   2.646   2.051 -1.0145  0.4901 -2.0079
18718TIP3   OH277644   5.202   6.599   5.872 -0.2593  0.5576  0.0695
18718TIP3    H177645   5.162   6.568   5.953 -1.5386 -0.3287 -0.8669
18718TIP3    H277646   5.241   6.521   5.833 -1.0039  0.6612 -0.9129
18719TIP3   OH277647   2.004   1.000   2.740 -0.1259  0.1160 -0.6512
18719TIP3    H177648   1.928   1.007   2.797 -0.3084  0.0054 -0.8798
18719TIP3    H277649   1.969   0.966   2.658  0.3079 -0.8386 -0.4601
18720TIP3   OH277650   1.119   6.474   0.040 -0.7800 -0.0039  0.2931
18720TIP3    H177651   1.212   6.455   0.024 -0.5648  1.0031  0.2374
18720TIP3    H277652   1.073   6.393   0.020  0.1829 -0.7882  1.1726
18721TIP3   OH277653   4.349   4.262  16.055 -0.1772 -0.0897 -0.0273
18721TIP3    H177654   4.284   4.326  16.028  1.3221  0.2442 -3.3275
18721TIP3    H277655   4.321   4.234  16.142 -2.7719  2.4910  0.0977
18722TIP3   OH277656   5.223   2.403   5.001 -0.1813  0.7626  0.3137
18722TIP3    H177657   5.314   2.377   4.992 -0.0001  1.7681 -1.2557
18722TIP3    H277658   5.174   2.321   4.999  0.6593  0.2508  0.6145
18723TIP3   OH277659   0.409   4.352   4.400  0.6034  0.4749  0.1897
18723TIP3    H177660   0.355   4.398   4.336 -0.1547  1.0049  1.1660
18723TIP3    H277661   0.498   4.361   4.368  0.2545  0.8282 -0.7210
18724TIP3   OH277662   1.791   2.310  15.712 -0.4876  0.4924 -0.3761
18724TIP3    H177663   1.738   2.381  15.675  1.2090  3.9639  3.1650
18724TIP3    H277664   1.875   2.315  15.666 -1.4791 -2.0281 -2.7962
18725TIP3   OH277665   3.209   0.675   1.920  1.0807 -0.0130 -0.2447
18725TIP3    H177666   3.208   0.660   1.825  0.6412  1.4935 -0.5083
18725TIP3    H277667   3.287   0.629   1.951  2.5706  1.3996 -1.6864
18726TIP3   OH277668   2.115   0.402  13.379  0.2885 -0.0050 -0.1462
18726TIP3    H177669   2.052   0.348  13.332  0.8623 -0.0598 -0.8503
18726TIP3    H277670   2.086   0.492  13.363  0.4434 -0.0260 -0.5544
18727TIP3   OH277671   5.942   6.166  16.784 -0.3316  0.0566 -0.0504
18727TIP3    H177672   6.018   6.219  16.806  1.1686 -1.2032 -1.8383
18727TIP3    H277673   5.889   6.221  16.726  1.4914 -0.4823 -2.3568
18728TIP3   OH277674   5.386   2.793   3.825  0.1512 -0.0683 -0.2293
18728TIP3    H177675   5.319   2.844   3.778 -0.8431  0.0512  1.2239
18728TIP3    H277676   5.351   2.704   3.827 -1.1656  0.3908  2.4360
18729TIP3   OH277677   2.010   0.669   3.112  0.5460 -0.4377 -0.0673
18729TIP3    H177678   2.034   0.757   3.085  2.2116 -0.8180  0.0531
18729TIP3    H277679   1.955   0.681   3.190  0.4056  0.4931 -0.3035
18730TIP3   OH277680   4.003   0.474   4.599 -0.0141  0.0145 -0.2086
18730TIP3    H177681   4.029   0.436   4.683  0.8902 -1.7950 -1.2666
18730TIP3    H277682   3.965   0.559   4.623 -0.8342 -0.9119  2.1273
18731TIP3   OH277683   1.718   0.763   6.004 -0.1378 -0.4479 -0.4507
18731TIP3    H177684   1.625   0.778   6.020  0.1830  2.2185 -0.6542
18731TIP3    H277685   1.737   0.812   5.924  1.3847 -1.2226 -0.6058
18732TIP3   OH277686   3.669   1.684   0.112  0.4262 -0.2565  0.0888
18732TIP3    H177687   3.586   1.637   0.103 -0.0223  0.3463  0.8898
18732TIP3    H277688   3.680   1.732   0.030  0.0228 -0.4009 -0.0489
18733TIP3   OH277689   3.729   4.881  15.074 -0.4008  0.0239  0.3316
18733TIP3    H177690   3.796   4.933  15.029 -0.0961 -0.4700  0.1997
18733TIP3    H277691   3.754   4.883  15.166  0.6609 -1.3695  0.1109
18734TIP3   OH277692   6.346   5.867   0.057 -0.5328 -0.0743 -0.2052
18734TIP3    H177693   6.356   5.961   0.074 -1.9645  0.4399 -1.8733
18734TIP3    H277694   6.424   5.844   0.006  1.0707 -0.4155  2.2662
18735TIP3   OH277695   4.459   2.724   5.127  0.2057  0.1731 -0.1462
18735TIP3    H177696   4.515   2.653   5.159 -0.1285  0.7265  1.7776
18735TIP3    H277697   4.514   2.802   5.128  0.6132 -0.0113 -2.3977
18736TIP3   OH277698   0.292   0.475   3.762 -0.3002  0.4056  0.3293
18736TIP3    H177699   0.385   0.450   3.765  0.2304  2.2067  0.1581
18736TIP3    H277700   0.267   0.464   3.671  0.2906  1.6335 -0.0044
18737TIP3   OH277701   6.075   4.972   0.496 -0.6158 -0.1673  0.0677
18737TIP3    H177702   6.096   5.025   0.419  0.9672 -0.3513  0.3291
18737TIP3    H277703   5.980   4.979   0.506 -0.7077  0.7265 -1.2607
18738TIP3   OH277704   4.972   5.625   6.010  0.4767 -0.5305  0.2813
18738TIP3    H177705   4.962   5.696   5.948  0.7108 -0.4173  0.3727
18738TIP3    H277706   5.050   5.647   6.061 -0.3172 -0.0703  1.3428
18739TIP3   OH277707   4.255   2.649  11.022 -0.0192 -0.1913 -0.5298
18739TIP3    H177708   4.219   2.656  11.111  0.2663  1.3800 -0.4998
18739TIP3    H277709   4.181   2.667  10.965  0.0645  0.0740 -0.5581
18740TIP3   OH277710   2.370   2.004  14.147  0.3312 -0.8825 -0.2074
18740TIP3    H177711   2.318   2.040  14.075  1.1758 -0.6579 -0.7251
18740TIP3    H277712   2.420   1.933  14.107  0.5410 -0.9934  0.2483
18741TIP3   OH277713   6.324   5.833   2.601  0.0760 -0.4099 -0.2326
18741TIP3    H177714   6.257   5.774   2.565 -0.9322  0.5488  0.0303
18741TIP3    H277715   6.325   5.813   2.695  0.0335 -0.3017 -0.2093
18742TIP3   OH277716   0.496   3.650  13.754  0.3616  0.4997  0.0226
18742TIP3    H177717   0.440   3.575  13.774  0.9239  0.1723  0.4407
18742TIP3    H277718   0.501   3.699  13.836  0.3893  0.7250 -0.1129
18743TIP3   OH277719   3.750   1.667  15.961 -0.0256 -0.1008 -0.0829
18743TIP3    H177720   3.821   1.663  16.025  0.7867 -0.8146 -0.9826
18743TIP3    H277721   3.698   1.743  15.988  0.6578  0.0062  1.0305
18744TIP3   OH277722   6.031   2.099   4.651 -0.2081  0.3917  0.2125
18744TIP3    H177723   6.105   2.039   4.642 -0.2632  0.3974 -0.3592
18744TIP3    H277724   6.048   2.147   4.732 -0.1310 -0.3514  0.6420
18745TIP3   OH277725   6.223   4.830  11.961  1.0629  0.3969  0.0367
18745TIP3    H177726   6.246   4.913  12.003  0.2184 -0.0747  1.4931
18745TIP3    H277727   6.262   4.836  11.874  1.3407  2.1562  0.2472
18746TIP3   OH277728   1.370   6.479  12.944 -0.0008  0.2713 -0.4952
18746TIP3    H177729   1.388   6.529  13.023 -2.0087  0.2218  0.0435
18746TIP3    H277730   1.445   6.497  12.887  2.3570 -0.9807  1.9624
18747TIP3   OH277731   1.081   5.071  16.177 -0.3474 -0.0747 -0.5691
18747TIP3    H177732   0.989   5.067  16.204  0.1477  1.3317  1.6684
18747TIP3    H277733   1.094   5.161  16.150  0.8529  0.4268  1.4236
18748TIP3   OH277734   0.046   3.279   4.155  0.5296 -0.0687 -0.3277
18748TIP3    H177735   0.134   3.300   4.122  0.2197 -1.2091 -1.9927
18748TIP3    H277736   0.060   3.203   4.212  0.6667 -0.1085 -0.4117
18749TIP3   OH277737   1.497   4.771   0.231 -0.0084 -0.7784 -0.7278
18749TIP3    H177738   1.489   4.835   0.161  1.2225  0.4603  0.2212
18749TIP3    H277739   1.584   4.785   0.268 -1.0493 -0.4919  1.8745
18750TIP3   OH277740   3.819   2.515  15.776  0.2033  0.5445 -0.2787
18750TIP3    H177741   3.825   2.420  15.782  0.4357  0.6558  2.4341
18750TIP3    H277742   3.751   2.531  15.710 -0.6251 -1.5401  0.0045
18751TIP3   OH277743   2.191   4.651   2.431 -0.5952  0.3007  0.4773
18751TIP3    H177744   2.273   4.607   2.413 -0.9996 -0.5606  0.6954
18751TIP3    H277745   2.172   4.700   2.351 -1.5627 -2.1975 -0.9372
18752TIP3   OH277746   3.703   2.429   6.100 -0.6021  0.0480  0.1561
18752TIP3    H177747   3.761   2.492   6.142 -0.1987 -0.7743  0.8588
18752TIP3    H277748   3.717   2.441   6.006  0.9662 -0.3693  0.3155
18753TIP3   OH277749   3.797   5.036   4.252  0.1989  0.1716 -0.3017
18753TIP3    H177750   3.821   5.003   4.166 -0.4707 -1.2430  0.0250
18753TIP3    H277751   3.744   4.967   4.291  0.8534  0.5765  1.4268
18754TIP3   OH277752   0.648   4.724  17.052  0.0330  0.1608 -0.4192
18754TIP3    H177753   0.577   4.736  16.989 -0.2581  0.3093 -0.0660
18754TIP3    H277754   0.646   4.802  17.106  1.0919  0.6135 -1.0050
18755TIP3   OH277755   4.104   2.141  13.359 -0.0260 -0.4803 -0.1563
18755TIP3    H177756   4.068   2.123  13.446  1.5163 -0.3363  0.5462
18755TIP3    H277757   4.028   2.141  13.301 -1.1954  0.2325  1.3140
18756TIP3   OH277758   4.611   5.236  13.220 -0.0651 -0.4739 -0.3680
18756TIP3    H177759   4.680   5.301  13.210  0.6481 -1.4608 -2.4018
18756TIP3    H277760   4.530   5.282  13.196  0.4283 -0.2868 -1.7426
18757TIP3   OH277761   6.556   0.252   1.131  0.2081  0.2074  0.3046
18757TIP3    H177762   6.622   0.317   1.157  0.0536  0.6253 -0.3329
18757TIP3    H277763   6.549   0.194   1.207  2.5888 -0.9037 -0.2564
18758TIP3   OH277764   2.300   1.063  14.018 -0.3564  0.5931  0.0277
18758TIP3    H177765   2.352   1.141  13.998 -1.5194  0.9528 -1.8064
18758TIP3    H277766   2.341   0.993  13.969 -0.4625  0.4510  0.1411
18759TIP3   OH277767   3.451   3.327  11.637  0.3108  0.2301  0.4139
18759TIP3    H177768   3.394   3.332  11.560 -1.7101 -2.1767  1.5763
18759TIP3    H277769   3.448   3.414  11.676  0.0307  1.0227 -1.3125
18760TIP3   OH277770   6.386   2.549   4.776 -0.1402  0.2493  0.6847
18760TIP3    H177771   6.450   2.478   4.769 -0.3300  0.1935 -0.8561
18760TIP3    H277772   6.404   2.589   4.861  1.2778 -0.3933  0.7245
18761TIP3   OH277773   6.112   5.379   5.415  0.2818 -0.0744  0.1015
18761TIP3    H177774   6.145   5.294   5.386  1.1881  0.1777  0.3617
18761TIP3    H277775   6.116   5.375   5.511 -0.1458  0.0795  0.1280
18762TIP3   OH277776   2.128   4.095   2.470 -0.5568  0.4687  0.0995
18762TIP3    H177777   2.086   4.089   2.555 -0.3776  0.1686  0.1677
18762TIP3    H277778   2.125   4.006   2.435 -3.2239  1.0569 -1.4746
18763TIP3   OH277779   3.336   0.100  13.916 -0.2038 -0.6363 -0.5850
18763TIP3    H177780   3.398   0.046  13.868 -0.7908 -2.4399  0.5708
18763TIP3    H277781   3.257   0.100  13.862  0.0578 -0.2782 -0.9651
18764TIP3   OH277782   5.679   3.387   1.846 -0.2219 -0.0067 -0.2488
18764TIP3    H177783   5.619   3.382   1.772 -1.8493  1.0343  0.9426
18764TIP3    H277784   5.636   3.337   1.916  1.7752 -1.8811 -0.2478
18765TIP3   OH277785   1.634   2.841   2.994 -0.4440  0.6618  0.1915
18765TIP3    H177786   1.696   2.865   2.925 -0.3372 -0.0371  0.0433
18765TIP3    H277787   1.660   2.753   3.021 -3.1746 -0.9725 -1.9973
18766TIP3   OH277788   6.273   3.913  16.740 -0.3601  0.1488  0.3382
18766TIP3    H177789   6.267   3.831  16.691  2.1545  0.6766 -1.0065
18766TIP3    H277790   6.316   3.890  16.822 -3.1824 -0.4555  1.7987
18767TIP3   OH277791   0.081   6.019   4.617  0.1870 -0.7359 -0.3760
18767TIP3    H177792   0.160   6.054   4.659 -0.0269  1.2250 -1.4897
18767TIP3    H277793   0.012   6.082   4.639 -0.4039 -0.8359 -1.8113
18768TIP3   OH277794   0.273   3.854   4.232 -0.5544 -0.7740 -0.4816
18768TIP3    H177795   0.320   3.828   4.311 -1.1028 -0.0144  0.1049
18768TIP3    H277796   0.181   3.834   4.251 -0.6624 -0.8098 -1.0239
18769TIP3   OH277797   2.709   6.156  13.240 -0.3323  0.0117 -0.2534
18769TIP3    H177798   2.743   6.136  13.152 -1.5039  0.3406 -0.7977
18769TIP3    H277799   2.665   6.075  13.267  2.6339 -1.2138  1.3894
18770TIP3   OH277800   3.453   1.620   5.712  0.7017 -0.5954 -0.1109
18770TIP3    H177801   3.415   1.555   5.771 -0.6782 -0.7771 -1.1440
18770TIP3    H277802   3.413   1.703   5.740 -0.2604 -0.7413 -1.0096
18771TIP3   OH277803   4.981   2.197  14.645  0.0957 -0.3643 -0.0941
18771TIP3    H177804   5.064   2.227  14.609 -0.2027 -0.2832 -0.7260
18771TIP3    H277805   4.997   2.190  14.739  0.6278  0.2668 -0.1316
18772TIP3   OH277806   5.841   4.782   2.042 -0.1994 -0.1462  0.2699
18772TIP3    H177807   5.931   4.790   2.071 -0.1400  0.3857 -0.0578
18772TIP3    H277808   5.829   4.853   1.978 -0.6628 -0.5878 -0.1469
18773TIP3   OH277809   0.854   6.337   4.125 -0.3876 -0.0334  0.0460
18773TIP3    H177810   0.852   6.350   4.030  0.2002  1.4960  0.2155
18773TIP3    H277811   0.933   6.284   4.140 -0.6598 -0.5562 -0.3387
18774TIP3   OH277812   5.655   5.288   4.020 -0.1670 -0.3114 -0.0340
18774TIP3    H177813   5.593   5.354   3.990  1.1950  1.4586  0.8466
18774TIP3    H277814   5.653   5.294   4.115  1.1251 -0.3947  0.0260
18775TIP3   OH277815   2.058   0.965  12.888  0.3435  0.5747 -0.2601
18775TIP3    H177816   2.097   1.047  12.860 -0.3343  0.8217 -0.4995
18775TIP3    H277817   2.132   0.903  12.892  1.0398  1.4508  0.9913
18776TIP3   OH277818   1.000   0.048  12.391  0.2403 -0.4098 -0.4080
18776TIP3    H177819   1.066   0.031  12.324  1.4053 -1.0268  0.8372
18776TIP3    H277820   1.047   0.039  12.474 -1.4411 -1.0018  0.5451
18777TIP3   OH277821   4.518   4.425   3.323 -0.8926 -0.2838  0.4203
18777TIP3    H177822   4.502   4.445   3.231  3.4461  0.0351 -0.4650
18777TIP3    H277823   4.512   4.509   3.367 -1.4704 -0.1806  0.1491
18778TIP3   OH277824   6.283   4.566  15.130 -0.1776 -0.0902 -0.4377
18778TIP3    H177825   6.332   4.642  15.160  0.0137 -0.7060  0.8559
18778TIP3    H277826   6.249   4.526  15.210 -1.2499 -0.7109 -1.1842
18779TIP3   OH277827   1.592   5.447  15.875 -0.1560  0.6756 -0.3685
18779TIP3    H177828   1.578   5.534  15.912  0.1587  1.4874 -2.0293
18779TIP3    H277829   1.530   5.391  15.921 -1.6884  2.1579 -0.5114
18780TIP3   OH277830   1.511   5.492   0.624  0.0872  0.8069 -0.5972
18780TIP3    H177831   1.474   5.556   0.564 -0.7575  2.0755  1.1940
18780TIP3    H277832   1.472   5.409   0.597 -0.4739  1.3944 -1.6437
18781TIP3   OH277833   5.278   4.573  11.324  0.4266  0.3608  0.6274
18781TIP3    H177834   5.273   4.605  11.414  1.6772 -0.7419  1.1331
18781TIP3    H277835   5.275   4.652  11.270  1.3747  1.1902  1.7266
18782TIP3   OH277836   6.651   1.057   5.458  0.0884  0.3542 -0.3330
18782TIP3    H177837   6.693   0.978   5.425  0.0376 -0.6427  1.8190
18782TIP3    H277838   6.568   1.061   5.410  0.0614 -0.9519 -0.4420
18783TIP3   OH277839   1.418   4.365  16.974  0.1104  0.8421  0.2143
18783TIP3    H177840   1.377   4.443  16.936  0.1409  0.8367  0.1711
18783TIP3    H277841   1.469   4.399  17.048 -1.1904  0.6775  1.2243
18784TIP3   OH277842   5.499   0.238   5.552  0.6747 -0.0684 -0.0352
18784TIP3    H177843   5.485   0.317   5.604 -1.5902 -1.1777  1.1668
18784TIP3    H277844   5.438   0.246   5.479  1.4810 -0.0637 -0.7243
18785TIP3   OH277845   0.671   2.962   4.667 -0.0713 -0.3785  0.4148
18785TIP3    H177846   0.665   3.046   4.713  0.4232 -0.2000  0.1554
18785TIP3    H277847   0.762   2.937   4.676  0.4908  0.5582 -2.0396
18786TIP3   OH277848   3.191   4.258  15.094  0.1762 -0.2629  0.4105
18786TIP3    H177849   3.257   4.196  15.124  1.2618  0.4699 -0.3788
18786TIP3    H277850   3.213   4.273  15.002  0.9634  2.5378  0.9843
18787TIP3   OH277851   5.035   4.411   6.500  0.5153  0.0266 -0.7083
18787TIP3    H177852   5.119   4.437   6.537  1.2044 -1.3838 -1.2132
18787TIP3    H277853   5.002   4.491   6.457  0.8119  1.0286  0.8312
18788TIP3   OH277854   6.225   6.591  12.737 -0.5043 -0.7368 -0.7719
18788TIP3    H177855   6.268   6.506  12.749  1.6893  0.4031 -0.1205
18788TIP3    H277856   6.168   6.600  12.813  1.5245 -0.3961  0.8205
18789TIP3   OH277857   6.759   0.560  16.523  0.0500  0.1828 -0.9290
18789TIP3    H177858   6.812   0.628  16.481  1.4589  0.6561  1.4448
18789TIP3    H277859   6.732   0.599  16.607  1.0030 -2.1655  0.5621
18790TIP3   OH277860   2.457   0.254  11.715  0.1275  0.0788 -0.2827
18790TIP3    H177861   2.434   0.161  11.714 -0.1461  0.1402  0.0785
18790TIP3    H277862   2.464   0.278  11.622  1.0315 -0.5011 -0.3703
18791TIP3   OH277863   5.663   0.498   1.676 -0.3216 -0.5094 -0.5237
18791TIP3    H177864   5.727   0.430   1.657 -0.2244  0.0767 -2.4853
18791TIP3    H277865   5.583   0.451   1.699 -0.5209 -1.3509 -2.7363
18792TIP3   OH277866   2.070   1.168   5.173 -0.4831  0.4102 -0.0891
18792TIP3    H177867   2.141   1.105   5.180 -0.7907  0.0319 -0.3706
18792TIP3    H277868   2.103   1.235   5.112  0.8429  1.8880  2.0871
18793TIP3   OH277869   4.983   6.043  12.139 -0.5000  0.1711 -0.2056
18793TIP3    H177870   4.932   6.044  12.220 -1.4033  0.7301 -0.7624
18793TIP3    H277871   5.074   6.036  12.168 -0.8761 -0.6999  0.8095
18794TIP3   OH277872   4.937   1.373  15.176 -0.7157  0.7973  0.6277
18794TIP3    H177873   4.861   1.338  15.223 -0.7922 -0.5389 -0.4223
18794TIP3    H277874   5.009   1.367  15.238 -0.1913 -3.4555 -0.1039
18795TIP3   OH277875   6.733   4.609  15.923  0.3084 -0.5275 -0.1338
18795TIP3    H177876   6.759   4.610  15.831 -1.0519  4.3697 -0.7775
18795TIP3    H277877   6.805   4.652  15.968  0.0850 -1.0559  0.7320
18796TIP3   OH277878   6.325   1.076   3.022  0.1636  0.1876  0.1357
18796TIP3    H177879   6.404   1.024   3.006  0.0880  0.0630  0.1730
18796TIP3    H277880   6.254   1.013   3.024 -0.0706  0.4080 -0.9133
18797TIP3   OH277881   0.607   2.775   4.439  0.6427 -1.0530 -0.0264
18797TIP3    H177882   0.653   2.826   4.372 -2.2166  0.9232 -0.6952
18797TIP3    H277883   0.612   2.829   4.518 -0.4735 -0.7581 -0.1318
18798TIP3   OH277884   1.503   2.112   3.696  0.0034  0.0353 -0.2638
18798TIP3    H177885   1.514   2.170   3.621 -1.1272  0.6008 -0.0077
18798TIP3    H277886   1.592   2.085   3.719  0.4043  0.3224 -1.4384
18799TIP3   OH277887   3.732   5.571  13.090 -0.3174  0.0491  0.7695
18799TIP3    H177888   3.661   5.519  13.052  1.0868 -1.0550 -0.4637
18799TIP3    H277889   3.750   5.529  13.174 -0.3847 -0.3604  0.5838
18800TIP3   OH277890   1.129   3.265   4.759 -0.5086  1.0335 -0.2130
18800TIP3    H177891   1.123   3.180   4.802  1.9190  1.1422  0.4882
18800TIP3    H277892   1.136   3.328   4.830  1.7232  1.3802 -0.6486
18801TIP3   OH277893   6.597   2.269   4.677  0.1566 -0.3659  0.2950
18801TIP3    H177894   6.610   2.235   4.588 -1.2348 -0.6102  0.1667
18801TIP3    H277895   6.638   2.203   4.734  2.3555  0.4819 -0.1750
18802TIP3   OH277896   0.385   1.424  16.802  0.3064  0.9892  0.1362
18802TIP3    H177897   0.401   1.331  16.818  2.2094  1.2836  0.1966
18802TIP3    H277898   0.423   1.440  16.716  1.0089  1.9347  0.6069
18803TIP3   OH277899   4.289   4.016   6.609  0.2470 -0.4666 -0.5120
18803TIP3    H177900   4.208   4.051   6.572 -1.4726 -2.5849  0.9640
18803TIP3    H277901   4.331   4.091   6.651 -2.6722  0.1743  1.5600
18804TIP3   OH277902   2.705   2.788   1.475 -0.1907 -1.0061  0.3099
18804TIP3    H177903   2.786   2.788   1.526  1.2532  0.7732 -1.7665
18804TIP3    H277904   2.665   2.873   1.493 -2.3898 -2.3381  2.2968
18805TIP3   OH277905   3.088   1.070  12.618 -0.7408 -0.1913  0.3265
18805TIP3    H177906   3.123   1.158  12.624  1.3642 -0.9190 -0.2720
18805TIP3    H277907   3.110   1.041  12.530  1.0272 -2.1964  1.3282
18806TIP3   OH277908   6.168   2.032   6.230 -0.4648 -0.6445  0.8150
18806TIP3    H177909   6.175   1.954   6.284  0.2118  0.1725  1.9675
18806TIP3    H277910   6.211   2.101   6.281  1.4549 -0.1120 -1.3420
18807TIP3   OH277911   2.461   5.709  14.910  0.7467 -0.3071  0.3014
18807TIP3    H177912   2.385   5.766  14.897  0.1217 -1.2254 -0.1334
18807TIP3    H277913   2.480   5.675  14.823  1.0658 -0.8353  0.5747
18808TIP3   OH277914   1.847   6.230  15.214 -0.0387  0.0333  0.2263
18808TIP3    H177915   1.921   6.216  15.155  1.5109 -0.6672  2.2152
18808TIP3    H277916   1.881   6.208  15.301 -2.5952 -0.3073  1.2380
18809TIP3   OH277917   0.234   0.464  15.362  0.0228  0.1419 -0.2408
18809TIP3    H177918   0.242   0.445  15.268  0.2990 -0.5462 -0.0836
18809TIP3    H277919   0.324   0.471  15.393 -0.0098 -1.6664  0.3607
18810TIP3   OH277920   4.203   2.325   2.459 -0.4494 -0.2927  0.9937
18810TIP3    H177921   4.274   2.260   2.457 -0.8116 -0.7267  1.8085
18810TIP3    H277922   4.126   2.276   2.488 -1.3647 -0.0690 -0.9129
18811TIP3   OH277923   6.648   0.367  16.371 -0.0032  0.1742  0.3115
18811TIP3    H177924   6.696   0.423  16.432  0.7368  1.2027 -1.1406
18811TIP3    H277925   6.556   0.380  16.395  0.2689  0.4628  1.2652
18812TIP3   OH277926   1.677   5.228   0.208  0.0645  0.5573  0.3734
18812TIP3    H177927   1.766   5.212   0.176 -0.1631 -0.3998  0.1967
18812TIP3    H277928   1.622   5.170   0.156 -0.3714 -0.6787  2.1294
18813TIP3   OH277929   6.597   3.425  10.699 -0.0322  0.1458 -0.5972
18813TIP3    H177930   6.581   3.407  10.606  0.3134 -2.5986 -0.2317
18813TIP3    H277931   6.555   3.351  10.744  1.2081  0.5469  1.3004
18814TIP3   OH277932   0.776   0.432   2.991 -0.1858  0.8423  0.1577
18814TIP3    H177933   0.854   0.451   3.043  0.3624 -1.4734  0.2761
18814TIP3    H277934   0.809   0.391   2.911 -1.2516 -0.6384  0.4275
18815TIP3   OH277935   4.820   6.185   5.555  0.5922 -0.8340 -0.4338
18815TIP3    H177936   4.874   6.209   5.630  0.4116 -0.2877 -0.4773
18815TIP3    H277937   4.823   6.262   5.498 -1.5866 -0.1537  0.3122
18816TIP3   OH277938   0.171   3.951  12.854  0.5208 -0.8374  0.1214
18816TIP3    H177939   0.125   3.988  12.778 -0.7421  0.6467  1.5056
18816TIP3    H277940   0.101   3.919  12.910  1.5216 -3.8321 -0.1881
18817TIP3   OH277941   6.642   6.224  12.679 -0.3750  0.6233  0.1543
18817TIP3    H177942   6.735   6.206  12.693 -0.2752 -0.4056 -1.5215
18817TIP3    H277943   6.601   6.137  12.677 -0.8150  0.8160 -2.3331
18818TIP3   OH277944   2.668   6.708  15.531 -0.0231 -0.1880 -0.3172
18818TIP3    H177945   2.736   6.732  15.468 -0.6285  0.5786 -0.7031
18818TIP3    H277946   2.615   6.642  15.486  0.0112 -0.2179 -0.3137
18819TIP3   OH277947   2.584   5.141   5.682  0.1710  0.4849  0.6673
18819TIP3    H177948   2.533   5.189   5.747  1.0938 -0.4579  2.1642
18819TIP3    H277949   2.605   5.058   5.726  0.3736 -0.4202 -1.0559
18820TIP3   OH277950   5.838   6.750  17.033  0.4316 -0.4832 -0.1700
18820TIP3    H177951   5.780   6.734  16.958  0.3101  2.1920 -0.7696
18820TIP3    H277952   5.795   6.707  17.107 -0.6561 -1.2469 -1.2072
18821TIP3   OH277953   5.128   6.781   4.978 -0.2698 -0.2101  0.5914
18821TIP3    H177954   5.179   6.854   4.942  0.2353 -0.9090 -0.1689
18821TIP3    H277955   5.194   6.725   5.020 -0.2265 -1.6366 -1.2705
18822TIP3   OH277956   1.000   4.643  15.672  0.1808 -0.6135 -0.4778
18822TIP3    H177957   1.054   4.565  15.670  1.1069  0.0119 -0.6605
18822TIP3    H277958   1.057   4.713  15.638 -0.7848  0.0367 -0.8093
18823TIP3   OH277959   3.045   3.229   5.592 -0.0408  0.1351  0.2016
18823TIP3    H177960   3.044   3.217   5.687 -1.2262  0.3211  0.2352
18823TIP3    H277961   3.051   3.140   5.557 -0.4473 -0.0017  0.4622
18824TIP3   OH277962   2.522   4.873  13.647  0.4703 -0.0504 -0.2119
18824TIP3    H177963   2.566   4.957  13.633  0.4447  0.2631  1.3914
18824TIP3    H277964   2.568   4.834  13.722  2.1265 -2.6522 -2.3917
18825TIP3   OH277965   5.952   0.859  13.982 -0.0829  0.4410  0.4102
18825TIP3    H177966   5.913   0.921  13.920 -0.5116 -1.4385 -1.2978
18825TIP3    H277967   6.001   0.798  13.927  1.1782 -0.1516  2.1228
18826TIP3   OH277968   5.932   0.993  15.865  0.2630  0.4503  0.4735
18826TIP3    H177969   5.900   1.066  15.812 -0.5658  0.0482  0.4031
18826TIP3    H277970   5.986   1.034  15.932 -0.8114  1.2134  0.9010
18827TIP3   OH277971   1.646   4.080  13.121  0.0683  0.1256  0.1206
18827TIP3    H177972   1.686   4.046  13.041  0.1933  0.1200  0.1842
18827TIP3    H277973   1.556   4.047  13.120 -0.1213  0.6492 -0.3377
18828TIP3   OH277974   3.809   1.926   4.692 -0.2995 -0.4081 -0.1297
18828TIP3    H177975   3.770   1.869   4.627 -1.2450 -0.4745  0.4763
18828TIP3    H277976   3.738   1.944   4.754 -0.2626  1.9990 -0.6722
18829TIP3   OH277977   5.001   6.596   5.275  0.1684 -0.1020 -0.2564
18829TIP3    H177978   4.962   6.581   5.189  1.1212 -1.1352 -0.5334
18829TIP3    H277979   5.086   6.553   5.270  0.6560  0.6839  0.8779
18830TIP3   OH277980   3.093   1.970  13.161  0.9851  0.0903  0.1700
18830TIP3    H177981   3.046   2.053  13.170  1.5343  0.2425  2.3199
18830TIP3    H277982   3.186   1.994  13.167  1.1279 -0.7898  3.0691
18831TIP3   OH277983   4.790   0.390   2.883  0.2912  0.4366  0.1284
18831TIP3    H177984   4.863   0.384   2.822  0.3794  1.8313  0.0722
18831TIP3    H277985   4.769   0.299   2.904  1.3561 -0.0109 -0.6614
18832TIP3   OH277986   5.772   3.678   1.793 -0.8527 -0.2293  0.1015
18832TIP3    H177987   5.727   3.593   1.800 -0.8197 -0.2533  0.0190
18832TIP3    H277988   5.812   3.691   1.879 -0.1664 -0.6843 -0.1427
18833TIP3   OH277989   3.297   0.450   5.701 -0.1002  0.3800 -0.1228
18833TIP3    H177990   3.252   0.366   5.690 -1.8405  0.9375  1.9023
18833TIP3    H277991   3.366   0.449   5.635  1.3207 -3.5321  1.1064
18834TIP3   OH277992   2.093   1.328  11.247  0.1180  0.6840 -0.2805
18834TIP3    H177993   2.077   1.290  11.333  1.1469 -0.3136 -0.5077
18834TIP3    H277994   2.187   1.317  11.233  0.2313  2.2833 -0.8669
18835TIP3   OH277995   2.310   3.929  12.098  0.1888  0.1645 -0.1221
18835TIP3    H177996   2.393   3.918  12.144  0.9033  2.4039 -0.7208
18835TIP3    H277997   2.243   3.925  12.166  0.8929 -0.4052  0.5438
18836TIP3   OH277998   4.920   4.022   4.048 -0.2723  0.0529  0.3206
18836TIP3    H177999   4.880   4.099   4.087 -2.4888 -0.9957  0.2211
18836TIP3    H278000   4.848   3.973   4.009  1.2343 -1.4207 -0.8052
18837TIP3   OH278001   1.415   5.352  13.220  0.2887 -0.3635 -0.3072
18837TIP3    H178002   1.423   5.305  13.304 -0.4707 -1.5339 -0.8666
18837TIP3    H278003   1.362   5.294  13.165  2.2577 -0.4730 -2.2243
18838TIP3   OH278004   5.540   1.335   3.728 -0.1571  0.0005  0.0169
18838TIP3    H178005   5.564   1.414   3.777 -3.3400  0.8321  0.4500
18838TIP3    H278006   5.519   1.366   3.640 -0.5507 -0.5262 -0.0782
18839TIP3   OH278007   3.971   5.060  12.644 -0.0269  0.6055 -0.0914
18839TIP3    H178008   3.971   5.155  12.658 -1.2512  0.4956  0.7914
18839TIP3    H278009   3.952   5.049  12.551 -0.1959  1.2229 -0.1331
18840TIP3   OH278010   1.709   1.096   0.102  0.3017  0.4082  0.2135
18840TIP3    H178011   1.729   1.162   0.035 -0.8759 -0.6945 -1.2970
18840TIP3    H278012   1.713   1.143   0.185  2.5549  1.6761 -0.5299
18841TIP3   OH278013   0.339   5.644   1.121 -0.5228 -0.3261 -0.1139
18841TIP3    H178014   0.377   5.728   1.146 -0.0635 -0.4099 -0.5309
18841TIP3    H278015   0.394   5.578   1.164 -0.2130 -0.4462 -0.6831
18842TIP3   OH278016   5.831   3.413   2.188 -0.0170  0.1608 -0.3653
18842TIP3    H178017   5.774   3.363   2.130 -1.0056 -1.2110  1.6692
18842TIP3    H278018   5.810   3.381   2.276  1.7325  1.8106  0.7349
18843TIP3   OH278019   2.209   2.339   3.480  0.4847  0.4394 -0.3034
18843TIP3    H178020   2.160   2.407   3.525  0.2962  0.6509 -0.8194
18843TIP3    H278021   2.300   2.355   3.503  0.3519  0.2638  0.3688
18844TIP3   OH278022   2.626   3.543  13.628  0.1052 -0.4634 -0.1380
18844TIP3    H178023   2.548   3.593  13.651  1.2161  1.4067 -0.2216
18844TIP3    H278024   2.593   3.458  13.602 -1.8139 -0.0931  0.8792
18845TIP3   OH278025   3.338   6.786   5.792 -0.3018 -0.2680 -0.3224
18845TIP3    H178026   3.249   6.751   5.787 -0.4877  0.2626 -0.9194
18845TIP3    H278027   3.390   6.714   5.828 -0.8567 -0.8013 -0.5563
18846TIP3   OH278028   4.461   5.174   2.041 -0.1886  0.1767  0.0742
18846TIP3    H178029   4.417   5.090   2.046 -0.8025  0.5226  0.8069
18846TIP3    H278030   4.480   5.187   1.949 -0.4343 -0.5885 -0.0860
18847TIP3   OH278031   0.925   3.506   3.636 -0.1212 -0.9508  0.2677
18847TIP3    H178032   0.868   3.489   3.711 -1.2360 -0.7141 -0.5127
18847TIP3    H278033   0.898   3.592   3.604  0.1029 -1.2086 -0.6238
18848TIP3   OH278034   3.958   4.697  16.926 -0.3493  0.0012  0.3693
18848TIP3    H178035   3.869   4.701  16.891  0.2428 -0.5019 -1.2434
18848TIP3    H278036   3.957   4.758  17.000 -2.1311 -0.2845  0.6185
18849TIP3   OH278037   6.654   3.491   1.635  0.1714 -0.3911 -0.0442
18849TIP3    H178038   6.608   3.420   1.591 -0.3061 -0.4239  0.5036
18849TIP3    H278039   6.690   3.544   1.564  1.4818 -1.7718 -0.4738
18850TIP3   OH278040   0.877   0.835   6.074 -0.3654  0.7114  0.2634
18850TIP3    H178041   0.873   0.793   5.988 -0.9500  0.4688  0.4017
18850TIP3    H278042   0.843   0.769   6.134 -3.3078  2.0047  0.2257
18851TIP3   OH278043   0.549   5.845   0.418 -0.2233  0.2046 -0.1057
18851TIP3    H178044   0.476   5.834   0.358 -0.3359  2.0967 -0.3631
18851TIP3    H278045   0.519   5.910   0.481 -0.4338 -2.2674  2.6008
18852TIP3   OH278046   2.766   5.073  14.995  0.1641  0.4473 -0.2898
18852TIP3    H178047   2.773   5.121  15.078  1.2514  2.4325 -1.4445
18852TIP3    H278048   2.673   5.077  14.973  0.3303  3.2654 -0.9327
18853TIP3   OH278049   6.277   3.550  17.109  0.2573 -0.4753  0.4215
18853TIP3    H178050   6.196   3.591  17.139  1.1340  3.5242 -1.9743
18853TIP3    H278051   6.250   3.464  17.079 -2.7470  0.0410  1.2762
18854TIP3   OH278052   1.799   5.226   1.793  0.0103  0.6275  0.0069
18854TIP3    H178053   1.827   5.162   1.859 -1.2320  0.2398  0.1758
18854TIP3    H278054   1.755   5.173   1.726  0.8424  1.0749 -0.9164
18855TIP3   OH278055   0.247   3.737   5.647  0.2302 -0.4348 -0.2436
18855TIP3    H178056   0.245   3.698   5.560 -1.2410 -0.8502 -0.0403
18855TIP3    H278057   0.306   3.680   5.697  0.1052 -0.9094 -0.6322
18856TIP3   OH278058   1.042   5.800  13.755  0.0093 -0.1056  0.1270
18856TIP3    H178059   1.019   5.780  13.846  2.3433  0.6938  0.9668
18856TIP3    H278060   0.998   5.883  13.737  0.7807  0.5383  1.0980
18857TIP3   OH278061   4.068   2.515  15.063 -0.1867  0.6771  0.5652
18857TIP3    H178062   3.995   2.574  15.043  0.0599  1.4386  1.7863
18857TIP3    H278063   4.057   2.495  15.156  0.9566  0.4964  0.6711
18858TIP3   OH278064   0.937   5.349   0.010 -0.4294 -0.3638  0.3522
18858TIP3    H178065   0.857   5.399   0.026  1.6110  3.0964  0.5371
18858TIP3    H278066   0.955   5.361  -0.083 -0.7873 -2.3996 -0.0461
18859TIP3   OH278067   5.627   5.345  13.979  0.6516 -0.8567  0.3111
18859TIP3    H178068   5.682   5.312  14.050  2.0451  1.2483  0.2977
18859TIP3    H278069   5.621   5.439  13.995 -2.0228 -0.8196 -0.3774
18860TIP3   OH278070   5.396   3.244  13.630 -0.0655  0.3698 -0.0415
18860TIP3    H178071   5.381   3.337  13.642 -1.0913  0.1734  0.3345
18860TIP3    H278072   5.356   3.202  13.706  1.6951 -0.2995  0.5583
18861TIP3   OH278073   6.628   4.908   3.619 -0.4873 -0.3102  0.4115
18861TIP3    H178074   6.664   4.902   3.708  1.2406 -0.7836 -0.2885
18861TIP3    H278075   6.675   4.841   3.569  2.1216  2.9534 -1.9888
18862TIP3   OH278076   0.767   5.615  17.101  0.4866  0.1746  0.1587
18862TIP3    H178077   0.840   5.629  17.161 -0.3282  4.8044  0.4448
18862TIP3    H278078   0.801   5.640  17.015 -0.2011  0.3272 -0.0778
18863TIP3   OH278079   6.026   0.692  14.184 -0.6892  0.5089  0.0165
18863TIP3    H178080   6.067   0.746  14.252 -0.1622  0.8778 -0.5942
18863TIP3    H278081   5.987   0.755  14.123 -0.7717  0.1861 -0.2657
18864TIP3   OH278082   1.188   0.624   4.768  0.2197 -0.2195  0.3784
18864TIP3    H178083   1.193   0.534   4.798 -2.8394 -0.6057  0.0663
18864TIP3    H278084   1.216   0.621   4.677  1.3019 -0.6067  0.7159
18865TIP3   OH278085   5.547   6.555  13.896 -0.0626  0.0221 -0.0158
18865TIP3    H178086   5.538   6.532  13.989 -0.9496  0.7823  0.0936
18865TIP3    H278087   5.631   6.601  13.892 -0.4675  0.8364  0.5909
18866TIP3   OH278088   5.525   5.506  14.967  0.0072 -0.2192 -0.4728
18866TIP3    H178089   5.451   5.557  14.998 -1.0538 -1.1903 -1.3193
18866TIP3    H278090   5.529   5.430  15.025 -0.9411 -1.1882 -1.6313
18867TIP3   OH278091   3.771   0.954   4.585 -0.4058  0.9191 -0.1864
18867TIP3    H178092   3.677   0.971   4.592 -0.6397  1.0101 -2.7211
18867TIP3    H278093   3.789   0.891   4.655 -2.7830 -0.6950 -0.8954
18868TIP3   OH278094   0.866   2.643   6.108 -0.6192 -0.3630  0.2128
18868TIP3    H178095   0.827   2.629   6.195 -1.2642 -2.5026 -0.3569
18868TIP3    H278096   0.817   2.585   6.050  0.4503  0.2805 -1.4164
18869TIP3   OH278097   2.728   1.686   3.045 -0.8095 -0.3152 -0.1790
18869TIP3    H178098   2.765   1.770   3.073 -2.1399  0.3296 -0.2913
18869TIP3    H278099   2.800   1.623   3.058  0.5874  0.9970 -1.1412
18870TIP3   OH278100   1.439   1.322   4.773 -0.0172  0.1469 -0.3926
18870TIP3    H178101   1.527   1.314   4.810 -0.5734  1.2708  1.2989
18870TIP3    H278102   1.439   1.408   4.731 -0.2349  0.0557 -0.5783
18871TIP3   OH278103   1.184   4.964   2.676  0.4634  0.1173 -0.3268
18871TIP3    H178104   1.221   5.040   2.720 -1.6743  0.0554  1.7674
18871TIP3    H278105   1.249   4.894   2.690  1.4591  0.9864 -0.4550
18872TIP3   OH278106   6.050   6.686  13.755  0.4879 -0.2762  0.1873
18872TIP3    H178107   5.965   6.674  13.796  0.9723 -0.1060  1.2795
18872TIP3    H278108   6.061   6.781  13.752  1.4415 -0.2846  1.8453
18873TIP3   OH278109   0.650   3.212   2.483  0.0122 -0.2747 -0.0541
18873TIP3    H178110   0.699   3.277   2.433 -0.7386 -1.2705 -2.2065
18873TIP3    H278111   0.697   3.130   2.467 -0.6388 -0.7267  0.3225
18874TIP3   OH278112   4.193   0.041  16.762  0.3790  0.2178 -0.4968
18874TIP3    H178113   4.156  -0.048  16.770 -0.0778  0.4256 -0.2551
18874TIP3    H278114   4.116   0.098  16.766  0.8330  0.7440  1.4337
18875TIP3   OH278115   2.717   4.557   0.306 -0.1555 -0.1529  0.2822
18875TIP3    H178116   2.795   4.508   0.279 -0.1229 -1.6245  2.6973
18875TIP3    H278117   2.732   4.576   0.399 -1.4663  2.0245  0.1226
18876TIP3   OH278118   0.186   0.004   4.410  0.4403  0.1076  0.4070
18876TIP3    H178119   0.107   0.035   4.455  0.9708  0.1744  1.3136
18876TIP3    H278120   0.153  -0.046   4.335 -0.4942 -1.7464  1.9975
18877TIP3   OH278121   0.320   0.440  15.110  0.1489 -0.2960 -0.6113
18877TIP3    H178122   0.378   0.488  15.051 -0.0873  0.7471 -0.0306
18877TIP3    H278123   0.369   0.361  15.133  0.2372 -0.7196 -2.1749
18878TIP3   OH278124   4.404   3.773   5.220 -0.5362 -0.6769 -0.2602
18878TIP3    H178125   4.493   3.808   5.223 -0.3526 -1.1368 -0.3759
18878TIP3    H278126   4.351   3.839   5.266 -0.3813  0.3326 -1.4814
18879TIP3   OH278127   0.413   3.101   2.625  0.3249  0.1789 -0.0120
18879TIP3    H178128   0.483   3.125   2.565  0.2677  1.3634  0.3724
18879TIP3    H278129   0.405   3.006   2.616  2.1890 -0.0336  0.1575
18880TIP3   OH278130   5.632   6.032   5.330  0.0398  0.8280 -0.5400
18880TIP3    H178131   5.562   6.062   5.273 -0.8265 -0.3405 -0.1416
18880TIP3    H278132   5.632   5.937   5.319  1.1892  0.7602 -0.0926
18881TIP3   OH278133   3.702   0.378  16.555  0.7478 -0.2588  0.0107
18881TIP3    H178134   3.697   0.303  16.613  3.2169 -1.6015 -1.3765
18881TIP3    H278135   3.672   0.345  16.470  1.7813  0.3148 -0.6019
18882TIP3   OH278136   4.714   5.342  12.607  0.1940  0.2700 -0.5150
18882TIP3    H178137   4.804   5.358  12.633  0.1188 -0.3228  0.1503
18882TIP3    H278138   4.692   5.414  12.548  0.4027  1.6675  1.0408
18883TIP3   OH278139   1.267   2.652   3.915  0.3602 -0.2157  0.6067
18883TIP3    H178140   1.218   2.701   3.849  0.9817  0.4674  0.6465
18883TIP3    H278141   1.201   2.599   3.959 -0.0595 -0.7722 -0.6355
18884TIP3   OH278142   6.520   0.713   5.513  0.0855 -0.1182  0.5338
18884TIP3    H178143   6.442   0.717   5.458 -0.4449  1.1130  1.3376
18884TIP3    H278144   6.490   0.668   5.593 -0.4264  2.2477  1.7511
18885TIP3   OH278145   2.740   5.889   1.194  0.1500  0.1358 -0.3314
18885TIP3    H178146   2.647   5.876   1.211  0.2876 -1.3822 -0.6571
18885TIP3    H278147   2.748   5.984   1.180 -1.3491  0.2849 -0.3654
18886TIP3   OH278148   5.610   1.733  13.697 -0.4835 -0.0555  0.1363
18886TIP3    H178149   5.583   1.670  13.765  0.8704  0.7390  1.4840
18886TIP3    H278150   5.668   1.794  13.743 -1.0512  1.6819 -1.3179
18887TIP3   OH278151   5.424   1.528   6.491  0.1983 -0.1556 -0.4046
18887TIP3    H178152   5.497   1.573   6.534 -0.5488 -0.1005  0.8472
18887TIP3    H278153   5.416   1.571   6.406  0.9146  0.5924 -0.1035
18888TIP3   OH278154   4.726   1.333   1.520  0.1498  0.2014  0.3497
18888TIP3    H178155   4.670   1.353   1.594 -0.0085 -1.8005  0.8283
18888TIP3    H278156   4.748   1.418   1.482 -3.8131  1.0827 -0.3708
18889TIP3   OH278157   2.590   1.143   3.049  0.1355  0.0841 -0.6362
18889TIP3    H178158   2.506   1.185   3.067 -0.6427 -1.1126 -1.3260
18889TIP3    H278159   2.612   1.170   2.960  0.9025  1.0235 -0.1869
18890TIP3   OH278160   2.846   1.896   0.716  0.1235  0.4198  0.4972
18890TIP3    H178161   2.920   1.837   0.730  0.1286  0.7186  1.9355
18890TIP3    H278162   2.885   1.984   0.714 -0.0477  0.4855 -0.0874
18891TIP3   OH278163   0.724   5.110  15.962  0.1002 -0.2987  0.3150
18891TIP3    H178164   0.810   5.124  15.922  0.4585 -0.6112  0.9632
18891TIP3    H278165   0.742   5.057  16.040 -0.8475 -1.7634 -0.3994
18892TIP3   OH278166   2.347   2.168  11.280  0.3312 -0.5467 -0.3703
18892TIP3    H178167   2.399   2.130  11.208  0.0841  0.3288 -1.0322
18892TIP3    H278168   2.297   2.239  11.238 -0.3226 -0.4552  0.5429
18893TIP3   OH278169   1.788   3.640   1.252  1.1485 -0.3009  0.3161
18893TIP3    H178170   1.701   3.678   1.264  1.3695  0.5512 -0.7157
18893TIP3    H278171   1.823   3.682   1.174  1.9944 -1.5650 -0.0203
18894TIP3   OH278172   6.644   6.069  14.806  0.1957 -0.0686 -0.2543
18894TIP3    H178173   6.703   6.144  14.820  0.2623  0.3679 -2.5085
18894TIP3    H278174   6.564   6.092  14.854  0.7548  0.7405  0.3199
18895TIP3   OH278175   1.048   0.073   0.521 -0.4593  0.3625  0.0035
18895TIP3    H178176   1.016  -0.013   0.497 -1.5583  0.9524 -0.7365
18895TIP3    H278177   1.108   0.058   0.594  0.8436 -1.2170 -1.3421
18896TIP3   OH278178   0.356   6.249   3.667 -0.1136  0.1268 -0.1812
18896TIP3    H178179   0.418   6.315   3.700 -0.2376 -0.0828  0.4750
18896TIP3    H278180   0.402   6.166   3.679  0.7401  0.1875 -2.5660
18897TIP3   OH278181   2.586   1.591   3.252  0.0215  0.3155 -0.3508
18897TIP3    H178182   2.646   1.625   3.185 -0.0848  0.7667 -0.2260
18897TIP3    H278183   2.599   1.497   3.251 -0.5523  0.2296 -1.5672
18898TIP3   OH278184   0.007   2.683  14.175  0.5888 -0.3334 -0.1275
18898TIP3    H178185   0.019   2.751  14.241  1.0686 -0.6064  0.0636
18898TIP3    H278186  -0.076   2.706  14.133  0.4315  0.0079  0.3638
18899TIP3   OH278187   4.677   5.667  17.195 -0.6892  0.1958  0.1587
18899TIP3    H178188   4.588   5.696  17.215 -1.4449 -1.7312 -0.1333
18899TIP3    H278189   4.669   5.627  17.108  0.4405 -0.1251  0.1957
18900TIP3   OH278190   5.803   1.396  14.463  1.1190 -0.1447  0.1479
18900TIP3    H178191   5.795   1.327  14.530 -0.3639  0.3064  0.4634
18900TIP3    H278192   5.838   1.351  14.386  0.1740 -1.2637  0.3466
18901TIP3   OH278193   2.306   3.270   2.149 -0.9864  0.3200  0.1659
18901TIP3    H178194   2.248   3.312   2.086 -1.2153  0.1235  0.2433
18901TIP3    H278195   2.252   3.204   2.191 -0.0718 -1.5761 -1.4621
18902TIP3   OH278196   1.825   2.878   3.436 -0.4989  0.0898 -0.5917
18902TIP3    H178197   1.827   2.972   3.455 -0.3332  0.1803 -1.0459
18902TIP3    H278198   1.743   2.847   3.474  0.8160 -0.1689  2.2460
18903TIP3   OH278199   0.518   4.396  12.833 -0.2535  0.4116 -0.0740
18903TIP3    H178200   0.497   4.303  12.826 -2.7082  0.6708  2.2575
18903TIP3    H278201   0.433   4.440  12.835  0.7785  2.5232  0.8324
18904TIP3   OH278202   3.716   3.174  10.312 -0.1086 -0.5949  0.1191
18904TIP3    H178203   3.632   3.145  10.346 -0.9522 -0.8929 -2.0549
18904TIP3    H278204   3.740   3.107  10.247  1.1146  0.1945 -0.2907
18905TIP3   OH278205   0.759   4.572   2.988 -0.2375  0.8356 -0.2937
18905TIP3    H178206   0.803   4.489   3.002 -0.9971  0.6030  0.8625
18905TIP3    H278207   0.700   4.581   3.063 -2.4983  0.9061 -1.9793
18906TIP3   OH278208   2.937   0.700   3.304  0.9575 -0.3051 -0.1029
18906TIP3    H178209   2.892   0.782   3.286 -0.1503 -0.8370  0.1788
18906TIP3    H278210   3.027   0.715   3.273  0.6294  0.8094 -0.5681
18907TIP3   OH278211   2.668   2.958  14.759  0.1562  0.0781  0.3678
18907TIP3    H178212   2.727   2.992  14.827 -0.1092 -0.2091  0.7474
18907TIP3    H278213   2.704   2.993  14.677 -0.5178  1.8631  0.7851
18908TIP3   OH278214   5.160   4.362  14.370  0.8312 -0.4018  0.6147
18908TIP3    H178215   5.188   4.393  14.284 -1.3246 -0.1299 -0.0444
18908TIP3    H278216   5.193   4.272  14.375  0.6980 -0.5365 -0.6491
18909TIP3   OH278217   6.085   5.821  16.971 -0.0682 -0.2327  0.3912
18909TIP3    H178218   6.078   5.838  17.065  1.4824  1.6919  0.2190
18909TIP3    H278219   6.157   5.758  16.963 -0.4525 -0.6936  0.4939
18910TIP3   OH278220   6.663   2.211  15.064 -0.4710  0.0119  0.1318
18910TIP3    H178221   6.694   2.126  15.095 -2.5051  0.2077  3.1550
18910TIP3    H278222   6.739   2.268  15.071 -0.0720 -0.6732  2.2185
18911TIP3   OH278223   1.258   0.116   5.522 -0.0002 -0.0494  0.1535
18911TIP3    H178224   1.190   0.093   5.460  0.5923 -1.2097 -0.1010
18911TIP3    H278225   1.262   0.042   5.583  0.2968  0.4916  0.8193
18912TIP3   OH278226   4.186   0.001  14.237  0.2328  0.8812  0.6747
18912TIP3    H178227   4.262  -0.046  14.201  0.6094  0.0530  2.4260
18912TIP3    H278228   4.143  -0.064  14.293 -1.3243  1.5938  0.3392
18913TIP3   OH278229   1.212   6.208  16.038  0.0675  0.4427  0.7598
18913TIP3    H178230   1.184   6.294  16.070  1.5713  1.7905 -1.3381
18913TIP3    H278231   1.131   6.163  16.018 -0.7372  1.8977  0.5958
18914TIP3   OH278232   4.341   4.851   5.643 -0.3758  0.1037 -0.1220
18914TIP3    H178233   4.263   4.888   5.685 -0.6736  1.8206 -2.0363
18914TIP3    H278234   4.412   4.911   5.668  0.1807 -0.9283  0.8531
18915TIP3   OH278235   4.653   0.335  10.314  0.3005  0.1419  0.0398
18915TIP3    H178236   4.579   0.368  10.365 -0.4304 -1.6941  0.2512
18915TIP3    H278237   4.645   0.240  10.319  1.7382 -0.0941 -1.3210
18916TIP3   OH278238   4.094   3.984  14.359  0.1450 -0.2090 -0.6097
18916TIP3    H178239   4.161   3.924  14.391 -2.4199 -2.5216  0.8663
18916TIP3    H278240   4.106   4.064  14.412  0.4354 -1.3740  1.1662
18917TIP3   OH278241   3.618   6.424   4.047 -0.5666  0.7478 -0.1136
18917TIP3    H178242   3.622   6.342   4.097 -1.5218  0.4204 -0.5539
18917TIP3    H278243   3.694   6.420   3.989  0.8160  1.3342  1.5692
18918TIP3   OH278244   2.709   3.541   3.047 -0.0459  0.1402  0.5609
18918TIP3    H178245   2.676   3.601   2.981 -1.5450 -0.6098  0.5914
18918TIP3    H278246   2.686   3.582   3.131 -1.9204 -0.8441  0.5894
18919TIP3   OH278247   3.561   1.901   2.060  0.1292  0.3304 -0.0523
18919TIP3    H178248   3.497   1.968   2.038 -0.7109 -0.2318  0.6178
18919TIP3    H278249   3.622   1.944   2.119 -1.1061  0.2132  1.3723
18920TIP3   OH278250   5.447   0.571   5.408 -0.3825 -0.6007  0.5495
18920TIP3    H178251   5.380   0.639   5.414  0.0506 -0.1470  0.3429
18920TIP3    H278252   5.461   0.543   5.498 -0.8371 -0.6861  0.5935
18921TIP3   OH278253   0.509   6.355   2.719  0.0323  0.0692 -0.2135
18921TIP3    H178254   0.543   6.299   2.649  0.1869 -1.5333  1.0817
18921TIP3    H278255   0.478   6.293   2.785 -2.5909  1.4950  0.0064
18922TIP3   OH278256   3.952   6.213   3.664 -0.1778 -0.3555  0.0662
18922TIP3    H178257   4.032   6.256   3.695  0.0722 -0.8410  0.1122
18922TIP3    H278258   3.912   6.178   3.743  0.4668 -1.6078 -0.1423
18923TIP3   OH278259   6.104   3.881   2.642 -0.5568  0.5740 -0.3748
18923TIP3    H178260   6.163   3.950   2.672  1.4042 -0.8558 -0.8015
18923TIP3    H278261   6.040   3.872   2.713 -0.7766  2.7080 -0.2557
18924TIP3   OH278262   2.297   0.879   5.440 -0.3241 -0.1866 -0.3665
18924TIP3    H178263   2.247   0.959   5.459  1.6022  0.9685  0.0913
18924TIP3    H278264   2.329   0.891   5.351  0.1173 -0.3483 -0.2332
18925TIP3   OH278265   5.161   1.572   4.455  0.3633 -0.7512  0.1093
18925TIP3    H178266   5.080   1.525   4.434 -0.5051 -0.5427  2.6838
18925TIP3    H278267   5.146   1.661   4.422 -0.9750 -0.3972  1.5745
18926TIP3   OH278268   5.627   3.074   2.892 -0.1389 -0.0846 -0.1470
18926TIP3    H178269   5.570   2.997   2.897  1.2734 -1.2260 -0.5025
18926TIP3    H278270   5.628   3.109   2.981 -1.6396  0.1768 -0.2153
18927TIP3   OH278271   3.026   2.921   4.426 -0.4696 -0.3939  0.5402
18927TIP3    H178272   3.032   2.840   4.377 -0.9908 -1.2046  1.7646
18927TIP3    H278273   3.117   2.952   4.434 -0.2537 -0.9417  0.2208
18928TIP3   OH278274   1.058   4.126   2.856  0.2779 -0.4019 -0.0303
18928TIP3    H178275   1.013   4.207   2.879  0.8227  0.6748 -2.3417
18928TIP3    H278276   1.151   4.150   2.853  0.6693 -1.6406  1.1276
18929TIP3   OH278277   3.209   6.399   5.845  0.1368  0.3401  0.1811
18929TIP3    H178278   3.158   6.324   5.815  0.1027  0.3837  0.1302
18929TIP3    H278279   3.270   6.362   5.909 -1.6434  0.6612  2.2011
18930TIP3   OH278280   4.907   3.411  14.145 -0.1671 -0.9646 -0.1006
18930TIP3    H178281   4.941   3.387  14.059  2.4229  0.7734  0.3133
18930TIP3    H278282   4.841   3.478  14.127  2.3838  1.5838 -0.7889
18931TIP3   OH278283   1.542   4.514   0.259 -0.0039  0.1406 -0.0737
18931TIP3    H178284   1.634   4.526   0.233 -0.8754 -1.2275 -4.7618
18931TIP3    H278285   1.508   4.603   0.268  1.7592  0.6725  2.1344
18932TIP3   OH278286   4.475   2.278  14.629 -0.0379 -0.4163 -0.4220
18932TIP3    H178287   4.436   2.361  14.656 -0.9731 -1.3088  1.0968
18932TIP3    H278288   4.569   2.293  14.634 -0.1967  0.3316  0.5958
18933TIP3   OH278289   1.760   2.851   1.042 -0.0248  0.3285  0.5861
18933TIP3    H178290   1.669   2.856   1.071 -0.7040  0.3260 -1.4179
18933TIP3    H278291   1.783   2.940   1.018  0.1283  0.1414  0.0274
18934TIP3   OH278292   0.686   3.199  16.050 -0.1794 -0.2511  0.6753
18934TIP3    H178293   0.683   3.290  16.020  1.5434 -0.6817 -0.9695
18934TIP3    H278294   0.779   3.182  16.065 -0.5683 -1.4845  1.8357
18935TIP3   OH278295   4.872   6.812   4.167 -0.5675  0.4593  0.2484
18935TIP3    H178296   4.898   6.904   4.166 -2.2227  0.9882  1.0896
18935TIP3    H278297   4.778   6.814   4.146 -0.7785 -0.9735  0.9277
18936TIP3   OH278298   5.190   5.445   3.605 -0.4424 -0.1984 -0.1193
18936TIP3    H178299   5.179   5.355   3.576 -1.1708 -0.1349 -0.0415
18936TIP3    H278300   5.105   5.470   3.642 -0.5050  0.7972 -0.8943
18937TIP3   OH278301   6.701   0.460  11.349 -0.1311  0.5253 -0.0793
18937TIP3    H178302   6.777   0.517  11.338 -0.3025  0.7348 -0.1959
18937TIP3    H278303   6.684   0.460  11.443 -0.4251  1.0593 -0.1269
18938TIP3   OH278304   0.172   4.342   2.797 -0.2127  0.3036 -0.2968
18938TIP3    H178305   0.092   4.312   2.754 -0.4462  0.0425  0.2998
18938TIP3    H278306   0.186   4.278   2.867  0.2775  0.5943 -0.1277
18939TIP3   OH278307   3.616   3.593  15.991  0.0932 -0.1537  0.3703
18939TIP3    H178308   3.614   3.513  15.938 -0.4962 -0.7823  1.3029
18939TIP3    H278309   3.610   3.561  16.081 -0.7175  0.9715  0.7251
18940TIP3   OH278310   6.018   0.782   4.443  0.6385 -0.4874  0.0321
18940TIP3    H178311   5.965   0.820   4.512  2.4185  0.1552  1.1303
18940TIP3    H278312   6.012   0.687   4.458 -0.6762 -0.4742 -0.2865
18941TIP3   OH278313   5.391   1.264  10.860  0.0215 -0.3413 -0.2235
18941TIP3    H178314   5.343   1.288  10.781 -0.6127  0.1840  0.3068
18941TIP3    H278315   5.408   1.170  10.850 -0.3248 -0.3438 -0.8372
18942TIP3   OH278316   3.694   6.246  17.135  0.0991  0.5873 -0.4818
18942TIP3    H178317   3.776   6.214  17.098 -0.6958  0.3728 -2.1661
18942TIP3    H278318   3.626   6.207  17.080 -1.1547  0.7376  0.8813
18943TIP3   OH278319   0.596   5.823   1.799  0.3233  0.8645 -0.3390
18943TIP3    H178320   0.551   5.895   1.844 -1.1405 -1.0186  1.4257
18943TIP3    H278321   0.525   5.770   1.762  1.1662 -0.9607  0.5344
18944TIP3   OH278322   1.421   3.857   5.815  0.5385  0.0600 -0.1769
18944TIP3    H178323   1.399   3.886   5.726  2.0912 -2.5033 -1.5217
18944TIP3    H278324   1.344   3.809   5.844  0.2404  0.4267 -0.3427
18945TIP3   OH278325   1.718   5.953  15.313 -0.0985  0.1424 -0.1652
18945TIP3    H178326   1.813   5.956  15.324  0.2184  0.8653 -2.4955
18945TIP3    H278327   1.684   6.016  15.377  1.1094  0.8919 -0.2389
18946TIP3   OH278328   1.745   3.376   2.157  0.2813  0.1762 -0.6191
18946TIP3    H178329   1.776   3.445   2.215 -0.7045 -0.2931  0.4982
18946TIP3    H278330   1.650   3.371   2.174  0.4406 -1.9723 -0.0761
18947TIP3   OH278331   1.399   2.201   2.920  0.6514  1.1737  0.5920
18947TIP3    H178332   1.318   2.167   2.882  1.3278  0.0305  0.1256
18947TIP3    H278333   1.371   2.246   3.000 -0.9029  4.3336 -1.5664
18948TIP3   OH278334   5.141   0.311  16.552 -0.1764 -0.5825 -0.0264
18948TIP3    H178335   5.102   0.243  16.497 -3.0808 -0.6444  1.9198
18948TIP3    H278336   5.217   0.267  16.593  0.7031 -1.1880 -2.1460
18949TIP3   OH278337   1.537   3.462   4.225  0.9609  0.1059 -0.0207
18949TIP3    H178338   1.486   3.500   4.153 -0.7021 -1.7138  0.0947
18949TIP3    H278339   1.562   3.375   4.193 -0.4101 -1.0323  1.8021
18950TIP3   OH278340   5.514   5.024   4.057 -0.3432 -0.4023  0.3409
18950TIP3    H178341   5.483   5.047   4.145  0.5234 -0.1138  0.5845
18950TIP3    H278342   5.582   5.089   4.038  1.5127 -2.1513  0.6591
18951TIP3   OH278343   1.492   0.003  10.487  0.0289 -0.0113  0.0296
18951TIP3    H178344   1.446   0.051  10.556  0.0705  0.4472 -0.2591
18951TIP3    H278345   1.429  -0.002  10.415  0.4016  0.5787 -0.3506
18952TIP3   OH278346   3.469   1.081  15.161 -0.9452  0.3386 -0.0764
18952TIP3    H178347   3.390   1.067  15.213  0.4871 -1.6500  1.7463
18952TIP3    H278348   3.508   1.160  15.197 -0.6335 -0.3120  1.0615
18953TIP3   OH278349   2.517   3.588  16.362 -0.5146 -0.6365  0.5162
18953TIP3    H178350   2.501   3.574  16.456 -3.3494 -0.8208  0.1123
18953TIP3    H278351   2.444   3.543  16.319  0.1706  0.2865 -1.7306
18954TIP3   OH278352   6.641   2.031   5.457  0.5571 -0.2418  0.8194
18954TIP3    H178353   6.550   2.014   5.482  0.4887 -0.2915  0.5410
18954TIP3    H278354   6.651   1.987   5.373  0.8516 -0.2692  0.8681
18955TIP3   OH278355   6.570   5.800  11.414  0.5632  0.6187  0.2258
18955TIP3    H178356   6.645   5.826  11.467  1.2434 -0.2911 -0.2533
18955TIP3    H278357   6.572   5.704  11.415 -0.2386  0.5900 -0.2785
18956TIP3   OH278358   3.980   3.236   0.986 -0.0588  0.0309 -0.6344
18956TIP3    H178359   3.982   3.250   0.892 -0.6975  1.0389 -0.5195
18956TIP3    H278360   3.931   3.155   0.998  1.5794 -1.1093 -1.2330
18957TIP3   OH278361   5.820   0.833  11.565  0.4246 -0.1545 -0.2091
18957TIP3    H178362   5.743   0.849  11.511  0.5440  0.5171 -0.1853
18957TIP3    H278363   5.847   0.744  11.541  0.5112  0.1487 -1.3041
18958TIP3   OH278364   5.701   0.379   0.824  0.7215  0.3618  0.2275
18958TIP3    H178365   5.769   0.333   0.774  1.3080  1.3411  0.0992
18958TIP3    H278366   5.740   0.464   0.844 -0.3490  0.8075  0.4557
18959TIP3   OH278367   3.634   5.668   4.841  0.1603  0.5164 -0.2983
18959TIP3    H178368   3.555   5.637   4.884 -0.0534  0.0010 -1.0401
18959TIP3    H278369   3.702   5.605   4.867 -0.0551 -0.0269 -1.0021
18960TIP3   OH278370   2.661   2.051  15.459 -0.1147  0.0201  0.4105
18960TIP3    H178371   2.745   2.091  15.441  0.7603 -2.3779 -1.3493
18960TIP3    H278372   2.681   1.977  15.517 -0.8308 -1.0055 -0.5909
18961TIP3   OH278373   0.309   4.141   4.127  0.7575  0.0955  0.4040
18961TIP3    H178374   0.278   4.051   4.132 -1.1310  0.6238 -0.7548
18961TIP3    H278375   0.245   4.185   4.071  0.5490  2.6081  2.4454
18962TIP3   OH278376   6.087   4.152  17.235  0.2622  0.2226  0.7401
18962TIP3    H178377   6.163   4.141  17.177  1.5452 -0.0454  2.3929
18962TIP3    H278378   6.061   4.244  17.224  1.1207  0.4413  0.4806
18963TIP3   OH278379   6.485   5.800   5.794 -0.1432  0.3674 -0.0402
18963TIP3    H178380   6.439   5.731   5.747  0.9507 -0.0558 -0.5400
18963TIP3    H278381   6.506   5.761   5.879  1.0658 -0.1845 -0.5702
18964TIP3   OH278382   1.612   5.543   6.669  0.0964 -0.1101  0.0212
18964TIP3    H178383   1.647   5.627   6.700  0.8043  0.0837 -1.2141
18964TIP3    H278384   1.517   5.554   6.670  0.1822  0.6853 -0.0313
18965TIP3   OH278385   5.598   2.937   3.770 -0.3013  0.3086  0.4334
18965TIP3    H178386   5.651   2.930   3.691 -0.5869 -0.4358  0.3059
18965TIP3    H278387   5.525   2.877   3.756 -0.5412  0.4274  1.1168
18966TIP3   OH278388   1.347   0.017  12.758 -0.1045 -0.3066  0.1639
18966TIP3    H178389   1.261   0.008  12.717 -0.1972  0.2236  0.2316
18966TIP3    H278390   1.401  -0.051  12.718 -0.7352 -1.0718  0.5964
18967TIP3   OH278391   5.052   3.340  11.447  0.0819 -0.1829  0.1746
18967TIP3    H178392   5.123   3.276  11.440 -0.9357 -1.2563 -0.7022
18967TIP3    H278393   4.990   3.301  11.508  0.2390  0.7611  0.9589
18968TIP3   OH278394   4.380   5.789  13.343  0.1130  0.4641 -0.3225
18968TIP3    H178395   4.339   5.713  13.384 -1.4195  1.6572  0.4997
18968TIP3    H278396   4.309   5.829  13.291  0.9012  1.2821 -0.8037
18969TIP3   OH278397   1.362   4.010   5.196  0.2491 -0.0164  0.1703
18969TIP3    H178398   1.287   3.950   5.203  1.1197 -1.0924  0.5510
18969TIP3    H278399   1.333   4.089   5.242 -0.9317 -0.1080 -0.3578
18970TIP3   OH278400   5.756   0.331   2.570  0.3461 -0.3332 -0.0063
18970TIP3    H178401   5.843   0.345   2.534 -0.5249  2.4636 -1.2753
18970TIP3    H278402   5.713   0.416   2.563 -1.9083 -1.1581  2.2546
18971TIP3   OH278403   1.474   4.455  13.632  0.1814 -0.4934 -0.0002
18971TIP3    H178404   1.513   4.472  13.718 -0.9119 -1.4530  0.6983
18971TIP3    H278405   1.548   4.429  13.577  0.8212 -0.2984  0.7498
18972TIP3   OH278406   4.582   5.121   1.017  0.7759  0.3788 -0.0939
18972TIP3    H178407   4.667   5.081   1.039  0.3868  0.5987  2.0750
18972TIP3    H278408   4.587   5.208   1.056 -0.8457 -0.0144  1.0887
18973TIP3   OH278409   3.206   6.812  17.052 -0.0414 -0.3511 -0.3841
18973TIP3    H178410   3.207   6.885  17.115  1.3281 -1.1249  0.5461
18973TIP3    H278411   3.158   6.743  17.096 -1.1707 -0.1068 -1.1916
18974TIP3   OH278412   3.454   0.334   4.943 -0.1671 -0.5886 -0.3540
18974TIP3    H178413   3.414   0.404   4.994  3.7506  2.0199 -0.4579
18974TIP3    H278414   3.458   0.368   4.853  1.1984 -1.2179 -0.5532
18975TIP3   OH278415   2.293   0.782  15.193  0.2253  0.7968  0.0174
18975TIP3    H178416   2.332   0.706  15.236 -2.3616 -0.2041  0.8072
18975TIP3    H278417   2.264   0.748  15.108  0.9711  1.5044 -0.5362
18976TIP3   OH278418   6.776   2.932   6.289  0.2758  0.0499 -0.5074
18976TIP3    H178419   6.682   2.921   6.275  0.3416  1.0149 -1.8600
18976TIP3    H278420   6.806   2.981   6.213  1.6173  1.1149  0.6624
18977TIP3   OH278421   2.094   1.549  17.165 -0.2932  0.4396  0.3321
18977TIP3    H178422   2.012   1.534  17.118 -0.0778  0.0462  0.0848
18977TIP3    H278423   2.158   1.568  17.097  0.5551 -2.3973  0.2183
18978TIP3   OH278424   6.465   0.362  14.118  0.2606  0.1815 -0.1798
18978TIP3    H178425   6.537   0.411  14.158 -0.4242  0.0304  1.2851
18978TIP3    H278426   6.498   0.272  14.113  0.2279  0.1407  0.3407
18979TIP3   OH278427   1.109   0.867   5.085  0.0708  0.7905  0.1863
18979TIP3    H178428   1.153   0.933   5.033 -1.7755  2.2790  0.4039
18979TIP3    H278429   1.018   0.870   5.055 -0.3971 -0.4708  1.3772
18980TIP3   OH278430   6.526   0.639  15.597 -0.3953 -0.7071 -0.4818
18980TIP3    H178431   6.453   0.599  15.550 -0.8012 -0.2021 -0.2852
18980TIP3    H278432   6.509   0.733  15.592 -0.3734 -0.6381  0.5581
18981TIP3   OH278433   5.327   0.970  14.531 -0.6698  0.1730 -0.9239
18981TIP3    H178434   5.292   0.938  14.448 -0.6781  0.5327 -1.0603
18981TIP3    H278435   5.277   0.924  14.597 -1.8219  1.1084 -1.1053
18982TIP3   OH278436   1.892   6.476  13.590 -0.0807 -0.3174  0.0403
18982TIP3    H178437   1.842   6.396  13.608 -1.9074  1.0201  1.3274
18982TIP3    H278438   1.897   6.520  13.675  3.6058 -0.4686  0.0344
18983TIP3   OH278439   1.623   1.866   5.392  0.1136 -0.2751  0.2562
18983TIP3    H178440   1.565   1.826   5.457 -0.7081 -1.0965 -0.9427
18983TIP3    H278441   1.645   1.795   5.333 -0.5495  0.8041 -1.3549
18984TIP3   OH278442   6.432   5.724  11.124 -0.0679 -0.5016  0.6526
18984TIP3    H178443   6.422   5.665  11.048 -1.6021 -0.7180  0.9978
18984TIP3    H278444   6.486   5.674  11.185  0.7246 -0.5440 -0.0523
18985TIP3   OH278445   4.738   4.486   1.660 -0.5422 -0.0998  0.6924
18985TIP3    H178446   4.791   4.563   1.641  0.4601 -1.1032 -0.6920
18985TIP3    H278447   4.657   4.500   1.611 -1.4578  1.2127  2.4443
18986TIP3   OH278448   0.010   2.024  16.010  0.2498  0.3016 -0.5021
18986TIP3    H178449  -0.027   1.952  15.959  2.0927 -0.8177 -0.3385
18986TIP3    H278450  -0.008   2.001  16.101  1.3469 -0.2845 -0.4176
18987TIP3   OH278451   3.201   1.144   1.620 -0.2332 -0.2304 -0.1025
18987TIP3    H178452   3.288   1.171   1.590 -0.2485 -0.9515 -0.8218
18987TIP3    H278453   3.144   1.156   1.544 -0.8306  0.5039  0.4474
18988TIP3   OH278454   1.425   4.550   4.061 -0.5058  0.5300 -0.3904
18988TIP3    H178455   1.468   4.584   4.140 -1.0925 -0.2766  0.2832
18988TIP3    H278456   1.474   4.590   3.989 -0.3415  1.7546  0.3731
18989TIP3   OH278457   5.028   6.551   4.885 -0.0358  0.1135 -0.0208
18989TIP3    H178458   4.944   6.544   4.929 -0.4979 -0.6455 -0.9848
18989TIP3    H278459   5.063   6.636   4.912 -1.1706  0.4911  0.2801
18990TIP3   OH278460   5.227   0.615  11.723 -0.1007  0.2333 -0.6664
18990TIP3    H178461   5.257   0.699  11.756  0.9708  0.0890 -1.2258
18990TIP3    H278462   5.213   0.629  11.629  0.1729 -0.2404 -0.7790
18991TIP3   OH278463   4.908   1.123  11.609  0.2296  0.2659  0.1396
18991TIP3    H178464   4.970   1.121  11.536  0.7083 -0.4202  0.5585
18991TIP3    H278465   4.882   1.215  11.616  1.0014  0.5165 -0.2018
18992TIP3   OH278466   5.019   6.163   6.098 -0.1143  0.4330 -0.2638
18992TIP3    H178467   4.996   6.256   6.097 -0.2547  0.4103  0.5561
18992TIP3    H278468   5.080   6.153   6.025 -1.0549  0.9182 -1.1500
18993TIP3   OH278469   6.416   5.029  15.192  0.2321 -0.7973 -0.0377
18993TIP3    H178470   6.427   4.992  15.105 -0.0429 -0.9459 -0.0109
18993TIP3    H278471   6.472   5.107  15.193  2.1437 -2.1208  0.4763
18994TIP3   OH278472   4.490   0.837  14.770  0.3143 -0.2037  0.1657
18994TIP3    H178473   4.487   0.931  14.752  0.0427 -0.5849 -2.0197
18994TIP3    H278474   4.398   0.813  14.788  0.6016  0.2031  2.5963
18995TIP3   OH278475   5.591   3.045   1.718 -0.4989 -0.4553 -0.5975
18995TIP3    H178476   5.664   3.103   1.697  0.1733 -1.3641 -0.8499
18995TIP3    H278477   5.580   2.990   1.640 -2.0090  0.1969 -0.8972
18996TIP3   OH278478   5.471   6.063  11.281  0.2656 -0.1727 -0.1857
18996TIP3    H178479   5.515   6.145  11.257  1.2566 -0.8401 -0.7425
18996TIP3    H278480   5.396   6.058  11.223  1.5748 -0.8242 -1.9116
18997TIP3   OH278481   4.546   3.062  15.739  0.0395 -0.2645 -0.0185
18997TIP3    H178482   4.622   3.038  15.793 -1.3352 -1.9285  1.2821
18997TIP3    H278483   4.486   2.988  15.748 -1.4175  0.6475 -1.6643
18998TIP3   OH278484   6.417   0.204  12.575  0.5897 -0.3231 -0.7133
18998TIP3    H178485   6.492   0.245  12.618 -1.0873  1.8430  0.3739
18998TIP3    H278486   6.423   0.111  12.598  1.8855  0.1292  0.9160
18999TIP3   OH278487   2.684   3.044   2.684  0.9983 -0.6458  0.1303
18999TIP3    H178488   2.731   3.015   2.762  0.6705  2.1417  1.4833
18999TIP3    H278489   2.724   3.129   2.663 -2.1849  1.0206  0.2932
19000TIP3   OH278490   6.177   5.357   3.194  0.0641  0.0110 -0.3958
19000TIP3    H178491   6.133   5.423   3.248 -0.9573 -0.9308 -0.0228
19000TIP3    H278492   6.270   5.366   3.216 -0.0629  1.2751 -0.3227
19001TIP3   OH278493   0.128   4.426  12.394  0.1151  0.0615  0.5891
19001TIP3    H178494   0.113   4.386  12.308 -3.1874  1.6095  0.2621
19001TIP3    H278495   0.188   4.498  12.377 -0.8878  0.6578 -0.5726
19002TIP3   OH278496   3.812   2.635  13.751 -0.0738  0.3094 -0.1755
19002TIP3    H178497   3.805   2.730  13.748 -3.8906  0.1739 -1.2483
19002TIP3    H278498   3.772   2.605  13.669  0.5492 -2.2310  0.3454
19003TIP3   OH278499   4.427   1.185   5.392  0.2629  0.3060 -0.3171
19003TIP3    H178500   4.393   1.237   5.465 -1.6811 -2.3310  0.8480
19003TIP3    H278501   4.499   1.134   5.431  1.9343  1.7610 -1.3582
19004TIP3   OH278502   4.221   3.970   3.219  0.0587 -0.2340  0.0432
19004TIP3    H178503   4.304   3.948   3.176  0.0646 -0.6634  0.2790
19004TIP3    H278504   4.247   4.006   3.304  0.0849  1.2969 -0.5704
19005TIP3   OH278505   1.226   6.762   0.007 -0.8921 -0.1013 -0.5182
19005TIP3    H178506   1.322   6.755   0.005 -0.7626  0.8474  1.0509
19005TIP3    H278507   1.196   6.672  -0.007  0.1730 -0.2430 -2.2285
19006TIP3   OH278508   2.425   3.225   5.828  0.0440  0.2664 -0.1241
19006TIP3    H178509   2.341   3.198   5.865  0.4863 -0.2220  0.5493
19006TIP3    H278510   2.404   3.253   5.739 -0.8299  0.1471  0.0337
19007TIP3   OH278511   0.409   2.987   2.889  0.0513 -0.0315  0.0240
19007TIP3    H178512   0.362   3.063   2.923 -0.2887 -0.6470  0.9494
19007TIP3    H278513   0.434   3.013   2.800 -0.3534  1.0303  0.2015
19008TIP3   OH278514   6.556   5.126   1.950  0.5280  0.2141 -0.1388
19008TIP3    H178515   6.487   5.158   2.007  0.1833 -1.8545  0.7084
19008TIP3    H278516   6.521   5.045   1.913  2.0852 -0.3342 -0.5098
19009TIP3   OH278517   2.500   0.804   1.580  0.7813  0.3152  0.0444
19009TIP3    H178518   2.596   0.805   1.586  0.8101  1.0172 -0.3698
19009TIP3    H278519   2.480   0.729   1.524  0.8763 -1.9627  2.8292
19010TIP3   OH278520   0.619   5.688  12.847 -0.1486 -0.3223 -0.2973
19010TIP3    H178521   0.712   5.697  12.864 -0.1867 -1.6201  0.7578
19010TIP3    H278522   0.610   5.604  12.802 -0.9136 -0.9111  0.8756
19011TIP3   OH278523   1.425   2.918  13.786 -0.3922 -0.4804  0.0312
19011TIP3    H178524   1.451   3.007  13.763 -0.2951 -0.2757  0.9039
19011TIP3    H278525   1.356   2.896  13.723 -0.0526  0.0089 -0.5203
19012TIP3   OH278526   1.833   3.596   1.848  0.1692  0.1155 -0.0216
19012TIP3    H178527   1.828   3.513   1.894 -1.3507  0.9506  1.4245
19012TIP3    H278528   1.770   3.588   1.776 -0.4444  0.2302  0.4982
19013TIP3   OH278529   5.971   6.553  13.375  0.3406 -0.0557 -0.3542
19013TIP3    H178530   6.060   6.568  13.344  0.1393 -1.1773 -1.5381
19013TIP3    H278531   5.915   6.580  13.303 -0.2438 -0.3190 -0.0086
19014TIP3   OH278532   3.099   2.093  15.787 -0.4306  0.1312  0.9516
19014TIP3    H178533   3.012   2.133  15.798  0.1111  3.2783 -3.3831
19014TIP3    H278534   3.159   2.167  15.784  1.5387 -1.4022 -1.7421
19015TIP3   OH278535   4.995   0.037   6.142  0.1774 -0.3171  0.0541
19015TIP3    H178536   4.924   0.093   6.172  0.1703  0.6930 -1.6972
19015TIP3    H278537   5.075   0.080   6.173  0.0990 -1.9587  2.8609
19016TIP3   OH278538   4.102   0.193   3.592  0.4574 -0.2333  0.2884
19016TIP3    H178539   4.102   0.124   3.526 -0.7761 -1.6740  1.7123
19016TIP3    H278540   4.112   0.147   3.675 -3.4127  0.8924  1.5823
19017TIP3   OH278541   0.224   4.182   3.005 -0.2319 -0.2125  0.1723
19017TIP3    H178542   0.240   4.099   3.049 -0.7532  0.6782  2.1768
19017TIP3    H278543   0.223   4.247   3.076  1.9260  1.7896 -1.4526
19018TIP3   OH278544   0.593   1.735  13.574  0.1660 -0.6014 -0.2158
19018TIP3    H178545   0.543   1.770  13.501 -0.6882 -2.3042 -0.4930
19018TIP3    H278546   0.682   1.770  13.561 -0.4837  0.9587 -0.7452
19019TIP3   OH278547   0.711   1.679   1.064 -0.3436  0.2931  0.1512
19019TIP3    H178548   0.665   1.596   1.066  0.4392 -0.1315  1.1059
19019TIP3    H278549   0.696   1.713   0.975 -2.4642  0.1868  0.4176
19020TIP3   OH278550   0.972   2.238  11.732  0.2869  0.1879  0.0010
19020TIP3    H178551   1.022   2.276  11.659  0.8596 -2.7659 -1.3045
19020TIP3    H278552   1.014   2.153  11.747 -0.8242  0.0296  2.7826
19021TIP3   OH278553   1.425   2.078   6.255  0.5866  0.1289  0.3104
19021TIP3    H178554   1.512   2.039   6.244  0.8148  0.7759 -0.2398
19021TIP3    H278555   1.434   2.135   6.332  0.9609  1.0215 -0.3765
19022TIP3   OH278556   4.835   2.860   2.999  0.0643 -0.0001  0.1877
19022TIP3    H178557   4.740   2.848   3.006  0.3248 -1.6127  2.1009
19022TIP3    H278558   4.854   2.936   3.054 -0.0593 -0.1656  0.4650
19023TIP3   OH278559   5.135   6.811  12.016 -0.1311 -0.2561 -0.1662
19023TIP3    H178560   5.132   6.737  12.076  0.0519 -0.2247 -0.1156
19023TIP3    H278561   5.223   6.847  12.028 -0.0328 -0.3542 -0.5741
19024TIP3   OH278562   6.533   1.342  13.114 -0.4159 -0.0448 -0.5140
19024TIP3    H178563   6.590   1.370  13.186 -1.0528  1.1974 -0.4719
19024TIP3    H278564   6.592   1.337  13.038 -0.2086  1.2421 -0.4742
19025TIP3   OH278565   6.739   0.622   0.679  0.1683  0.3374  0.1104
19025TIP3    H178566   6.747   0.531   0.649  1.2816  0.7576 -0.9735
19025TIP3    H278567   6.689   0.665   0.610 -0.0170  0.6422  0.4315
19026TIP3   OH278568   3.745   2.025   2.203 -0.0628  0.0664 -0.1095
19026TIP3    H178569   3.756   2.113   2.240 -0.3507 -0.5271  1.4487
19026TIP3    H278570   3.769   1.966   2.274  1.3053 -1.1498 -1.5114
19027TIP3   OH278571   0.028   3.163  15.538 -0.2276  0.0335 -0.2332
19027TIP3    H178572   0.044   3.111  15.458  0.0146 -0.6374  0.2423
19027TIP3    H278573  -0.066   3.181  15.536 -0.1702  0.3227 -0.8452
19028TIP3   OH278574   3.890   5.304  12.648 -0.0521 -0.1501  0.1005
19028TIP3    H178575   3.868   5.319  12.556  0.2769  1.7745  0.3047
19028TIP3    H278576   3.806   5.304  12.693 -0.0657  1.6632  0.1365
19029TIP3   OH278577   0.567   4.551   4.255  0.4617 -0.1520 -0.5272
19029TIP3    H178578   0.555   4.494   4.179 -1.5456 -1.2695  0.5612
19029TIP3    H278579   0.635   4.507   4.306 -0.4666 -1.1656 -0.1209
19030TIP3   OH278580   5.907   4.044   5.023 -0.6341  0.0280  0.2263
19030TIP3    H178581   5.951   4.059   5.107  0.1596 -0.4981 -0.0835
19030TIP3    H278582   5.978   4.045   4.959 -1.0786 -0.7992 -0.2900
19031TIP3   OH278583   1.829   1.504  17.064  0.1529  0.1620  0.4504
19031TIP3    H178584   1.855   1.462  16.982  3.5547  1.8835  0.4663
19031TIP3    H278585   1.761   1.567  17.038  0.3022 -0.1723 -0.8325
19032TIP3   OH278586   5.452   1.651   6.232  0.3535 -0.5384 -0.2832
19032TIP3    H178587   5.511   1.726   6.226  0.2140 -0.2102  1.6435
19032TIP3    H278588   5.369   1.681   6.195 -0.7026  1.4508  3.2538
19033TIP3   OH278589   3.860   6.015   4.664 -0.7671  1.0647  0.3524
19033TIP3    H178590   3.809   5.981   4.737 -0.4499  1.6855  0.8809
19033TIP3    H278591   3.898   6.097   4.697  2.1788 -0.3030  0.6868
19034TIP3   OH278592   5.220   3.957   4.375 -0.2424  0.5133  0.0220
19034TIP3    H178593   5.194   3.894   4.307 -0.8144  0.8961 -0.1159
19034TIP3    H278594   5.153   3.948   4.443 -0.7851  1.5349 -0.3546
19035TIP3   OH278595   5.782   6.086  14.672 -0.0722  0.3505  0.3183
19035TIP3    H178596   5.756   5.995  14.682  1.5552 -0.1972 -0.0716
19035TIP3    H278597   5.832   6.088  14.590 -1.4949  1.9452 -0.5734
19036TIP3   OH278598   5.728   6.253   1.977  0.2072 -0.7703  0.2369
19036TIP3    H178599   5.642   6.236   1.939  0.9685 -1.0020 -1.4785
19036TIP3    H278600   5.771   6.312   1.915  1.5039 -1.1558  0.7286
19037TIP3   OH278601   3.250   6.454   6.609 -0.1099 -0.1341  0.2813
19037TIP3    H178602   3.243   6.373   6.559 -2.5981  0.7017 -0.8865
19037TIP3    H278603   3.199   6.518   6.559  0.9413  1.9095  1.6750
19038TIP3   OH278604   6.286   0.355   1.675 -0.4712  0.2639 -0.0233
19038TIP3    H178605   6.257   0.357   1.584  0.6247 -0.5141 -0.4106
19038TIP3    H278606   6.324   0.267   1.687  0.1175  0.6275  0.9427
19039TIP3   OH278607   5.036   0.715   1.137  0.2581  0.0323  0.1523
19039TIP3    H178608   4.945   0.718   1.108  0.6637 -0.3542 -1.1959
19039TIP3    H278609   5.044   0.791   1.195 -0.8232  0.2790  0.0067
19040TIP3   OH278610   3.337   6.009  15.307  0.6654 -0.3939 -0.0499
19040TIP3    H178611   3.244   6.020  15.288  0.4050 -0.2428  1.2248
19040TIP3    H278612   3.364   5.934  15.252 -0.2320 -0.5318 -0.3161
19041TIP3   OH278613   6.643   6.489  10.711  0.0876 -0.0798  0.3066
19041TIP3    H178614   6.621   6.404  10.750 -1.4896 -0.1304 -0.6122
19041TIP3    H278615   6.702   6.468  10.639 -0.4117 -0.4327 -0.0074
19042TIP3   OH278616   6.042   1.161  13.001  0.5621  0.2015  0.0419
19042TIP3    H178617   6.086   1.237  12.964  2.1205  0.0693  1.4817
19042TIP3    H278618   6.112   1.096  13.012 -0.1668 -0.3782  1.5163
19043TIP3   OH278619   3.319   2.392  13.759 -0.4587 -0.1304 -0.5296
19043TIP3    H178620   3.298   2.364  13.848 -0.2347 -1.7233 -0.9470
19043TIP3    H278621   3.312   2.488  13.762  1.0335  0.0096  1.6029
19044TIP3   OH278622   5.342   1.734  11.240 -0.3664 -0.2025 -0.1663
19044TIP3    H178623   5.257   1.707  11.205  0.2293 -1.7062 -0.5319
19044TIP3    H278624   5.385   1.778  11.166 -1.6228  2.5669  0.6399
19045TIP3   OH278625   3.773   0.572   0.467  0.1815  0.6292 -0.2102
19045TIP3    H178626   3.705   0.589   0.531 -0.2464  1.4187 -0.8552
19045TIP3    H278627   3.735   0.599   0.383  0.0780 -1.9607 -1.0984
19046TIP3   OH278628   5.964   0.774  13.303 -0.3453  0.2020  0.2305
19046TIP3    H178629   5.878   0.742  13.333  0.2761 -1.4441  0.3670
19046TIP3    H278630   5.994   0.706  13.243  1.8512 -0.4191  1.9132
19047TIP3   OH278631   6.132   2.475   4.596 -0.7431 -0.3745  0.0583
19047TIP3    H178632   6.216   2.495   4.638 -0.6683 -0.6413  0.0388
19047TIP3    H278633   6.067   2.521   4.650 -0.4222  1.4793 -1.0751
19048TIP3   OH278634   4.057   4.495  14.449  0.2723  0.1070  0.3282
19048TIP3    H178635   4.099   4.552  14.514  2.1039  0.5139 -1.1224
19048TIP3    H278636   4.104   4.513  14.367 -0.9811 -1.4466 -0.7998
19049TIP3   OH278637   3.175   2.715   3.114 -0.5705 -0.7521  0.4885
19049TIP3    H178638   3.108   2.662   3.156  0.8610 -1.7809  1.5672
19049TIP3    H278639   3.187   2.675   3.028 -1.2310 -0.6514  0.3474
19050TIP3   OH278640   4.847   6.365   2.934  0.0298 -0.4957  0.2402
19050TIP3    H178641   4.891   6.422   2.871  1.2848 -2.3815 -0.6784
19050TIP3    H278642   4.821   6.424   3.005 -0.0607  1.4472 -1.3051
19051TIP3   OH278643   4.635   3.218  14.639  0.1445  0.3326  0.1659
19051TIP3    H178644   4.581   3.294  14.662 -0.1477 -0.1370  1.0979
19051TIP3    H278645   4.722   3.255  14.624 -0.8199  1.4798 -3.8140
19052TIP3   OH278646   4.976   2.799   0.759  0.0936  0.0120 -0.2846
19052TIP3    H178647   4.919   2.813   0.683 -1.6727  0.7997  1.1391
19052TIP3    H278648   4.917   2.782   0.832  1.7942 -2.4658  0.6571
19053TIP3   OH278649   4.451   2.789  13.623  0.6208  0.0898 -0.9143
19053TIP3    H178650   4.472   2.704  13.662 -1.3649 -0.5896 -1.2289
19053TIP3    H278651   4.482   2.853  13.688  1.6510 -0.8563 -0.4297
19054TIP3   OH278652   1.554   2.225   5.037  0.0572 -0.2811  0.0957
19054TIP3    H178653   1.524   2.180   5.117 -1.6349  0.9294  0.2136
19054TIP3    H278654   1.499   2.304   5.033 -0.1412 -0.4791 -2.4525
19055TIP3   OH278655   1.028   6.384  13.552 -0.4402 -0.2139 -0.2462
19055TIP3    H178656   1.076   6.442  13.611  0.4341 -0.4325 -0.7166
19055TIP3    H278657   0.961   6.440  13.512  0.9613  0.7361 -1.3692
19056TIP3   OH278658   0.447   3.677  14.178  0.5211 -0.2484 -0.2966
19056TIP3    H178659   0.472   3.758  14.133  0.9280  0.4165  1.0813
19056TIP3    H278660   0.400   3.627  14.111  0.5969  0.9496 -1.2972
19057TIP3   OH278661   6.091   6.704   4.852  0.2349  0.3107  0.0840
19057TIP3    H178662   6.054   6.668   4.771  1.7633 -0.4030 -0.3307
19057TIP3    H278663   6.056   6.793   4.857 -1.0812 -0.1533 -0.5528
19058TIP3   OH278664   0.387   4.481   6.479  0.0529  0.5647 -0.2663
19058TIP3    H178665   0.413   4.546   6.543  1.2420  2.6181 -2.6459
19058TIP3    H278666   0.315   4.523   6.430  2.9121  1.7554 -3.9561
19059TIP3   OH278667   1.009   5.258  15.352  0.3784 -0.2045  0.7352
19059TIP3    H178668   0.944   5.293  15.413 -0.3597 -1.9278  0.9965
19059TIP3    H278669   1.075   5.218  15.408 -0.5566 -2.2443  0.4829
19060TIP3   OH278670   6.694   6.583   4.285 -0.1080  0.6278  0.0185
19060TIP3    H178671   6.664   6.617   4.369 -1.0278  1.1088 -0.4821
19060TIP3    H278672   6.629   6.616   4.222  1.7721  2.1664 -1.2080
19061TIP3   OH278673   5.297   2.370   0.733  0.3036  0.9784 -0.0661
19061TIP3    H178674   5.282   2.295   0.790  1.0011  0.9722  0.1269
19061TIP3    H278675   5.217   2.423   0.741  0.2707  0.8302  0.6983
19062TIP3   OH278676   0.815   1.043   4.780  0.0053 -0.3058 -0.4121
19062TIP3    H178677   0.892   1.005   4.738  0.3034 -0.8243  0.5774
19062TIP3    H278678   0.749   0.973   4.777  0.0901 -0.4149  0.1397
19063TIP3   OH278679   0.487   0.216   5.459 -0.1234  0.5141  0.6506
19063TIP3    H178680   0.567   0.195   5.410 -2.1346 -0.3578 -2.5205
19063TIP3    H278681   0.455   0.131   5.489 -0.9226  0.6039  0.0713
19064TIP3   OH278682   5.338   0.138  16.738 -0.3911 -0.3091  0.1076
19064TIP3    H178683   5.402   0.122  16.807 -0.6349 -0.4909  0.2895
19064TIP3    H278684   5.384   0.196  16.677 -0.1007 -0.3235  0.3085
19065TIP3   OH278685   6.485   2.624  12.834 -0.0164  0.5694 -0.2202
19065TIP3    H178686   6.526   2.708  12.852 -1.0402  1.4118 -1.6204
19065TIP3    H278687   6.488   2.615  12.738 -0.8542 -0.4951 -0.1725
19066TIP3   OH278688   5.894   1.281  14.236 -0.0324 -0.6255  0.0985
19066TIP3    H178689   5.966   1.278  14.172 -0.3318 -0.2984 -0.2617
19066TIP3    H278690   5.864   1.190  14.242 -1.4657 -0.3818 -1.9450
19067TIP3   OH278691   2.350   5.151  13.157 -0.0856 -0.5591 -0.1200
19067TIP3    H178692   2.255   5.157  13.163  0.0290  0.6899  0.9252
19067TIP3    H278693   2.368   5.147  13.063 -1.0380  3.1486 -0.6358
19068TIP3   OH278694   3.667   6.424   2.357  0.7770  0.2949  0.4692
19068TIP3    H178695   3.710   6.388   2.279  0.3287  0.7093  0.0143
19068TIP3    H278696   3.722   6.398   2.430  1.1688 -0.1699  0.0153
19069TIP3   OH278697   3.219   5.089   3.248  0.2955  0.2065 -0.3780
19069TIP3    H178698   3.160   5.113   3.319 -0.2449  1.1837 -1.1326
19069TIP3    H278699   3.244   4.998   3.266  1.3253  0.8648  1.8406
19070TIP3   OH278700   5.607   0.146   2.017 -0.3416 -0.0677  0.0003
19070TIP3    H178701   5.514   0.161   1.997  0.0257  1.2762 -0.8525
19070TIP3    H278702   5.640   0.233   2.038  0.9010 -0.4228 -0.4379
19071TIP3   OH278703   4.808   5.686  13.574  0.5446 -0.2634 -0.6262
19071TIP3    H178704   4.767   5.696  13.488  0.9618  0.7177 -0.7210
19071TIP3    H278705   4.845   5.772  13.593 -1.0900  0.0811  1.3493
19072TIP3   OH278706   1.265   0.530  16.784 -0.4332  0.2017 -0.1853
19072TIP3    H178707   1.294   0.547  16.694 -0.9048  0.8597 -0.2188
19072TIP3    H278708   1.232   0.614  16.815  0.6091  0.2059  0.9538
19073TIP3   OH278709   5.615   1.251  11.827 -0.1533 -0.0915  0.5507
19073TIP3    H178710   5.708   1.234  11.838 -0.3798 -1.3046  0.8411
19073TIP3    H278711   5.576   1.227  11.911 -0.9210 -1.3723 -0.1334
19074TIP3   OH278712   5.536   3.821  12.424 -0.2878 -0.2866 -0.0807
19074TIP3    H178713   5.552   3.762  12.351  2.0860 -2.0513  1.6933
19074TIP3    H278714   5.459   3.784  12.468 -0.2742 -0.6326 -0.3451
19075TIP3   OH278715   3.160   0.882   2.091 -1.2286  0.1868 -0.4533
19075TIP3    H178716   3.125   0.820   2.155  0.5647  0.4965  0.8898
19075TIP3    H278717   3.182   0.828   2.015 -1.0131 -0.6136  0.1641
19076TIP3   OH278718   6.692   2.058  13.848  0.9766  0.0197 -0.0162
19076TIP3    H178719   6.713   1.968  13.825  4.2915  0.8798 -0.9186
19076TIP3    H278720   6.763   2.084  13.907 -1.8286  1.0319  3.1983
19077TIP3   OH278721   6.163   0.518   5.812 -1.0709  0.3108 -0.8089
19077TIP3    H178722   6.081   0.526   5.862 -1.8662  0.8774 -2.1619
19077TIP3    H278723   6.136   0.483   5.727 -0.1135  1.9114 -1.8109
19078TIP3   OH278724   5.013   6.662   4.603 -0.6862 -0.2012  0.8151
19078TIP3    H178725   4.922   6.689   4.588 -0.2887  2.1674  2.1450
19078TIP3    H278726   5.015   6.638   4.696  0.1248  0.2117  0.9104
19079TIP3   OH278727   5.308   4.368  16.075  0.5417  0.1527 -0.2270
19079TIP3    H178728   5.214   4.378  16.060  0.0400 -3.5964 -0.7042
19079TIP3    H278729   5.343   4.338  15.991  2.0189  0.6833  0.1651
19080TIP3   OH278730   3.744   5.962  15.960 -0.3567 -0.4832  0.0327
19080TIP3    H178731   3.818   6.017  15.934  0.1445 -0.9762  0.3723
19080TIP3    H278732   3.711   5.927  15.878  0.7209 -1.4065 -0.0396
19081TIP3   OH278733   3.320   5.274   5.902  0.1196  0.0754  0.3093
19081TIP3    H178734   3.276   5.216   5.964 -0.1403  0.1078  0.1601
19081TIP3    H278735   3.262   5.275   5.826 -0.1363  0.9402  0.5113
19082TIP3   OH278736   2.447   3.570   1.057 -0.3562  0.0245  0.3122
19082TIP3    H178737   2.524   3.620   1.032 -0.7027  0.7337  0.6303
19082TIP3    H278738   2.379   3.598   0.996 -0.3715 -0.5870  0.0403
19083TIP3   OH278739   3.525   0.464   5.524  0.4369  1.1002 -0.0221
19083TIP3    H178740   3.619   0.473   5.539  0.9650  0.8100 -2.6744
19083TIP3    H278741   3.516   0.380   5.479 -1.1614  0.9729  0.4753
19084TIP3   OH278742   2.572   6.176   3.944 -0.6222 -0.3743  0.2434
19084TIP3    H178743   2.498   6.193   4.003 -0.5088  0.5456  0.1346
19084TIP3    H278744   2.533   6.137   3.866 -0.9086 -0.4978  0.4471
19085TIP3   OH278745   4.709   3.905  15.698 -0.3849  0.0184 -0.1080
19085TIP3    H178746   4.632   3.884  15.645  0.7695  0.0071 -1.8703
19085TIP3    H278747   4.754   3.973  15.649  1.3590 -0.8202  0.2386
19086TIP3   OH278748   2.575   4.980   3.423 -0.7379  0.5645 -0.2753
19086TIP3    H178749   2.542   5.054   3.371  0.3654  0.0403 -1.8029
19086TIP3    H278750   2.632   4.932   3.362  1.8329  0.7412  1.8475
19087TIP3   OH278751   1.526   5.857  13.466  0.6601 -0.3997  0.0556
19087TIP3    H178752   1.572   5.830  13.386  0.4274  0.0114 -0.2229
19087TIP3    H278753   1.460   5.789  13.479 -0.8853  0.7138 -1.4605
19088TIP3   OH278754   3.417   2.954  11.626  0.3955 -0.1958  0.6024
19088TIP3    H178755   3.386   2.993  11.544  1.0992  2.2524  1.4032
19088TIP3    H278756   3.511   2.940  11.611  1.3305  3.4037  1.9112
19089TIP3   OH278757   4.630   4.393  14.359  0.1500 -0.2212  0.3411
19089TIP3    H178758   4.663   4.303  14.356 -1.4080 -0.8040 -1.1441
19089TIP3    H278759   4.553   4.387  14.416 -0.4203 -0.0135 -0.4002
19090TIP3   OH278760   5.177   1.418  11.897  0.1898  0.3547 -0.2378
19090TIP3    H178761   5.194   1.500  11.943  0.9378 -0.2421  0.5900
19090TIP3    H278762   5.257   1.401  11.847  0.4776 -0.4036  0.4510
19091TIP3   OH278763   4.922   6.653   1.924 -0.1476  0.0913 -0.8118
19091TIP3    H178764   4.920   6.653   2.020 -0.3945  1.9638 -0.7644
19091TIP3    H278765   4.833   6.676   1.898 -0.4343 -1.7138 -1.5690
19092TIP3   OH278766   4.178   3.097  14.064 -0.8206  0.5210  0.5145
19092TIP3    H178767   4.181   3.046  14.144  0.0717  0.5839  0.5267
19092TIP3    H278768   4.157   3.034  13.995  0.6365  0.0585  0.4737
19093TIP3   OH278769   4.781   1.368   1.876 -0.2308  0.7021  0.0211
19093TIP3    H178770   4.799   1.461   1.859  1.6645  0.5687  1.0035
19093TIP3    H278771   4.865   1.325   1.865 -1.3948 -1.2407 -2.1172
19094TIP3   OH278772   2.170   2.504   3.099 -0.3854 -0.1187 -0.2675
19094TIP3    H178773   2.097   2.468   3.149  0.4331  0.0372  1.0728
19094TIP3    H278774   2.218   2.427   3.067 -0.6688 -0.2156 -0.4617
19095TIP3   OH278775   0.897   3.913   6.184  0.6010 -0.4169  0.7736
19095TIP3    H178776   0.903   4.007   6.201  1.4799 -0.7634  2.5504
19095TIP3    H278777   0.804   3.893   6.193  0.1390  0.5358 -1.3085
19096TIP3   OH278778   5.543   4.864   1.948  0.0896  0.4055  0.0696
19096TIP3    H178779   5.629   4.906   1.957  0.6478 -0.6611 -0.1027
19096TIP3    H278780   5.538   4.839   1.855 -0.6655  0.9813 -0.0548
19097TIP3   OH278781   0.460   5.697  12.027 -0.0377  0.3175  0.2254
19097TIP3    H178782   0.520   5.737  11.964 -0.7908  0.5497 -0.3700
19097TIP3    H278783   0.515   5.642  12.081  0.6556  0.1900 -0.5849
19098TIP3   OH278784   1.530   3.923  14.339 -0.1418  0.0296 -0.7386
19098TIP3    H178785   1.608   3.959  14.381  0.4333 -2.6388  0.7321
19098TIP3    H278786   1.532   3.830  14.362 -1.8030 -0.8667 -3.7291
19099TIP3   OH278787   0.311   5.086  16.275 -0.4630 -0.1311  0.2689
19099TIP3    H178788   0.400   5.068  16.306 -0.4985  0.4024  0.6909
19099TIP3    H278789   0.315   5.070  16.181  0.4365  1.1957  0.0503
19100TIP3   OH278790   5.477   3.571   5.802  0.3429 -0.6464 -0.1631
19100TIP3    H178791   5.500   3.530   5.886  0.3398 -0.2466  0.0352
19100TIP3    H278792   5.552   3.628   5.782  0.1520 -0.4144 -0.2166
19101TIP3   OH278793   1.255   0.045   0.694 -0.0184 -0.1688 -0.3215
19101TIP3    H178794   1.249  -0.045   0.726 -1.4308  0.2669  0.7377
19101TIP3    H278795   1.258   0.098   0.774 -2.2618  0.8877 -0.8843
19102TIP3   OH278796   4.982   6.285  15.008  0.1398  0.4917  0.0445
19102TIP3    H178797   4.933   6.326  15.079  0.5899 -1.4231  1.5132
19102TIP3    H278798   4.963   6.340  14.932 -2.2918  1.2033  1.0860
19103TIP3   OH278799   1.467   3.962   4.747 -0.3737 -0.8227 -0.7136
19103TIP3    H178800   1.387   3.971   4.694 -0.7274  0.2990 -0.0384
19103TIP3    H278801   1.535   4.004   4.694 -0.1827 -1.8944 -1.3482
19104TIP3   OH278802   1.199   1.188  11.585 -0.2317 -0.9840 -0.5935
19104TIP3    H178803   1.152   1.145  11.656 -1.9233  1.1740 -0.3070
19104TIP3    H278804   1.137   1.189  11.512 -0.4774  1.3346 -0.4193
19105TIP3   OH278805   4.681   2.151  13.112 -0.4898  0.2713 -0.3058
19105TIP3    H178806   4.657   2.244  13.110  0.3772  0.5211  0.5219
19105TIP3    H278807   4.615   2.111  13.168  0.7778  0.9125  1.7476
19106TIP3   OH278808   3.783   5.427   4.608  0.0234 -0.3172  0.6248
19106TIP3    H178809   3.763   5.338   4.581 -0.3761 -0.3474  1.0169
19106TIP3    H278810   3.786   5.423   4.704  2.9896 -0.5674  0.6201
19107TIP3   OH278811   5.009   5.899  13.999 -0.1206  0.3062  0.3156
19107TIP3    H178812   5.000   5.960  13.926  1.0376  0.8101  0.5685
19107TIP3    H278813   5.103   5.889  14.011 -0.2933 -0.6087  1.0555
19108TIP3   OH278814   2.756   1.548   3.621 -0.1637 -0.1811  0.6843
19108TIP3    H178815   2.846   1.529   3.647 -0.0477  0.4776  0.7872
19108TIP3    H278816   2.735   1.482   3.556  0.5613 -0.0533  0.3107
19109TIP3   OH278817   6.038   3.422   3.377  0.4803 -0.0431 -0.1836
19109TIP3    H178818   5.995   3.374   3.307 -0.0207  0.8983 -0.5426
19109TIP3    H278819   6.086   3.491   3.332  3.0702 -1.5228  0.1339
19110TIP3   OH278820   6.587   3.449  11.957 -0.2749  0.0314 -0.5481
19110TIP3    H178821   6.541   3.532  11.946  0.4122  0.1540 -3.1566
19110TIP3    H278822   6.668   3.472  12.003  0.9329  1.2963 -3.0809
19111TIP3   OH278823   1.990   6.014   3.870  0.7194  0.0270 -0.1943
19111TIP3    H178824   1.969   6.090   3.925 -1.1399 -1.0720  0.6956
19111TIP3    H278825   1.972   6.044   3.781 -1.7775  0.1392  0.2817
19112TIP3   OH278826   3.278   5.013  11.418  0.0051  0.0867 -0.1607
19112TIP3    H178827   3.272   4.985  11.509  1.8874 -1.5132 -0.4701
19112TIP3    H278828   3.189   5.042  11.396 -0.5250  0.3775  2.1054
19113TIP3   OH278829   5.935   2.675   5.281  0.2679 -0.3811 -0.3231
19113TIP3    H178830   6.025   2.707   5.276 -0.2430  1.5811  1.5559
19113TIP3    H278831   5.931   2.628   5.365 -0.3930 -0.7397 -0.5442
19114TIP3   OH278832   1.280   0.029   1.983  0.0733 -0.6179  0.2333
19114TIP3    H178833   1.298   0.080   2.062 -1.4991  1.9812 -0.9641
19114TIP3    H278834   1.228  -0.045   2.015  0.3472 -0.1956  1.7539
19115TIP3   OH278835   4.261   2.058  14.526  0.5213 -0.0179  0.4404
19115TIP3    H178836   4.228   1.978  14.568 -0.5207 -0.2785 -0.8339
19115TIP3    H278837   4.234   2.128  14.585 -0.4510 -0.4232  0.4872
19116TIP3   OH278838   4.040   4.040   3.885  0.6848  0.3362 -0.1261
19116TIP3    H178839   4.003   4.114   3.933 -0.0206 -0.8461  1.2667
19116TIP3    H278840   4.059   4.074   3.798 -2.3705  1.4346 -0.4986
19117TIP3   OH278841   5.177   0.049  13.935  0.0753  0.2188 -0.0884
19117TIP3    H178842   5.192   0.136  13.972  0.5281  0.4706 -0.8415
19117TIP3    H278843   5.264   0.020  13.905 -0.2555 -0.0221 -0.8413
19118TIP3   OH278844   3.410   0.680   1.022  0.2649 -0.4719  0.9803
19118TIP3    H178845   3.347   0.652   1.088  0.3120  0.0150  1.2329
19118TIP3    H278846   3.407   0.611   0.956 -2.4086  0.7579 -0.3314
19119TIP3   OH278847   4.515   3.387   0.162 -0.0271 -0.4119 -0.1715
19119TIP3    H178848   4.480   3.301   0.141  1.3839 -0.6589 -1.6448
19119TIP3    H278849   4.608   3.371   0.181  0.1617  0.7399 -0.0718
19120TIP3   OH278850   3.194   2.686   5.692 -0.7340 -0.3464 -0.2637
19120TIP3    H178851   3.175   2.665   5.600 -0.5912  0.4627 -0.4904
19120TIP3    H278852   3.284   2.719   5.690 -0.9095  0.1582  0.0834
19121TIP3   OH278853   3.931   5.330   6.689  0.2894 -0.1937  0.2528
19121TIP3    H178854   3.964   5.352   6.776  4.3058 -0.4739 -1.0194
19121TIP3    H278855   3.920   5.235   6.690  1.0637 -0.2854  0.2511
19122TIP3   OH278856   6.015   0.776  17.014 -0.4434 -0.0991 -0.2215
19122TIP3    H178857   6.016   0.835  17.089  1.4210  0.5422 -0.7010
19122TIP3    H278858   5.937   0.721  17.027 -1.2770  1.3258  1.1126
19123TIP3   OH278859   4.472   5.071   0.442 -0.4667  0.0758 -0.1640
19123TIP3    H178860   4.552   5.039   0.399  0.0826 -0.5637  1.2855
19123TIP3    H278861   4.490   5.063   0.535 -2.1949  0.0524  0.1953
19124TIP3   OH278862   1.076   0.621   6.691 -0.5206 -0.0589 -0.1012
19124TIP3    H178863   1.114   0.596   6.607 -0.2365 -1.8368  0.5242
19124TIP3    H278864   1.081   0.717   6.692 -0.6197  0.0054 -2.1325
19125TIP3   OH278865   4.993   0.460  11.889 -0.0340  0.1842  0.1495
19125TIP3    H178866   5.086   0.448  11.906  0.6610  1.9975 -1.8925
19125TIP3    H278867   4.982   0.436  11.796 -1.0478  2.3613 -0.3586
19126TIP3   OH278868   1.326   0.488   4.175 -0.8086  0.5876  0.3197
19126TIP3    H178869   1.232   0.471   4.184 -0.8545 -0.4772 -1.6742
19126TIP3    H278870   1.360   0.485   4.265 -2.4379 -0.5233  0.9363
19127TIP3   OH278871   5.930   6.253  15.262 -0.5338 -0.2089 -0.2807
19127TIP3    H178872   5.904   6.303  15.339  0.7696 -1.6832  1.1790
19127TIP3    H278873   6.025   6.263  15.257 -0.4580 -1.1030 -0.9980
19128TIP3   OH278874   6.526   4.773   0.564 -0.3945  0.1717  0.6037
19128TIP3    H178875   6.573   4.715   0.504  0.0318  1.3948 -0.2778
19128TIP3    H278876   6.468   4.824   0.508  1.3545  2.6804  0.9066
19129TIP3   OH278877   5.953   2.126   0.558  0.0782 -0.6573  0.1355
19129TIP3    H178878   5.997   2.171   0.630 -0.0184  0.4708 -0.4765
19129TIP3    H278879   5.943   2.194   0.490  1.0587 -1.9175 -1.3316
19130TIP3   OH278880   3.036   0.273   0.598 -0.4882 -0.1906 -0.1146
19130TIP3    H178881   2.961   0.274   0.658 -1.5889 -1.0194 -1.4047
19130TIP3    H278882   3.067   0.364   0.596 -1.9603  0.3404 -0.1208
19131TIP3   OH278883   3.378   4.502   3.867  0.6206 -0.2722 -0.1858
19131TIP3    H178884   3.380   4.407   3.858 -0.5119 -0.1206 -3.2758
19131TIP3    H278885   3.451   4.533   3.812 -0.6121  0.6547 -1.3799
19132TIP3   OH278886   0.789   4.707  10.758 -0.5579 -0.5857 -0.4759
19132TIP3    H178887   0.759   4.620  10.784  0.5316 -1.4997 -2.1088
19132TIP3    H278888   0.763   4.764  10.831 -0.1952 -2.4635  1.2174
19133TIP3   OH278889   3.145   0.884  17.243 -0.0857 -0.0819 -0.6991
19133TIP3    H178890   3.088   0.927  17.179  0.6276  1.0249 -0.6113
19133TIP3    H278891   3.228   0.931  17.237  0.5891 -1.1749 -0.2810
19134TIP3   OH278892   6.211   2.593   2.023  0.8128 -0.0693 -0.0765
19134TIP3    H178893   6.145   2.539   1.980 -1.3639  0.7480  2.0053
19134TIP3    H278894   6.250   2.536   2.088  0.6208  0.0421  0.1372
19135TIP3   OH278895   3.483   1.253  14.200  0.3402 -0.0294  0.2554
19135TIP3    H178896   3.390   1.257  14.178  0.7216  2.7955 -1.3181
19135TIP3    H278897   3.523   1.209  14.125  0.3796 -0.6249  0.6185
19136TIP3   OH278898   1.260   4.974  13.284  0.5353 -0.4529  0.2788
19136TIP3    H178899   1.333   4.965  13.222  0.9426 -0.4547  0.7566
19136TIP3    H278900   1.300   4.968  13.370 -0.0353 -0.4751  0.5501
19137TIP3   OH278901   0.949   3.017   0.107 -0.0204 -0.0980  0.6901
19137TIP3    H178902   0.928   2.939   0.056  0.6030  0.3559 -0.3100
19137TIP3    H278903   0.934   3.090   0.047  1.2360  0.4260  0.9631
19138TIP3   OH278904   4.873   2.229   0.439  0.1221 -0.0846 -0.3415
19138TIP3    H178905   4.906   2.140   0.450  0.0321 -0.1519 -0.6034
19138TIP3    H278906   4.892   2.251   0.348  0.7237  0.4029 -0.1052
19139TIP3   OH278907   4.557   2.291  11.762 -0.2268 -0.4484  0.3205
19139TIP3    H178908   4.484   2.229  11.754 -1.2495  0.8216 -0.6403
19139TIP3    H278909   4.543   2.332  11.847 -1.5815  0.8890 -0.5031
19140TIP3   OH278910   1.451   5.197   3.113 -0.0469 -0.5956 -0.0605
19140TIP3    H178911   1.369   5.170   3.071 -0.9519 -1.3859  2.0675
19140TIP3    H278912   1.428   5.278   3.160  0.2601 -1.0424  0.8840
19141TIP3   OH278913   2.467   0.519   3.036 -0.0770 -0.0894 -1.2200
19141TIP3    H178914   2.543   0.471   3.000 -0.4606  0.9699 -3.6561
19141TIP3    H278915   2.393   0.488   2.984 -0.6747  1.5886 -1.4143
19142TIP3   OH278916   1.239   3.749  10.730  1.1521  0.1099  0.7069
19142TIP3    H178917   1.156   3.756  10.778  1.1681 -0.1942  0.7800
19142TIP3    H278918   1.249   3.834  10.687  0.6564  0.0447  0.4602
19143TIP3   OH278919   2.611   5.557  14.330 -0.7509  0.6388  0.0335
19143TIP3    H178920   2.536   5.501  14.310  0.0888 -1.1613  1.6061
19143TIP3    H278921   2.591   5.640  14.287 -1.8676 -0.9470 -2.7994
19144TIP3   OH278922   6.013   3.890  15.889  0.2672 -0.0085  0.3510
19144TIP3    H178923   5.919   3.907  15.882 -0.2832 -3.0388 -1.3844
19144TIP3    H278924   6.047   3.902  15.800  1.0879 -1.0764  0.5011
19145TIP3   OH278925   2.767   0.389  14.615  0.6085 -0.2834 -0.1657
19145TIP3    H178926   2.863   0.383  14.617  0.7312  1.0764 -0.9364
19145TIP3    H278927   2.740   0.379  14.706  1.4990 -0.4694  0.0881
19146TIP3   OH278928   3.955   2.909   0.676 -0.4283 -0.1555  0.5849
19146TIP3    H178929   4.043   2.876   0.693 -0.5269 -0.4171  0.5947
19146TIP3    H278930   3.954   2.927   0.582 -0.9142 -1.8333  0.2368
19147TIP3   OH278931   3.870   0.949   0.769  0.1686 -0.2226 -0.4339
19147TIP3    H178932   3.777   0.943   0.794  0.5129 -0.6585  0.8340
19147TIP3    H278933   3.870   0.936   0.675 -1.2328  1.5616 -0.7590
19148TIP3   OH278934   0.432   1.230   2.021 -0.1003 -0.2892  0.2703
19148TIP3    H178935   0.513   1.281   2.027  1.6303 -2.5198 -2.0492
19148TIP3    H278936   0.448   1.154   2.077  0.3073 -1.7280 -1.7116
19149TIP3   OH278937   5.581   5.998  13.203  0.7181 -0.1344  0.1020
19149TIP3    H178938   5.634   5.921  13.218  1.0118 -0.3083 -1.6920
19149TIP3    H278939   5.528   5.977  13.126  0.1610  1.1263  0.1106
19150TIP3   OH278940   5.758   0.214  11.893  0.1745  0.0728  0.1429
19150TIP3    H178941   5.842   0.180  11.924  0.9098 -0.2487 -2.0468
19150TIP3    H278942   5.698   0.139  11.901  0.3211  0.0267  0.8438
19151TIP3   OH278943   1.637   2.084  13.766  0.7984 -0.3645 -0.2202
19151TIP3    H178944   1.571   2.037  13.714 -0.8030 -0.1049  1.4674
19151TIP3    H278945   1.707   2.104  13.704 -1.9169  1.7864 -2.8525
19152TIP3   OH278946   3.746   1.930  14.518  0.8057  0.4330 -0.0765
19152TIP3    H178947   3.708   1.954  14.433 -0.3203 -0.8580  0.0377
19152TIP3    H278948   3.671   1.913  14.574  1.5434 -0.7172  0.5953
19153TIP3   OH278949   4.578   3.950  11.445  0.2106  0.1316 -0.3037
19153TIP3    H178950   4.663   3.958  11.403  0.9839 -0.0407  1.1617
19153TIP3    H278951   4.545   3.865  11.417  0.6427  0.0731 -0.6474
19154TIP3   OH278952   1.544   6.634   5.540  0.6732  0.6252  0.2822
19154TIP3    H178953   1.495   6.616   5.460  0.5289  1.3742  0.1961
19154TIP3    H278954   1.480   6.623   5.611  1.3219 -2.3100  0.5319
19155TIP3   OH278955   6.071   3.510  11.691  0.4336  0.2618 -0.0836
19155TIP3    H178956   6.131   3.494  11.619  0.2051 -1.6412  0.1011
19155TIP3    H278957   6.117   3.479  11.769  0.3408  1.4990  0.4898
19156TIP3   OH278958   2.414   2.651   5.445 -0.2171  0.3112 -0.1891
19156TIP3    H178959   2.453   2.682   5.527  0.1852 -1.6192  0.3965
19156TIP3    H278960   2.482   2.663   5.380 -0.2671  1.1362 -0.1036
19157TIP3   OH278961   4.889   4.326   2.043  0.5106  0.0376  0.0608
19157TIP3    H178962   4.910   4.338   1.950 -0.1749 -0.4508 -0.1638
19157TIP3    H278963   4.964   4.364   2.089  1.0609 -0.1081 -0.6915
19158TIP3   OH278964   5.271   0.772   5.461  0.5082 -0.3935  0.1242
19158TIP3    H178965   5.285   0.795   5.553 -0.1972 -0.6688  0.3029
19158TIP3    H278966   5.176   0.779   5.449  0.6152 -0.2136 -0.6246
19159TIP3   OH278967   4.451   3.487  13.273 -0.3411  0.4427 -0.1982
19159TIP3    H178968   4.480   3.545  13.343 -0.3247 -0.1553  0.3037
19159TIP3    H278969   4.357   3.501  13.267 -0.8083 -1.3409  1.7271
19160TIP3   OH278970   1.414   2.137  16.818 -0.0245 -0.6652 -0.0417
19160TIP3    H178971   1.360   2.187  16.756  0.6862  1.2698  0.8345
19160TIP3    H278972   1.428   2.197  16.891 -0.1854 -2.6125  1.6683
19161TIP3   OH278973   1.463   1.491   2.086 -0.3346  0.0417 -0.0368
19161TIP3    H178974   1.466   1.408   2.132 -2.4037 -0.7858 -1.2815
19161TIP3    H278975   1.441   1.555   2.153 -0.6118 -0.7099  0.5944
19162TIP3   OH278976   1.666   4.403  13.041 -0.3705  0.5100  0.6216
19162TIP3    H178977   1.671   4.315  13.078  1.6077  0.5338  0.5340
19162TIP3    H278978   1.582   4.406  12.997 -0.1698 -1.6032 -0.0026
19163TIP3   OH278979   1.951   4.677  15.121 -0.1764 -0.3017 -0.1492
19163TIP3    H178980   1.916   4.764  15.138  0.5734 -0.3944  2.2785
19163TIP3    H278981   1.873   4.620  15.118 -0.5643  0.2264 -0.2854
19164TIP3   OH278982   0.550   5.803  17.000 -0.0270 -0.0971  0.5122
19164TIP3    H178983   0.486   5.759  16.944  0.8867  1.6602 -2.1047
19164TIP3    H278984   0.504   5.879  17.034  0.1332  0.1605  0.1532
19165TIP3   OH278985   2.078   3.824  11.080 -0.0013  0.6726  0.5494
19165TIP3    H178986   2.019   3.892  11.111 -1.5894  0.1602 -1.1944
19165TIP3    H278987   2.083   3.838  10.985 -1.6319 -2.4908 -0.1318
19166TIP3   OH278988   6.678   0.828   1.230  0.3912  0.1271 -0.8347
19166TIP3    H178989   6.696   0.814   1.324  0.0177 -1.7617 -1.0021
19166TIP3    H278990   6.739   0.898   1.205  0.6929  0.4871  0.7455
19167TIP3   OH278991   2.468   0.120   2.516 -0.0424  0.3214 -0.2196
19167TIP3    H178992   2.375   0.096   2.519 -0.4723  1.8449 -0.5068
19167TIP3    H278993   2.503   0.071   2.442 -0.6596 -0.1382 -0.2135
19168TIP3   OH278994   0.237   3.208   0.894  0.3479  0.1359 -0.3306
19168TIP3    H178995   0.216   3.120   0.863  2.1498  0.1837 -1.8763
19168TIP3    H278996   0.331   3.204   0.915  0.8899  2.0884 -2.1011
19169TIP3   OH278997   2.523   2.014   2.952  0.2706 -0.3157 -0.2955
19169TIP3    H178998   2.442   1.962   2.955  1.1328 -1.9008 -2.1994
19169TIP3    H278999   2.501   2.090   2.898 -0.3461  0.0768  0.4897
19170TIP3   OH279000   1.118   0.693   6.418 -0.2295 -0.0611 -0.1223
19170TIP3    H179001   1.089   0.638   6.345 -1.1549  0.8806 -0.4894
19170TIP3    H279002   1.051   0.761   6.424  0.3685  0.4444  0.9686
19171TIP3   OH279003   1.367   3.787  15.470 -0.1347 -0.1061 -0.3221
19171TIP3    H179004   1.297   3.726  15.490  0.3235 -0.0325  1.7691
19171TIP3    H279005   1.445   3.748  15.511  0.7575  0.4952 -1.3862
19172TIP3   OH279006   3.587   2.521  16.843 -0.2491  0.4941  0.0504
19172TIP3    H179007   3.514   2.461  16.831 -0.5054  0.6854  0.6145
19172TIP3    H279008   3.608   2.551  16.755  0.3445 -0.9535 -0.3455
19173TIP3   OH279009   5.744   2.225   4.048 -0.4267 -0.5003 -0.7597
19173TIP3    H179010   5.829   2.187   4.028 -0.3460 -1.2175  0.8112
19173TIP3    H279011   5.725   2.197   4.137 -1.8649  0.4725 -0.7178
19174TIP3   OH279012   0.945   3.012  12.755  0.2495 -0.5822 -0.7033
19174TIP3    H179013   0.988   2.993  12.672  2.9128  0.0370  0.4311
19174TIP3    H279014   0.973   2.941  12.813 -2.1295 -1.3924 -0.4252
19175TIP3   OH279015   5.565   3.016  14.324  0.1231  0.1427 -0.1344
19175TIP3    H179016   5.495   2.976  14.376 -0.9088  0.5358 -1.1691
19175TIP3    H279017   5.631   2.947  14.315  0.5985  0.2209  2.0845
19176TIP3   OH279018   0.490   1.349   5.878  0.8647  0.3048 -0.5928
19176TIP3    H179019   0.465   1.277   5.937 -1.6792 -1.1355 -3.1881
19176TIP3    H279020   0.582   1.333   5.860  1.3910  0.0668  1.9161
19177TIP3   OH279021   5.514   4.232  14.206 -0.0774 -0.2432  0.0110
19177TIP3    H179022   5.449   4.164  14.190 -0.1722 -0.3990  1.0092
19177TIP3    H279023   5.596   4.195  14.172 -0.3951 -0.2683 -0.7447
19178TIP3   OH279024   2.093   2.896   5.139 -0.1355  0.4025 -0.2000
19178TIP3    H179025   2.143   2.963   5.092  2.2676 -1.8827 -1.1334
19178TIP3    H279026   2.154   2.862   5.204 -1.3746 -0.6698  0.4419
19179TIP3   OH279027   3.160   5.837   0.955 -0.1949 -0.0916  0.0724
19179TIP3    H179028   3.163   5.890   0.876  0.2758 -0.9483 -0.4974
19179TIP3    H279029   3.097   5.881   1.011 -0.2003  0.7713 -0.6011
19180TIP3   OH279030   2.358   0.199   3.429  0.4223  0.1275  0.9332
19180TIP3    H179031   2.330   0.254   3.502  0.0005  1.0562  0.0909
19180TIP3    H279032   2.432   0.246   3.390 -0.9580  0.9930 -0.7935
19181TIP3   OH279033   0.988   0.544   6.198  0.1382 -0.1850 -0.2779
19181TIP3    H179034   0.895   0.543   6.176  0.4585 -2.2729 -1.8666
19181TIP3    H279035   1.032   0.537   6.113  1.6893 -0.7575  0.5399
19182TIP3   OH279036   4.237   5.615   1.130  0.5987 -0.5474 -0.2491
19182TIP3    H179037   4.174   5.597   1.200  0.6661  1.6603  0.4808
19182TIP3    H279038   4.320   5.629   1.176 -0.0440  4.9275 -0.0130
19183TIP3   OH279039   3.157   3.344   1.738  0.3214 -0.5476  0.0249
19183TIP3    H179040   3.251   3.328   1.750  0.5517  0.7563  0.1356
19183TIP3    H279041   3.147   3.355   1.644  0.5576  0.7620  0.1312
19184TIP3   OH279042   0.547   4.762   1.094  0.6565 -0.5853 -0.1066
19184TIP3    H179043   0.568   4.832   1.032 -1.7653 -0.7238 -1.2176
19184TIP3    H279044   0.559   4.681   1.044 -0.2795 -0.7473 -0.0895
19185TIP3   OH279045   4.676   4.478  16.571 -0.3603 -0.1963 -0.2722
19185TIP3    H179046   4.582   4.463  16.559 -0.3068 -0.3191 -0.5307
19185TIP3    H279047   4.680   4.551  16.633 -0.6269 -0.0368 -0.4396
19186TIP3   OH279048   6.006   4.455   1.176  0.2075  0.2083  0.1330
19186TIP3    H179049   6.017   4.512   1.252 -2.8988  0.0655  0.8354
19186TIP3    H279050   6.023   4.513   1.101  0.2945  1.1811  0.8785
19187TIP3   OH279051   5.126   3.367  16.773  0.7143 -0.0245  0.2406
19187TIP3    H179052   5.049   3.376  16.830  0.0518  0.4994 -0.7193
19187TIP3    H279053   5.188   3.432  16.807 -0.3021  1.4423 -0.6053
19188TIP3   OH279054   2.545   2.361  12.111 -0.3528  0.0145 -0.2603
19188TIP3    H179055   2.612   2.418  12.076 -0.2801 -0.3122 -0.6608
19188TIP3    H279056   2.535   2.388  12.203  2.3908 -1.7977  0.7010
19189TIP3   OH279057   2.633   3.294   2.921 -0.1740  0.5642  0.2073
19189TIP3    H179058   2.657   3.378   2.961 -1.4229  1.7896 -1.4864
19189TIP3    H279059   2.542   3.281   2.946  0.2291 -0.7139  1.0994
19190TIP3   OH279060   4.126   2.097  14.848  0.0454  0.1933 -0.1810
19190TIP3    H179061   4.110   2.191  14.857  2.0026  0.7712 -1.8610
19190TIP3    H279062   4.045   2.062  14.811 -0.1434  1.5455 -1.1568
19191TIP3   OH279063   0.315   0.555   6.408  1.2944  0.5900 -0.0126
19191TIP3    H179064   0.316   0.619   6.479  1.1715  0.1263  0.4135
19191TIP3    H279065   0.406   0.526   6.401  1.1694  0.0707  0.4774
19192TIP3   OH279066   5.406   1.020  10.714  0.5253 -0.2152 -0.3454
19192TIP3    H179067   5.465   0.948  10.737  0.1589 -0.4456 -0.1261
19192TIP3    H279068   5.327   1.004  10.766  0.1273 -0.1107 -0.9089
19193TIP3   OH279069   3.343   5.775   3.413 -0.3365  0.2141  0.3933
19193TIP3    H179070   3.433   5.744   3.402 -0.6214 -0.6804  0.5669
19193TIP3    H279071   3.293   5.731   3.345 -0.5462  1.1899 -0.1097
19194TIP3   OH279072   0.409   4.809   1.322 -0.0977  0.0596  0.2521
19194TIP3    H179073   0.376   4.899   1.316 -1.6040 -0.5036 -0.5241
19194TIP3    H279074   0.445   4.791   1.235  0.7454  0.1022  0.5872
19195TIP3   OH279075   0.623   0.487   3.484  0.3356 -0.3416 -0.7117
19195TIP3    H179076   0.688   0.531   3.429  0.1495 -0.5732 -1.1225
19195TIP3    H279077   0.603   0.406   3.437 -2.6938  1.1998 -2.3539
19196TIP3   OH279078   3.499   6.443   3.595 -0.3439 -0.2591 -0.0716
19196TIP3    H179079   3.407   6.431   3.569 -0.2201 -0.6843 -0.3321
19196TIP3    H279080   3.497   6.511   3.662 -0.7085  0.6992 -1.0249
19197TIP3   OH279081   2.338   0.522   5.086  0.5395  0.1288 -0.2195
19197TIP3    H179082   2.309   0.573   5.010  1.1301  0.3638 -0.2927
19197TIP3    H279083   2.258   0.480   5.118  0.1838  0.4708 -0.6351
19198TIP3   OH279084   1.658   2.327  12.195  0.7379 -0.0665  0.4027
19198TIP3    H179085   1.735   2.347  12.248 -0.3362  2.1756  1.2758
19198TIP3    H279086   1.676   2.368  12.110  0.2412  1.1605  0.8607
19199TIP3   OH279087   2.566   2.938   5.596 -0.7141  0.1718  0.7809
19199TIP3    H179088   2.580   2.948   5.502  0.6136  0.5721  0.9947
19199TIP3    H279089   2.653   2.947   5.635 -1.3116  0.6273  2.1018
19200TIP3   OH279090   2.233   1.838   5.339 -0.2643 -1.0656 -0.3540
19200TIP3    H179091   2.202   1.835   5.429 -0.9034 -0.6820 -0.5582
19200TIP3    H279092   2.197   1.759   5.298 -2.2593  0.1062 -0.9862
19201TIP3   OH279093   0.867   2.571   5.299  0.2169  0.0943  0.6312
19201TIP3    H179094   0.837   2.480   5.304 -2.1155  0.8543  1.9653
19201TIP3    H279095   0.952   2.570   5.343  0.3513 -1.4724  0.4071
19202TIP3   OH279096   4.338   0.206  10.948 -0.0620 -0.0745 -0.1956
19202TIP3    H179097   4.253   0.174  10.915  0.2443 -0.7240 -0.3706
19202TIP3    H279098   4.366   0.271  10.883 -1.0980  1.2300  0.6047
19203TIP3   OH279099   3.943   0.164   4.460  1.0388  0.4857 -0.1587
19203TIP3    H179100   3.912   0.108   4.531  0.0479  0.6975 -0.4061
19203TIP3    H279101   3.863   0.193   4.415  1.5760  1.3742 -0.5789
19204TIP3   OH279102   2.026   1.234   4.751  0.1555 -0.0500 -0.2651
19204TIP3    H179103   2.110   1.204   4.718  1.1461  0.3044  1.7892
19204TIP3    H279104   2.035   1.329   4.757  0.3064 -0.1602  1.6801
19205TIP3   OH279105   1.010   5.421   3.676 -0.4962 -0.9710 -0.2815
19205TIP3    H179106   0.965   5.361   3.736  0.4138 -0.1126  1.2970
19205TIP3    H279107   0.965   5.504   3.688 -0.0765 -0.7077 -0.5269
19206TIP3   OH279108   3.964   5.487  11.441 -0.0358  0.7571  0.1798
19206TIP3    H179109   3.920   5.475  11.525 -0.2448 -0.1179 -0.0461
19206TIP3    H279110   4.048   5.528  11.464  0.1090  0.1056  0.8595
19207TIP3   OH279111   3.935   4.180  14.027  0.1738  0.0417  0.3799
19207TIP3    H179112   3.918   4.233  14.105  1.1334  1.6342 -0.4323
19207TIP3    H279113   3.988   4.237  13.971 -0.9528 -0.8291 -1.6791
19208TIP3   OH279114   1.836   2.238   3.477 -0.0107  0.2706 -0.0744
19208TIP3    H179115   1.878   2.290   3.409 -0.7935  0.2557 -0.5872
19208TIP3    H279116   1.810   2.157   3.433  0.8741 -0.4282  0.6272
19209TIP3   OH279117   1.689   4.471   6.714  0.4490  0.0428 -0.1735
19209TIP3    H179118   1.617   4.432   6.665 -0.5008 -0.7125  1.6989
19209TIP3    H279119   1.685   4.564   6.692 -1.7966  0.2032  0.6388
19210TIP3   OH279120   2.272   0.485   6.151  0.7306 -0.1822  0.2088
19210TIP3    H179121   2.358   0.525   6.169  0.0475  0.5394  2.0906
19210TIP3    H279122   2.210   0.557   6.158 -0.2238 -1.0299  0.7004
19211TIP3   OH279123   2.213   1.535  15.576  0.3388  0.3970  0.2798
19211TIP3    H179124   2.211   1.499  15.664 -1.1171 -0.5770 -0.1043
19211TIP3    H279125   2.292   1.589  15.573  0.4298  0.4154  2.1485
19212TIP3   OH279126   5.052   1.664   1.393 -0.4833 -0.1866  0.3864
19212TIP3    H179127   5.040   1.743   1.446  0.2239 -0.5702  1.1190
19212TIP3    H279128   5.079   1.698   1.307  1.8300  0.3484  1.2389
19213TIP3   OH279129   4.879   6.033   4.833  0.0820 -0.6411 -0.5994
19213TIP3    H179130   4.942   5.969   4.865 -0.6168 -0.7675  0.5736
19213TIP3    H279131   4.928   6.115   4.827  1.0222 -1.2696 -2.2479
19214TIP3   OH279132   6.767   5.007   2.251 -0.2198  0.1954 -0.0135
19214TIP3    H179133   6.771   4.951   2.173 -2.3928  0.5675 -0.4486
19214TIP3    H279134   6.732   4.950   2.319  0.7011  0.1499  0.4275
19215TIP3   OH279135   4.202   3.558   0.163 -0.2843 -1.0227 -0.2118
19215TIP3    H179136   4.147   3.622   0.207  1.0387 -0.4966  0.7531
19215TIP3    H279137   4.256   3.520   0.232  2.4143  0.3728 -1.3925
19216TIP3   OH279138   4.796   3.173   1.510 -0.0834  0.4314 -0.0943
19216TIP3    H179139   4.736   3.101   1.492  2.2741 -1.4744 -0.9541
19216TIP3    H279140   4.824   3.204   1.424 -0.2415  1.7001  0.2830
19217TIP3   OH279141   6.259   3.577   2.097  0.0568  0.2075 -0.0289
19217TIP3    H179142   6.236   3.623   2.178  0.3855 -1.1966  0.9077
19217TIP3    H279143   6.209   3.496   2.101 -0.8974  0.6540 -1.8790
19218TIP3   OH279144   6.298   2.919  12.314 -0.3501  0.0709  0.0025
19218TIP3    H179145   6.281   3.011  12.295 -3.1141 -0.5512 -0.9488
19218TIP3    H279146   6.288   2.875  12.229  0.5678 -1.1883  0.5063
19219TIP3   OH279147   2.732   1.742  13.902 -0.1297 -0.1765  0.0645
19219TIP3    H179148   2.728   1.788  13.818 -0.6840 -1.4362 -0.6165
19219TIP3    H279149   2.764   1.655  13.881  3.3000  0.5252  1.6411
19220TIP3   OH279150   6.704   5.041  12.052  0.0970 -0.4551 -0.1549
19220TIP3    H179151   6.745   5.114  12.099 -2.4051  0.9185  0.1001
19220TIP3    H279152   6.724   5.058  11.960 -0.6756  0.7971 -0.1309
19221TIP3   OH279153   6.167   3.294  10.673  0.1297  0.8073 -0.0633
19221TIP3    H179154   6.199   3.211  10.638 -0.2750  0.4612  0.3779
19221TIP3    H279155   6.082   3.307  10.630 -1.2808 -0.5622  2.1068
19222TIP3   OH279156   5.776   2.094   2.370 -0.4972 -0.3976 -0.0333
19222TIP3    H179157   5.871   2.104   2.367 -0.7421  2.8228 -0.9400
19222TIP3    H279158   5.755   2.082   2.462  0.8433 -3.1808  0.0013
19223TIP3   OH279159   6.142   0.920   0.893  0.5313 -0.5284  0.2675
19223TIP3    H179160   6.151   0.908   0.987  0.2189 -1.6542  0.1656
19223TIP3    H279161   6.183   1.005   0.876 -0.3807  0.2063  1.5568
19224TIP3   OH279162   3.321   4.325   5.640 -0.0568  0.1712  0.2570
19224TIP3    H179163   3.400   4.358   5.596 -0.5646  1.2096  0.0865
19224TIP3    H279164   3.342   4.235   5.663 -0.7554 -1.6837 -4.8910
19225TIP3   OH279165   5.807   2.935  15.140  0.9961 -0.7630  0.5305
19225TIP3    H179166   5.852   2.903  15.218 -0.1126 -1.1495  1.0402
19225TIP3    H279167   5.714   2.921  15.159  0.6833 -0.4447 -0.6809
19226TIP3   OH279168   6.042   6.567  11.679 -0.4354  0.3607  0.3677
19226TIP3    H179169   6.056   6.657  11.651  0.6575  0.2985  0.6929
19226TIP3    H279170   6.036   6.572  11.775  0.9393 -0.0671  0.4887
19227TIP3   OH279171   6.458   5.267  13.255  0.1678 -0.2096  0.7166
19227TIP3    H179172   6.524   5.296  13.191 -1.0365  1.0185 -0.0195
19227TIP3    H279173   6.376   5.268  13.206 -1.0358  2.1263  2.5882
19228TIP3   OH279174   1.162   5.809  14.262 -0.0410 -0.3569  0.2610
19228TIP3    H179175   1.194   5.800  14.172 -0.2938 -1.1582  0.2414
19228TIP3    H279176   1.228   5.764  14.315 -1.2509 -2.3418  0.1863
19229TIP3   OH279177   6.353   3.254  11.727  0.2905  0.0901  0.6363
19229TIP3    H179178   6.363   3.172  11.774  2.1749 -0.2793 -0.3322
19229TIP3    H279179   6.438   3.297  11.733  0.0307  0.8974 -0.8353
19230TIP3   OH279180   1.413   3.925   3.100  0.0241 -0.4972 -0.0186
19230TIP3    H179181   1.318   3.916   3.110 -0.0910 -0.7572 -1.2026
19230TIP3    H279182   1.444   3.835   3.087  0.2192 -0.2587 -1.2588
19231TIP3   OH279183   1.012   2.422  14.817  0.1989 -0.0665 -0.2334
19231TIP3    H179184   1.091   2.367  14.821 -0.1533 -0.5154  2.6951
19231TIP3    H279185   1.044   2.508  14.789  1.7320 -0.3135  0.6358
19232TIP3   OH279186   4.045   1.414   0.800 -0.5924 -0.2592 -0.4653
19232TIP3    H179187   4.052   1.324   0.831 -0.8095  0.5580  2.2201
19232TIP3    H279188   4.025   1.465   0.878 -1.8509  1.9749 -2.1304
19233TIP3   OH279189   6.592   4.331   3.582 -0.0127  0.3505 -0.0085
19233TIP3    H179190   6.524   4.265   3.595  2.0101 -1.8358  0.2646
19233TIP3    H279191   6.565   4.379   3.504 -1.8687 -0.3720  0.1416
19234TIP3   OH279192   0.842   1.077  17.155 -0.0560 -0.4200  0.0138
19234TIP3    H179193   0.862   1.059  17.247 -1.4087  1.5558  0.7551
19234TIP3    H279194   0.748   1.095  17.153  0.3813  2.2643 -1.2291
19235TIP3   OH279195   1.062   5.801  16.066  0.1286  0.1029 -0.7354
19235TIP3    H179196   1.077   5.708  16.050 -0.3912 -0.2567  0.7388
19235TIP3    H279197   1.126   5.824  16.133  0.5724  0.9450 -1.4232
19236TIP3   OH279198   6.319   1.098   5.044  0.0498  0.4911  0.4139
19236TIP3    H179199   6.292   1.162   4.978 -0.0429  1.2929  1.2236
19236TIP3    H279200   6.242   1.085   5.099  0.4093  0.5538  0.9408
19237TIP3   OH279201   4.880   2.819   0.021 -0.8913  0.3566  0.3992
19237TIP3    H179202   4.859   2.887   0.084  0.9768  0.5473  0.8639
19237TIP3    H279203   4.877   2.738   0.072 -1.3700  0.2820  0.2557
19238TIP3   OH279204   0.446   4.328   3.251  0.0471  0.0728 -0.2718
19238TIP3    H179205   0.523   4.341   3.306  0.6810 -0.2799 -1.0634
19238TIP3    H279206   0.449   4.400   3.188 -0.6038  0.4033  0.0682
19239TIP3   OH279207   2.925   3.710   3.748 -0.0985 -0.1708 -0.5625
19239TIP3    H179208   2.937   3.615   3.754 -0.7070 -0.3274 -1.5238
19239TIP3    H279209   2.972   3.745   3.823 -0.8829 -1.3204  0.5107
19240TIP3   OH279210   0.687   2.520  14.992 -0.0308  0.6052  0.2385
19240TIP3    H179211   0.687   2.470  15.074  0.1466 -2.5342 -1.5325
19240TIP3    H279212   0.778   2.542  14.977 -0.2265  2.5547  1.5591
19241TIP3   OH279213   3.201   0.790   4.767  0.6886 -0.4389  0.6099
19241TIP3    H179214   3.224   0.697   4.771 -1.0249 -0.9331 -0.1208
19241TIP3    H279215   3.107   0.790   4.747  0.4921  1.4523  1.4151
19242TIP3   OH279216   6.691   3.820  12.386 -0.5587  0.3250 -0.2383
19242TIP3    H179217   6.765   3.787  12.438 -1.0173 -0.9951 -0.3818
19242TIP3    H279218   6.720   3.906  12.355 -0.0969  0.9504  1.8062
19243TIP3   OH279219   4.742   2.568  13.729  0.3460  0.6527  0.3302
19243TIP3    H179220   4.687   2.544  13.655 -0.6415 -0.4877  1.3949
19243TIP3    H279221   4.696   2.536  13.806  1.0435  2.3297  1.5307
19244TIP3   OH279222   2.915   4.741   5.141  0.0469  0.8693 -0.2883
19244TIP3    H179223   2.996   4.712   5.098 -0.1097 -0.2465  0.1217
19244TIP3    H279224   2.911   4.835   5.124  1.7442  1.0740  0.1633
19245TIP3   OH279225   5.891   6.548  15.256  0.4170  0.0750  0.0130
19245TIP3    H179226   5.898   6.643  15.245 -0.9372  0.1699 -0.1198
19245TIP3    H279227   5.980   6.521  15.277  0.6441  1.4980  1.0621
19246TIP3   OH279228   6.750   3.011  13.323 -0.0656 -0.7075 -0.1031
19246TIP3    H179229   6.773   3.085  13.380  0.0259 -0.5869 -0.2951
19246TIP3    H279230   6.684   3.048  13.264  1.9234  0.0148 -2.0033
19247TIP3   OH279231   3.298   5.608   4.283 -0.1620 -0.3355  0.7497
19247TIP3    H179232   3.385   5.609   4.323  0.3338  1.8091 -0.2268
19247TIP3    H279233   3.309   5.556   4.203  0.5179  0.8040  0.0852
19248TIP3   OH279234   2.886   6.622  16.713 -0.1565 -0.1910  0.0496
19248TIP3    H179235   2.978   6.614  16.737 -0.3517  0.2082  0.9702
19248TIP3    H279236   2.881   6.702  16.661  0.1137 -0.5624 -0.5610
19249TIP3   OH279237   5.982   4.624  15.853  0.1828 -0.0289  0.7554
19249TIP3    H179238   5.990   4.698  15.792 -1.2409  1.4651  2.2673
19249TIP3    H279239   6.050   4.563  15.825  1.8553  2.1099 -0.1922
19250TIP3   OH279240   3.598   3.601   3.197 -0.1336  0.5631  0.3423
19250TIP3    H179241   3.523   3.654   3.224 -0.1765 -0.1997  1.7760
19250TIP3    H279242   3.625   3.555   3.276  3.0513  2.2195  0.3818
19251TIP3   OH279243   2.015   6.352   3.716 -0.0403 -0.4169 -0.2437
19251TIP3    H179244   1.942   6.406   3.684  0.7723  1.8065  1.4004
19251TIP3    H279245   2.013   6.274   3.661 -3.7419 -0.5508 -0.1576
19252TIP3   OH279246   5.813   3.329  12.351 -0.6180  0.5027  0.3668
19252TIP3    H179247   5.831   3.389  12.278 -2.4998 -0.3089 -0.8393
19252TIP3    H279248   5.878   3.352  12.417  1.5953  0.8442 -1.7877
19253TIP3   OH279249   5.595   5.096  14.853 -0.4465 -0.0090  0.2469
19253TIP3    H179250   5.578   5.172  14.909 -1.6087  2.9912 -3.7270
19253TIP3    H279251   5.690   5.086  14.855 -0.1458  2.3189  0.1011
19254TIP3   OH279252   1.082   5.925  13.443 -0.1463  0.3616 -0.0214
19254TIP3    H179253   1.147   5.968  13.388  0.2305  2.1644  1.7524
19254TIP3    H279254   1.133   5.868  13.501 -0.2151  1.0698  0.7450
19255TIP3   OH279255   2.659   2.679   4.231  0.0835 -0.3220  0.4515
19255TIP3    H179256   2.724   2.618   4.196  1.0907  0.6410  0.5852
19255TIP3    H279257   2.575   2.634   4.219  0.4732 -0.5435 -2.1613
19256TIP3   OH279258   4.908   3.167   1.243 -0.2458 -0.1861 -0.2897
19256TIP3    H179259   4.907   3.147   1.149  0.4271 -0.1955 -0.3027
19256TIP3    H279260   4.999   3.151   1.269 -0.5914 -0.8959  0.5220
19257TIP3   OH279261   5.338   0.343   2.990 -0.0708 -0.2219 -0.0760
19257TIP3    H179262   5.282   0.376   3.061 -0.2588 -0.2056 -0.2319
19257TIP3    H279263   5.282   0.343   2.913 -0.2782 -1.5168  0.0495
19258TIP3   OH279264   6.057   6.558  16.884 -0.3423  0.0815  0.3152
19258TIP3    H179265   5.978   6.525  16.840 -0.7985  1.0737  0.3576
19258TIP3    H279266   6.074   6.643  16.842  1.9340 -1.0069 -1.1530
19259TIP3   OH279267   6.308   6.312  14.487 -0.4090  0.2092  0.1519
19259TIP3    H179268   6.278   6.328  14.576 -1.9472  0.6915 -0.4196
19259TIP3    H279269   6.252   6.242  14.454  0.3972 -0.2342 -0.3169
19260TIP3   OH279270   1.878   0.075   4.605 -0.4207 -0.1484  0.1424
19260TIP3    H179271   1.909   0.166   4.602 -0.7216  0.0334  1.7968
19260TIP3    H279272   1.902   0.040   4.519  0.6841  1.1714 -0.1375
19261TIP3   OH279273   3.198   4.601  13.615  0.1365 -0.0884  0.0150
19261TIP3    H179274   3.227   4.511  13.606 -2.1713 -1.0545  1.1178
19261TIP3    H279275   3.145   4.618  13.537 -1.6463 -0.7100  1.0192
19262TIP3   OH279276   4.439   3.738  14.935 -0.3409  0.3982  0.2911
19262TIP3    H179277   4.528   3.711  14.909 -0.9555 -0.7825 -0.7377
19262TIP3    H279278   4.435   3.721  15.029 -0.6700 -3.4220 -0.2483
19263TIP3   OH279279   5.286   4.607  13.424  0.0509  0.0317  0.2810
19263TIP3    H179280   5.375   4.617  13.391 -0.5691  2.3442 -0.8525
19263TIP3    H279281   5.293   4.626  13.517  0.9887 -1.6073  0.5942
19264TIP3   OH279282   2.753   6.158   3.571 -0.3774  0.3278  0.0658
19264TIP3    H179283   2.671   6.173   3.619 -0.0232  0.8930  0.5122
19264TIP3    H279284   2.816   6.135   3.640 -0.2165 -0.3700 -0.3041
19265TIP3   OH279285   2.683   3.549   1.238 -0.7648 -0.0089 -0.7773
19265TIP3    H179286   2.774   3.523   1.223 -0.7329 -1.1212  1.0002
19265TIP3    H279287   2.666   3.616   1.172  1.7847  1.2521 -0.2881
19266TIP3   OH279288   1.110   5.044  11.533  0.0085 -0.1030 -0.6726
19266TIP3    H179289   1.122   5.094  11.452  2.1822 -0.2907 -0.5046
19266TIP3    H279290   1.142   5.102  11.602 -0.9108 -0.3294 -0.0345
19267TIP3   OH279291   1.878   3.784  16.043 -0.0086 -0.0165 -0.0952
19267TIP3    H179292   1.971   3.775  16.024  0.1362  0.0926  0.5458
19267TIP3    H279293   1.841   3.825  15.965  0.3547 -0.6945 -0.6380
19268TIP3   OH279294   0.763   0.229   6.305 -0.3165 -0.1590 -0.3750
19268TIP3    H179295   0.725   0.306   6.262  0.2218 -0.0281 -0.6181
19268TIP3    H279296   0.696   0.202   6.368 -1.2527 -0.5416 -1.4977
19269TIP3   OH279297   0.605   6.393  11.134  0.3512 -0.0148  0.3492
19269TIP3    H179298   0.695   6.364  11.147  0.9154 -0.6534 -3.7341
19269TIP3    H279299   0.570   6.335  11.067 -2.0049  2.2132 -0.5290
19270TIP3   OH279300   2.081   1.883  14.408  0.1860  0.0142  0.7034
19270TIP3    H179301   2.083   1.979  14.411 -0.5795  0.1569 -1.5429
19270TIP3    H279302   1.991   1.861  14.430  0.1648 -0.1411  0.4596
19271TIP3   OH279303   6.194   3.387   4.500 -0.1018  0.0066  0.3321
19271TIP3    H179304   6.247   3.436   4.437  1.5086 -1.2045  0.6785
19271TIP3    H279305   6.114   3.367   4.453  1.1664 -1.0817 -1.4582
19272TIP3   OH279306   3.044   5.096  13.122  0.4742 -0.6929  0.1685
19272TIP3    H179307   2.995   5.165  13.077  1.0282  0.8961  1.8849
19272TIP3    H279308   3.027   5.017  13.070 -1.9412  0.2715 -0.6341
19273TIP3   OH279309   1.603   0.645   1.647  0.2160 -0.7469 -0.5050
19273TIP3    H179310   1.519   0.605   1.623  0.4910 -1.4703 -0.2927
19273TIP3    H279311   1.627   0.602   1.729  0.0679  0.5423  0.2327
19274TIP3   OH279312   2.282   3.263   5.260  0.0029  0.8890  0.3399
19274TIP3    H179313   2.295   3.224   5.174  1.0787 -2.1184  1.7022
19274TIP3    H279314   2.188   3.279   5.266 -0.2543 -0.0247 -0.9427
19275TIP3   OH279315   2.225   0.334   1.949 -0.1522 -0.4553 -0.8432
19275TIP3    H179316   2.160   0.392   1.911  0.5939  1.0558  0.1052
19275TIP3    H279317   2.309   0.373   1.927  0.3305 -0.1721  1.2613
19276TIP3   OH279318   3.860   6.821  13.042 -0.2521 -0.3639 -0.0437
19276TIP3    H179319   3.820   6.831  13.129  0.5870 -0.3089  0.3475
19276TIP3    H279320   3.879   6.910  13.014  0.5584 -0.4463  0.2368
19277TIP3   OH279321   2.101   4.970   5.229  0.1584 -1.5686 -0.0511
19277TIP3    H179322   2.168   4.992   5.164  0.2105 -0.1950  0.4333
19277TIP3    H279323   2.037   4.917   5.180  0.3515 -0.8269 -1.1513
19278TIP3   OH279324   6.464   0.266   5.082 -0.8150  0.7192  0.1025
19278TIP3    H179325   6.476   0.359   5.099  0.7672  0.4575  0.5546
19278TIP3    H279326   6.401   0.263   5.010 -0.1848  2.1716 -0.5427
19279TIP3   OH279327   1.583   2.581  14.311 -0.3058 -0.8884 -0.2726
19279TIP3    H179328   1.505   2.561  14.363 -2.8485 -2.3755 -4.2085
19279TIP3    H279329   1.597   2.504  14.256  1.5081  0.8786 -2.5236
19280TIP3   OH279330   5.897   1.735  14.112 -0.2587  0.3538  1.0473
19280TIP3    H179331   5.988   1.765  14.122  0.1805 -1.0218  1.3643
19280TIP3    H279332   5.898   1.645  14.144 -1.5276 -0.0161  0.1117
19281TIP3   OH279333   6.143   6.711  10.838 -0.3458  0.5711 -0.3342
19281TIP3    H179334   6.214   6.655  10.870 -0.6673 -0.2052 -0.9517
19281TIP3    H279335   6.182   6.757  10.763 -0.6445 -0.2737 -1.0248
19282TIP3   OH279336   3.136   4.504  10.543 -0.3738 -0.2587 -0.1836
19282TIP3    H179337   3.221   4.464  10.528  0.0764  1.4909 -3.0592
19282TIP3    H279338   3.074   4.431  10.537  0.7838 -1.3027  0.2217
19283TIP3   OH279339   5.733   6.344  17.084  0.3677 -0.2956  0.2410
19283TIP3    H179340   5.671   6.314  17.151  0.2606 -0.0578  0.2490
19283TIP3    H279341   5.806   6.282  17.090  0.0525 -0.6868  0.1090
19284TIP3   OH279342   5.876   4.777   1.126 -0.4191 -0.6905 -0.6477
19284TIP3    H179343   5.923   4.860   1.137 -0.7734 -0.5897  0.1601
19284TIP3    H279344   5.939   4.718   1.085  0.7983 -0.8914  1.4002
19285TIP3   OH279345   4.574   1.246   2.517 -0.4326  0.4232 -0.5876
19285TIP3    H179346   4.574   1.183   2.445  1.7937 -3.1688  2.2118
19285TIP3    H279347   4.667   1.261   2.536 -0.7617 -0.9061  2.9976
19286TIP3   OH279348   5.461   6.618   1.268  0.2217 -0.1324  0.7536
19286TIP3    H179349   5.488   6.709   1.275 -0.0288  0.0508 -0.4208
19286TIP3    H279350   5.540   6.568   1.289  0.9626  0.3838 -0.6366
19287TIP3   OH279351   0.759   1.490   2.462 -0.2604  0.5497 -0.5361
19287TIP3    H179352   0.797   1.466   2.546  0.3293  1.9513 -0.3917
19287TIP3    H279353   0.833   1.521   2.410 -0.4910 -0.9916 -1.8542
19288TIP3   OH279354   5.089   1.321  14.284 -0.2562  0.3147 -0.1940
19288TIP3    H179355   5.137   1.400  14.258  1.4822 -1.0334 -1.3963
19288TIP3    H279356   5.003   1.330  14.243  0.1386  1.3157 -0.8454
19289TIP3   OH279357   5.857   2.663  11.089  0.4482 -0.0728 -0.0788
19289TIP3    H179358   5.762   2.658  11.099  0.6023 -1.2660  1.1875
19289TIP3    H279359   5.888   2.574  11.107  1.7225 -0.0281 -1.7735
19290TIP3   OH279360   5.750   2.975  11.337  0.4727  0.5752 -0.3865
19290TIP3    H179361   5.765   2.913  11.408 -0.8125  1.4552  0.7178
19290TIP3    H279362   5.833   2.979  11.291  0.4082 -2.5240 -1.0143
19291TIP3   OH279363   2.479   1.567   0.694  0.2599  0.4925 -0.1270
19291TIP3    H179364   2.475   1.603   0.782  1.7891 -0.9455  0.5924
19291TIP3    H279365   2.515   1.479   0.705  0.5804  0.2945 -2.1940
19292TIP3   OH279366   3.666   0.785   0.969 -0.4250 -0.0111  0.3266
19292TIP3    H179367   3.628   0.848   0.908 -0.8413 -1.7026 -1.2405
19292TIP3    H279368   3.591   0.748   1.015 -0.1390  0.9882  1.6846
19293TIP3   OH279369   1.291   6.479   6.060 -0.3166 -0.0822 -0.7700
19293TIP3    H179370   1.238   6.517   5.990  0.2797  0.5604 -0.8918
19293TIP3    H279371   1.253   6.514   6.141  0.4921  1.1501 -0.9017
19294TIP3   OH279372   4.446   2.002   2.705  0.1626  0.0384  0.1112
19294TIP3    H179373   4.413   2.051   2.630  0.6316 -0.3192 -0.3355
19294TIP3    H279374   4.400   1.918   2.700 -1.0844  0.6347  1.2157
19295TIP3   OH279375   3.648   0.652  16.626  0.8067 -0.0991 -0.5915
19295TIP3    H179376   3.678   0.582  16.568 -0.2220 -1.8963  0.9571
19295TIP3    H279377   3.719   0.662  16.690  0.3181 -0.8285  0.0852
19296TIP3   OH279378   5.617   2.207  15.348 -0.2330 -0.9977 -0.1431
19296TIP3    H179379   5.598   2.113  15.339  1.0450 -1.2179 -0.7765
19296TIP3    H279380   5.540   2.250  15.311 -0.8060 -1.7966  0.0879
19297TIP3   OH279381   1.264   4.771   4.670  0.1473 -0.1181  0.2816
19297TIP3    H179382   1.319   4.784   4.593  1.0810 -0.8904  0.7860
19297TIP3    H279383   1.285   4.682   4.698 -0.6699 -0.0764  1.0443
19298TIP3   OH279384   2.107   4.562   0.254  0.0690 -0.3165  0.2228
19298TIP3    H179385   2.137   4.475   0.279  0.1908  0.3235  2.5522
19298TIP3    H279386   2.169   4.590   0.187  1.6574 -1.0220  1.3200
19299TIP3   OH279387   3.672   4.221   0.298  0.6640 -0.4377 -0.2831
19299TIP3    H179388   3.702   4.247   0.385 -1.5244  0.4006  0.2996
19299TIP3    H279389   3.654   4.127   0.305 -0.6845 -0.1410  0.5882
19300TIP3   OH279390   0.106   0.250   4.290 -0.0571  0.2463 -0.4699
19300TIP3    H179391   0.136   0.223   4.377 -2.6158  1.7478  0.9841
19300TIP3    H279392   0.025   0.201   4.276 -1.1046  1.9746 -0.7750
19301TIP3   OH279393   2.766   6.436   2.379  0.7097 -0.0297  0.0747
19301TIP3    H179394   2.720   6.505   2.427  0.3201 -0.9417  1.0472
19301TIP3    H279395   2.707   6.414   2.307  0.6770  0.3991 -0.0331
19302TIP3   OH279396   0.348   0.940  14.867 -0.3462  0.1078  0.0867
19302TIP3    H179397   0.275   0.961  14.925 -0.8020 -1.0533 -0.0493
19302TIP3    H279398   0.426   0.964  14.917 -0.6957 -1.3794  1.4327
19303TIP3   OH279399   3.700   2.504  12.244  0.0281 -0.1853  0.0864
19303TIP3    H179400   3.640   2.553  12.299  1.0072  2.1819 -0.8097
19303TIP3    H279401   3.657   2.420  12.229 -2.9538  1.3146 -0.3496
19304TIP3   OH279402   2.759   5.328   4.976 -0.3488  0.5500 -0.1708
19304TIP3    H179403   2.853   5.313   4.982 -0.8327 -3.5641  0.2544
19304TIP3    H279404   2.725   5.306   5.063 -1.8724 -0.7869 -1.0335
19305TIP3   OH279405   4.024   0.816   3.179  0.0364 -0.1326 -0.6185
19305TIP3    H179406   3.964   0.742   3.173 -0.4980  0.3757 -1.8909
19305TIP3    H279407   4.105   0.786   3.137 -0.0854 -0.0871 -0.8859
19306TIP3   OH279408   3.391   4.871   3.627  0.2062 -0.3894  0.2296
19306TIP3    H179409   3.297   4.865   3.607  0.3824  0.9736 -1.2592
19306TIP3    H279410   3.434   4.830   3.551  0.8272  0.5576  0.0484
19307TIP3   OH279411   2.198   2.753   2.338  0.0812 -0.3203 -0.7716
19307TIP3    H179412   2.144   2.784   2.265 -1.7140 -0.5419  0.4009
19307TIP3    H279413   2.206   2.829   2.396 -0.9293 -0.9070  0.1630
19308TIP3   OH279414   6.088   5.275  14.494 -0.5337 -0.2475 -0.1092
19308TIP3    H179415   6.059   5.186  14.474  1.1814 -1.1395  1.2250
19308TIP3    H279416   6.087   5.280  14.589  2.0681  0.1798 -0.0314
19309TIP3   OH279417   0.842   0.774  14.305 -0.1147 -0.3745  0.3178
19309TIP3    H179418   0.805   0.695  14.345 -1.3011 -0.0053  0.0100
19309TIP3    H279419   0.928   0.784  14.346 -0.7867 -0.6778  1.9059
19310TIP3   OH279420   5.237   1.289  16.847  0.0360  0.2572  0.0955
19310TIP3    H179421   5.196   1.208  16.874  0.0254 -0.8872 -2.9263
19310TIP3    H279422   5.275   1.270  16.761 -0.2500  3.5026 -0.9251
19311TIP3   OH279423   5.893   4.963  10.383 -0.0952 -0.2577 -0.4127
19311TIP3    H179424   5.862   4.875  10.361 -1.3103 -0.2764  1.2056
19311TIP3    H279425   5.971   4.948  10.437 -0.8932 -0.4249  0.7490
19312TIP3   OH279426   2.870   3.309  12.014  0.0777 -0.4615  0.5041
19312TIP3    H179427   2.871   3.214  12.001  2.3079 -0.4725  0.4917
19312TIP3    H279428   2.909   3.345  11.934 -2.0707  0.6167 -0.1440
19313TIP3   OH279429   2.276   0.216  17.240  0.1836 -0.1646  0.0583
19313TIP3    H179430   2.314   0.276  17.177  0.7801  0.1856  0.7438
19313TIP3    H279431   2.212   0.268  17.289 -0.1439 -0.3881 -0.1242
19314TIP3   OH279432   0.723   0.319   1.456  0.3441  0.0890 -0.6342
19314TIP3    H179433   0.818   0.336   1.456  0.1391  1.3751  0.1354
19314TIP3    H279434   0.707   0.276   1.541  0.0805  0.9176 -0.2574
19315TIP3   OH279435   2.460   1.162   1.920  0.3283 -0.1058  0.0638
19315TIP3    H179436   2.376   1.179   1.964 -0.6610  1.0436 -2.1295
19315TIP3    H279437   2.487   1.076   1.953 -2.0681 -0.8382  0.3219
19316TIP3   OH279438   0.055   5.080   5.510 -0.3406 -0.0458 -0.6283
19316TIP3    H179439   0.115   5.152   5.529 -0.6738  0.1956 -0.4740
19316TIP3    H279440  -0.001   5.115   5.441 -1.0200  0.1392  0.0007
19317TIP3   OH279441   3.558   5.884  11.181  0.3438 -0.4551  0.8429
19317TIP3    H179442   3.523   5.857  11.096 -1.2717 -0.3039  1.4097
19317TIP3    H279443   3.495   5.850  11.244  1.1550  0.0144  1.9395
19318TIP3   OH279444   4.522   5.818   4.161  0.4858  0.3254 -0.5623
19318TIP3    H179445   4.471   5.886   4.117 -1.7840 -0.1639  1.1589
19318TIP3    H279446   4.607   5.859   4.178 -0.5457  2.4570 -0.2712
19319TIP3   OH279447   3.793   0.462  13.353  0.3835  0.4515  0.5616
19319TIP3    H179448   3.882   0.479  13.321  1.3697  0.2922  2.9442
19319TIP3    H279449   3.749   0.547  13.348 -0.0425  0.1513 -2.4334
19320TIP3   OH279450   3.870   4.345  14.245  0.2684 -0.2158 -0.0057
19320TIP3    H179451   3.868   4.439  14.231 -1.0915 -0.2690 -0.3636
19320TIP3    H279452   3.843   4.333  14.336  1.5294 -0.2166  0.3754
19321TIP3   OH279453   3.798   2.799   1.611  0.5327 -0.2379 -0.5346
19321TIP3    H179454   3.729   2.860   1.636  1.8925  0.7283  1.0676
19321TIP3    H279455   3.847   2.844   1.542  0.8331 -0.0000 -0.1703
19322TIP3   OH279456   2.891   3.976  16.108 -0.1766 -0.2490 -0.3455
19322TIP3    H179457   2.884   4.071  16.099  1.3344  0.2007  2.2302
19322TIP3    H279458   2.831   3.941  16.043 -3.2553  2.5210  0.7628
19323TIP3   OH279459   1.050   2.623   3.541 -0.2583 -0.2971  0.6296
19323TIP3    H179460   1.102   2.554   3.499  0.5415 -0.4476  1.7828
19323TIP3    H279461   1.056   2.698   3.483  1.9525 -0.0635  1.0723
19324TIP3   OH279462   2.981   1.436   0.483  0.5639  0.6072 -0.4118
19324TIP3    H179463   2.937   1.420   0.567 -1.1486  3.4369 -0.6218
19324TIP3    H279464   3.070   1.462   0.508  0.5474 -0.0641  0.4091
19325TIP3   OH279465   6.456   1.970   2.635 -0.1514  0.2541 -0.7017
19325TIP3    H179466   6.429   1.955   2.545  0.5170  1.9928 -1.2230
19325TIP3    H279467   6.545   2.006   2.628  0.1894 -0.2400  0.6932
19326TIP3   OH279468   1.230   5.896  14.590 -0.0255 -0.2499 -0.0269
19326TIP3    H179469   1.237   5.801  14.582 -0.7942 -0.4044  0.8960
19326TIP3    H279470   1.320   5.927  14.582  0.2719 -1.0807 -0.0349
19327TIP3   OH279471   2.972   3.025   2.565 -0.6086 -0.1335 -0.0205
19327TIP3    H179472   2.891   3.069   2.538 -0.8915 -0.1013  0.8519
19327TIP3    H279473   3.035   3.050   2.497 -0.7959  1.4894  0.3435
19328TIP3   OH279474   5.944   1.164  12.333 -0.3490  0.2443 -0.2953
19328TIP3    H179475   5.929   1.166  12.239 -1.3746  0.3560 -0.1390
19328TIP3    H279476   5.923   1.253  12.363 -0.6388  0.0338  0.1317
19329TIP3   OH279477   1.010   5.252   1.204 -0.0037  0.9486  0.5368
19329TIP3    H179478   1.005   5.269   1.110  2.0251  1.6229  0.5009
19329TIP3    H279479   0.976   5.332   1.245 -0.6131  0.7671  0.4036
19330TIP3   OH279480   6.292   6.219   1.184 -0.2395 -0.0304 -0.1242
19330TIP3    H179481   6.357   6.287   1.206  0.8607 -0.6429 -1.3256
19330TIP3    H279482   6.239   6.211   1.263  0.2307  1.5194  0.4023
19331TIP3   OH279483   1.845   1.960   4.858  0.4584  0.3778  0.4516
19331TIP3    H179484   1.888   2.006   4.930  1.4843  0.9369 -0.4819
19331TIP3    H279485   1.771   2.017   4.835  2.3131  2.2397 -1.3809
19332TIP3   OH279486   5.744   5.855   3.473 -0.0256  0.5163  0.4768
19332TIP3    H179487   5.830   5.890   3.495  0.4519 -0.3595  0.0607
19332TIP3    H279488   5.723   5.892   3.388  0.0601  0.5252  0.4603
19333TIP3   OH279489   2.479   5.146   4.122  0.1505  0.9941 -0.1068
19333TIP3    H179490   2.542   5.214   4.098 -0.2454  0.7585 -1.9938
19333TIP3    H279491   2.500   5.124   4.213  2.2972  1.4380 -0.4499
19334TIP3   OH279492   1.018   2.959  13.753  0.2578 -0.6555  0.3541
19334TIP3    H179493   1.044   3.006  13.832  1.2334  0.4451 -0.5845
19334TIP3    H279494   0.990   3.028  13.692  2.1519 -1.1663 -1.2134
19335TIP3   OH279495   0.320   2.186   1.239 -0.0114 -0.2483  0.3336
19335TIP3    H179496   0.254   2.235   1.190 -0.7850 -0.3438  1.2506
19335TIP3    H279497   0.332   2.236   1.320  0.4987 -0.6329  0.5060
19336TIP3   OH279498   5.074   5.263  14.065  0.7038  0.4119  0.4896
19336TIP3    H179499   5.088   5.270  13.971  1.0530  0.3655  0.5370
19336TIP3    H279500   5.148   5.310  14.103  0.2169  1.0033  0.7298
19337TIP3   OH279501   1.818   4.332   2.756  0.5465 -0.3020  0.5745
19337TIP3    H179502   1.726   4.317   2.735  1.1913 -1.3466 -1.7036
19337TIP3    H279503   1.864   4.255   2.723  2.5702  1.4094 -0.8530
19338TIP3   OH279504   0.444   0.091   4.373 -0.4178  0.3132  0.2149
19338TIP3    H179505   0.520   0.033   4.376 -1.5726 -1.2838  0.2424
19338TIP3    H279506   0.369   0.031   4.367 -1.6765  1.8250  0.2433
19339TIP3   OH279507   0.447   3.346  16.928 -0.1521 -0.1163 -0.2876
19339TIP3    H179508   0.480   3.304  16.849 -0.3412 -0.7038 -0.0595
19339TIP3    H279509   0.356   3.318  16.935 -0.6944  1.3893 -0.8443
19340TIP3   OH279510   1.805   0.505  16.375 -0.1806 -0.0135  0.3153
19340TIP3    H179511   1.849   0.426  16.404 -0.0402  0.0590  0.3031
19340TIP3    H279512   1.859   0.577  16.409 -1.0043  0.1067  1.4293
19341TIP3   OH279513   4.511   1.851  13.142  0.1065 -0.0467 -0.9204
19341TIP3    H179514   4.435   1.876  13.194  0.2435 -0.5615 -0.4684
19341TIP3    H279515   4.583   1.847  13.204 -0.0837 -2.4379 -0.7558
19342TIP3   OH279516   5.217   5.735  15.800 -0.1049  0.3972 -0.5282
19342TIP3    H179517   5.274   5.695  15.735  0.4386  1.0649 -0.4717
19342TIP3    H279518   5.201   5.823  15.768  0.1664  0.7309  0.2398
19343TIP3   OH279519   3.708   5.826  13.340  0.1487 -0.3974  0.0082
19343TIP3    H179520   3.731   5.844  13.249  0.5544  1.0004  0.3605
19343TIP3    H279521   3.787   5.788  13.378 -0.0277 -1.0008 -0.2251
19344TIP3   OH279522   1.507   2.440   2.428 -0.1192  0.7078  0.0667
19344TIP3    H179523   1.596   2.464   2.452 -0.1725  0.2538  0.7424
19344TIP3    H279524   1.466   2.413   2.511 -0.9952  1.2586 -0.1719
19345TIP3   OH279525   4.211   6.030   4.894 -0.2742  0.8745 -0.6427
19345TIP3    H179526   4.201   5.944   4.934  0.7564  1.3388  0.6824
19345TIP3    H279527   4.263   6.014   4.815 -0.0566  0.2914 -0.3855
19346TIP3   OH279528   4.442   3.511  10.805 -0.3852  0.2538  0.4453
19346TIP3    H179529   4.510   3.540  10.865  1.0401  0.0236 -0.9701
19346TIP3    H279530   4.413   3.426  10.839  0.9421 -0.2357  0.4022
19347TIP3   OH279531   3.559   0.388   1.717 -0.3222 -0.0673  0.5802
19347TIP3    H179532   3.537   0.406   1.808  1.3848  1.6422  0.7066
19347TIP3    H279533   3.649   0.356   1.720  0.4732  1.8927 -0.6275
19348TIP3   OH279534   0.296   4.170  11.320 -0.0783  0.3762  0.4131
19348TIP3    H179535   0.274   4.206  11.233 -0.7016 -0.2969  0.2833
19348TIP3    H279536   0.227   4.203  11.377 -1.0012 -1.0719  0.1741
19349TIP3   OH279537   4.977   4.198  16.232  0.3933 -0.6292 -0.0668
19349TIP3    H179538   5.003   4.233  16.317 -0.5992 -1.5790  0.6494
19349TIP3    H279539   5.052   4.146  16.204  0.9629  0.1771 -0.0714
19350TIP3   OH279540   1.217   3.047  14.260 -0.1033 -0.4586  1.0420
19350TIP3    H179541   1.297   3.044  14.207 -0.3142 -1.3951  0.7597
19350TIP3    H279542   1.215   3.136  14.296 -0.1204  0.2996 -0.7593
19351TIP3   OH279543   3.499   2.529   0.322 -0.0428 -0.0784 -0.1735
19351TIP3    H179544   3.410   2.528   0.357  0.1880  0.4334  0.4516
19351TIP3    H279545   3.554   2.501   0.396  0.1922 -1.7773 -0.9473
19352TIP3   OH279546   3.223   4.312   4.523 -0.2478  0.0452  0.4039
19352TIP3    H179547   3.202   4.373   4.453  1.1116 -0.8365 -0.8236
19352TIP3    H279548   3.207   4.362   4.604 -1.4323  1.2092 -0.5126
19353TIP3   OH279549   2.783   0.406   6.599 -0.1135 -0.4132  0.3324
19353TIP3    H179550   2.820   0.483   6.556 -2.9927  0.7886 -0.1959
19353TIP3    H279551   2.834   0.397   6.680  0.2892  2.0670  0.4215
19354TIP3   OH279552   0.352   1.404  14.979  0.7441 -0.4179 -0.6771
19354TIP3    H179553   0.421   1.347  14.946  1.7638 -0.3813  1.2420
19354TIP3    H279554   0.384   1.493  14.963  1.7146 -0.3885  1.1998
19355TIP3   OH279555   2.843   5.442   4.422 -0.3074  0.7399 -0.4301
19355TIP3    H179556   2.880   5.508   4.480  1.4082  0.5309 -1.2300
19355TIP3    H279557   2.766   5.409   4.469  1.0298  0.5487  1.7444
19356TIP3   OH279558   2.933   5.964   5.031  0.4946  0.2206 -0.4817
19356TIP3    H179559   2.977   6.049   5.036 -1.8925  1.4671  2.6592
19356TIP3    H279560   2.970   5.914   5.104  1.2346 -1.1691 -1.7622
19357TIP3   OH279561   2.287   6.432  13.884  0.1626  0.1809 -0.1332
19357TIP3    H179562   2.236   6.509  13.907 -0.3585  0.2362 -1.3636
19357TIP3    H279563   2.228   6.358  13.902  0.3122  0.1267  0.1403
19358TIP3   OH279564   1.703   0.155  17.107 -0.1968  0.4256  0.5011
19358TIP3    H179565   1.682   0.220  17.175 -4.9942 -0.5126  0.2773
19358TIP3    H279566   1.695   0.202  17.025  0.3951  0.4131  0.4323
19359TIP3   OH279567   3.446   4.809   4.110 -0.6297  0.3435  0.5176
19359TIP3    H179568   3.362   4.804   4.156 -0.8337  2.0258  0.3838
19359TIP3    H279569   3.472   4.717   4.098 -1.2423 -0.1921  2.7239
19360TIP3   OH279570   5.855   3.297  11.578 -0.2120  0.3314  0.7994
19360TIP3    H179571   5.934   3.243  11.572 -1.3270 -1.2611 -0.4456
19360TIP3    H279572   5.835   3.300  11.671  0.5626 -0.3548  1.0037
19361TIP3   OH279573   4.716   5.591  11.294 -0.4561 -0.0483 -0.0270
19361TIP3    H179574   4.739   5.537  11.369  1.4207  2.1299  1.0972
19361TIP3    H279575   4.638   5.639  11.321  1.6171  2.6465  1.7585
19362TIP3   OH279576   4.599   1.806  14.224  0.1934 -0.0492 -0.3939
19362TIP3    H179577   4.616   1.734  14.164  0.3681  0.1284 -0.5591
19362TIP3    H279578   4.672   1.866  14.211 -1.2003  1.4013 -2.1014
19363TIP3   OH279579   0.395   2.095   0.908 -0.7782  1.0098  0.3821
19363TIP3    H179580   0.443   2.142   0.977  0.6497 -1.1851  0.9888
19363TIP3    H279581   0.459   2.087   0.837 -0.7784 -0.4440  0.5156
19364TIP3   OH279582   4.431   5.206  15.963  0.1180 -0.3280 -0.6940
19364TIP3    H179583   4.489   5.235  15.894  0.5982  2.6276  0.8044
19364TIP3    H279584   4.451   5.113  15.974  3.2756  0.1472 -1.4733
19365TIP3   OH279585   0.130   0.998  16.309  0.1754  0.6683  0.1300
19365TIP3    H179586   0.201   0.961  16.255 -0.8755 -2.3364  0.6027
19365TIP3    H279587   0.168   1.004  16.397 -0.0111 -0.6870  0.3292
19366TIP3   OH279588   6.590   3.984  16.243 -0.4526  0.0509  0.3950
19366TIP3    H179589   6.627   4.001  16.329 -0.5887  0.7912  0.3237
19366TIP3    H279590   6.523   4.052  16.233  0.2701  0.6272 -0.7117
19367TIP3   OH279591   3.162   1.835  13.707  0.4025  0.4685 -0.2537
19367TIP3    H179592   3.101   1.902  13.676  0.7855  1.2852  0.7337
19367TIP3    H279593   3.196   1.795  13.626  1.0276  2.2421 -0.9119
19368TIP3   OH279594   0.312   5.961  10.292  0.5545 -0.3191 -0.3457
19368TIP3    H179595   0.315   5.874  10.333 -0.2714 -0.3076 -0.2427
19368TIP3    H279596   0.360   5.951  10.210  0.7822 -0.7764 -0.1605
19369TIP3   OH279597   2.420   6.800  11.689  1.1232 -0.5753 -0.0347
19369TIP3    H179598   2.354   6.732  11.684  0.8580 -0.3115 -0.1702
19369TIP3    H279599   2.467   6.795  11.606  1.2920 -0.7841  0.0744
19370TIP3   OH279600   5.170   0.462   1.438 -0.3465 -0.1196  0.7386
19370TIP3    H179601   5.263   0.443   1.448 -0.5815 -1.1755  1.0666
19370TIP3    H279602   5.149   0.433   1.350 -0.1643  1.0482  0.2934
19371TIP3   OH279603   1.211   5.139   6.639 -0.1814  0.4496 -0.1543
19371TIP3    H179604   1.124   5.166   6.610  0.1808 -0.2804 -2.1312
19371TIP3    H279605   1.224   5.053   6.599  1.5394  0.6676 -0.1525
19372TIP3   OH279606   1.217   3.797   4.205  0.0449  0.0947 -0.3833
19372TIP3    H179607   1.308   3.780   4.181  0.8535  3.0322  0.2768
19372TIP3    H279608   1.204   3.890   4.186 -3.0060 -0.3464 -0.9430
19373TIP3   OH279609   6.649   1.952   0.185  0.1647 -0.6600  0.1429
19373TIP3    H179610   6.590   1.897   0.133 -0.3382  0.9544 -1.0895
19373TIP3    H279611   6.601   1.968   0.266 -1.0305  0.3984 -0.7299
19374TIP3   OH279612   2.069   6.149  15.057  0.1302 -0.0373 -0.1921
19374TIP3    H179613   2.119   6.215  15.105 -0.9006  0.2341  0.5557
19374TIP3    H279614   2.035   6.196  14.980 -0.1639  0.1685  0.0615
19375TIP3   OH279615   3.593   2.261   4.279 -0.0094  0.3340  0.2791
19375TIP3    H179616   3.626   2.221   4.360 -0.5129  0.7716  0.7049
19375TIP3    H279617   3.558   2.187   4.228 -0.2898  0.1428  0.7457
19376TIP3   OH279618   3.538   1.793  14.068  0.5803  0.3508 -0.2814
19376TIP3    H179619   3.542   1.707  14.027  1.2572  0.6660 -0.9012
19376TIP3    H279620   3.477   1.843  14.013  0.4483  0.3645 -0.1208
19377TIP3   OH279621   2.790   5.026  16.133  0.2283  0.9359  0.1929
19377TIP3    H179622   2.713   5.029  16.077  0.5523 -1.7981 -0.5520
19377TIP3    H279623   2.755   5.018  16.222 -0.6143 -2.9303 -0.2782
19378TIP3   OH279624   0.998   2.012   0.882  0.5289  0.2884  0.2722
19378TIP3    H179625   0.961   2.022   0.970 -0.2118  1.4625 -0.1407
19378TIP3    H279626   1.017   2.102   0.855 -1.3017  0.1771 -1.5999
19379TIP3   OH279627   3.959   1.289   2.977 -0.0278  0.2099 -0.0956
19379TIP3    H179628   3.958   1.299   3.072  1.0360 -4.5542  0.6942
19379TIP3    H279629   4.038   1.238   2.959 -2.1937 -2.6004 -2.8822
19380TIP3   OH279630   1.024   1.196  13.347 -0.6088  0.4194  0.3198
19380TIP3    H179631   1.110   1.222  13.379  0.3860 -1.4016 -0.7629
19380TIP3    H279632   0.971   1.188  13.427  1.0692 -1.3634  1.3561
19381TIP3   OH279633   3.873   2.970   0.990 -0.1237  0.3713  0.0986
19381TIP3    H179634   3.781   2.944   0.998 -0.6573  1.8882 -0.7184
19381TIP3    H279635   3.911   2.905   0.930 -0.3697 -0.8724  1.2325
19382TIP3   OH279636   1.311   5.200  13.016  0.0441  0.2354 -0.1496
19382TIP3    H179637   1.320   5.133  12.949 -1.2589 -0.5607  0.4259
19382TIP3    H279638   1.266   5.273  12.973  0.5268  0.3253 -0.5060
19383TIP3   OH279639   5.237   5.506  17.234 -0.0749 -0.0710 -0.0119
19383TIP3    H179640   5.181   5.521  17.309  0.1218 -1.9786  0.5694
19383TIP3    H279641   5.219   5.578  17.174 -2.5769 -0.2298  0.4799
19384TIP3   OH279642   5.769   6.809  15.396 -0.3073 -0.0436  0.0780
19384TIP3    H179643   5.694   6.851  15.353 -0.9747 -1.8967 -0.6942
19384TIP3    H279644   5.844   6.863  15.373 -0.7210 -0.6017 -3.0230
19385TIP3   OH279645   6.401   2.912  16.188 -0.0300  0.5679 -0.7273
19385TIP3    H179646   6.417   2.873  16.275  0.6384 -0.1918 -1.1720
19385TIP3    H279647   6.318   2.959  16.198 -1.5167 -1.9020 -0.4240
19386TIP3   OH279648   1.543   5.825  14.329  0.3470  0.2998 -0.1452
19386TIP3    H179649   1.512   5.737  14.308 -0.5907  0.6690 -0.3608
19386TIP3    H279650   1.602   5.813  14.404  0.1259 -0.4895 -0.0926
19387TIP3   OH279651   3.030   2.477   4.754  0.6693  0.3317  0.4822
19387TIP3    H179652   3.009   2.394   4.710  1.0369 -0.7834  2.2974
19387TIP3    H279653   2.959   2.536   4.728 -1.1307 -1.3706  1.2355
19388TIP3   OH279654   0.439   4.009   0.067  0.2524  0.2393 -0.0984
19388TIP3    H179655   0.353   4.051   0.060  0.6990  1.1433 -0.3967
19388TIP3    H279656   0.435   3.935   0.007  0.0349  0.9319 -0.9744
19389TIP3   OH279657   2.810   4.095   4.132  0.2819 -0.6250  0.0064
19389TIP3    H179658   2.809   4.097   4.036 -1.1948  0.1043  0.0071
19389TIP3    H279659   2.718   4.109   4.157  0.8492  0.5934  1.5496
19390TIP3   OH279660   5.523   1.016  16.974  0.4707 -0.0934  0.0070
19390TIP3    H179661   5.493   1.106  16.981  0.5654 -0.1136  0.8500
19390TIP3    H279662   5.569   1.012  16.890 -1.4513  0.0442 -1.1224
19391TIP3   OH279663   2.946   0.083  13.670 -0.1901  0.1939 -0.2111
19391TIP3    H179664   2.893   0.021  13.621 -0.1647 -0.3714  0.4627
19391TIP3    H279665   3.022   0.101  13.613 -0.1836 -0.4126 -0.3957
19392TIP3   OH279666   5.683   6.610   5.999 -0.2919 -0.2475  0.6628
19392TIP3    H179667   5.591   6.623   6.021 -0.5201 -2.5389  1.2569
19392TIP3    H279668   5.731   6.641   6.075 -0.5048  1.2514  0.2270
19393TIP3   OH279669   1.334   4.664  16.314  0.0787  0.3253 -0.0871
19393TIP3    H179670   1.361   4.612  16.390 -2.1049  0.4431  0.8542
19393TIP3    H279671   1.280   4.604  16.262 -0.5745  0.9881 -0.1856
19394TIP3   OH279672   2.479   0.257  14.892  0.1614  0.2422  0.0927
19394TIP3    H179673   2.442   0.239  14.805  0.5471 -0.6319  0.1042
19394TIP3    H279674   2.479   0.353  14.898 -0.5798  0.2957 -0.5589
19395TIP3   OH279675   2.877   6.004  16.392 -0.4257  0.5675  0.2664
19395TIP3    H179676   2.795   5.984  16.437 -0.2060  0.1162  0.4745
19395TIP3    H279677   2.872   6.098  16.373  0.1631  1.1366  2.6622
19396TIP3   OH279678   6.362   0.485  11.624 -0.6305 -0.6028  0.5580
19396TIP3    H179679   6.306   0.540  11.570  0.3151  0.3162  0.4753
19396TIP3    H279680   6.380   0.538  11.701 -0.6866 -1.2875  1.0519
19397TIP3   OH279681   5.890   2.610   3.106 -0.4798  0.5056  0.0087
19397TIP3    H179682   5.954   2.559   3.055  0.2285  0.8196  0.5638
19397TIP3    H279683   5.805   2.585   3.070 -0.0795 -0.3450 -0.3774
19398TIP3   OH279684   2.999   3.732  15.826 -0.5053  0.0783 -0.1359
19398TIP3    H179685   2.932   3.795  15.854  0.3992  0.6804  0.8013
19398TIP3    H279686   3.055   3.782  15.766 -1.1568 -0.5631 -1.2978
19399TIP3   OH279687   4.425   5.072   6.458 -0.5781 -0.2066  0.1458
19399TIP3    H179688   4.417   4.980   6.435 -2.5535  0.3523 -1.7431
19399TIP3    H279689   4.508   5.100   6.421 -0.7115 -0.8786 -0.6777
19400TIP3   OH279690   5.649   4.256   2.380  0.5499  0.1839 -0.4534
19400TIP3    H179691   5.684   4.309   2.308  0.3301  1.2921  0.2405
19400TIP3    H279692   5.591   4.315   2.428 -2.5955 -1.6576 -1.7300
19401TIP3   OH279693   2.478   4.199  12.788 -0.0971 -0.2008  0.7593
19401TIP3    H179694   2.469   4.270  12.724  0.5678 -1.5501 -0.8907
19401TIP3    H279695   2.572   4.196  12.807 -0.0207 -1.1016  0.2588
19402TIP3   OH279696   5.648   0.179  15.228  0.6519  0.4421 -0.1053
19402TIP3    H179697   5.556   0.202  15.240  0.8316  0.4243  1.4415
19402TIP3    H279698   5.647   0.117  15.154 -0.6280  0.1077  0.1605
19403TIP3   OH279699   6.440   6.149  14.246 -0.3671 -0.3653  0.0980
19403TIP3    H179700   6.504   6.211  14.282  0.2502 -0.6574 -0.4691
19403TIP3    H279701   6.479   6.063  14.262 -0.3881 -0.5239 -0.6838
19404TIP3   OH279702   1.288   5.050  16.391 -0.3879  0.2464 -0.6655
19404TIP3    H179703   1.213   5.029  16.335 -0.4402 -1.6440  0.0444
19404TIP3    H279704   1.281   4.989  16.464  0.6197  1.5351  0.5519
19405TIP3   OH279705   1.016   5.598   1.834 -0.1692  0.3862 -0.4349
19405TIP3    H179706   0.980   5.603   1.922  0.6867 -0.0836 -0.0434
19405TIP3    H279707   1.101   5.641   1.841 -0.5623  1.3443 -1.3020
19406TIP3   OH279708   0.935   3.210  14.903 -0.2373  0.0275 -0.1565
19406TIP3    H179709   0.865   3.145  14.897 -0.1488 -0.0640 -0.1839
19406TIP3    H279710   0.888   3.294  14.908 -0.4397 -0.1519  2.0769
19407TIP3   OH279711   0.516   4.160  12.352 -0.3194  0.4818  0.4017
19407TIP3    H179712   0.505   4.218  12.277 -0.1302 -1.3138 -1.1036
19407TIP3    H279713   0.427   4.131  12.373 -0.3276  0.6235  0.5602
19408TIP3   OH279714   3.086   1.464   1.122 -0.0787  0.1248 -0.2771
19408TIP3    H179715   3.089   1.370   1.107  0.8283  0.0264  0.4393
19408TIP3    H279716   3.021   1.476   1.191  0.0225 -0.0162 -0.1558
19409TIP3   OH279717   0.485   5.852  13.930 -0.2915 -0.1528 -0.7120
19409TIP3    H179718   0.429   5.787  13.971 -2.0299  1.0588 -1.0239
19409TIP3    H279719   0.567   5.807  13.913 -1.1929 -2.0348 -0.2854
19410TIP3   OH279720   4.212   5.878   0.549  0.2848  0.5339  0.6342
19410TIP3    H179721   4.179   5.877   0.639  0.5401  0.2031  0.7259
19410TIP3    H279722   4.260   5.961   0.543  2.0067 -0.3555  1.4523
19411TIP3   OH279723   5.648   3.781   5.447 -0.2276  0.1958 -0.1059
19411TIP3    H179724   5.614   3.718   5.382 -1.1841  0.4950  0.0824
19411TIP3    H279725   5.743   3.770   5.444 -0.3973 -2.6816  1.3219
19412TIP3   OH279726   2.721   1.156  16.754  0.2145  0.0861  0.2973
19412TIP3    H179727   2.747   1.226  16.694 -0.6260 -0.2841 -0.5314
19412TIP3    H279728   2.802   1.108  16.771  0.5189  0.3598 -0.3287
19413TIP3   OH279729   3.399   2.660  12.168  0.4830 -0.5985  0.2594
19413TIP3    H179730   3.355   2.681  12.251  1.3638  1.5921  0.2457
19413TIP3    H279731   3.460   2.733  12.155  2.2461 -2.2180 -1.0244
19414TIP3   OH279732   5.408   5.617   2.554 -0.1609 -0.2488 -0.3310
19414TIP3    H179733   5.396   5.601   2.460 -0.6194  1.7626 -0.6766
19414TIP3    H279734   5.479   5.681   2.558  0.2489 -0.7561  0.7468
19415TIP3   OH279735   3.915   5.585  12.884  0.2880 -0.4199 -0.4208
19415TIP3    H179736   3.875   5.573  12.970  0.3294  0.3069 -0.2878
19415TIP3    H279737   3.843   5.573  12.822 -0.1038  0.6150 -0.1947
19416TIP3   OH279738   1.703   5.744  14.527 -0.0465 -0.2510 -0.3249
19416TIP3    H179739   1.639   5.724  14.595  1.9531 -1.4360  1.3186
19416TIP3    H279740   1.769   5.675  14.535  0.9846  0.3820 -2.5624
19417TIP3   OH279741   4.076   5.620  15.933  0.5219  0.1134  0.1110
19417TIP3    H179742   4.014   5.635  16.004 -0.1658 -0.3447 -0.3796
19417TIP3    H279743   4.153   5.671  15.957 -0.2833  1.2161  0.4158
19418TIP3   OH279744   2.627   1.286   4.498  0.0868 -0.0654 -0.6044
19418TIP3    H179745   2.643   1.207   4.550  1.2310 -0.1263 -1.0228
19418TIP3    H279746   2.590   1.349   4.560 -0.2791 -0.7228 -0.1337
19419TIP3   OH279747   6.753   1.027  12.960  0.1128  0.4255 -0.1357
19419TIP3    H179748   6.780   1.057  13.047 -0.7422  0.2096  0.2157
19419TIP3    H279749   6.715   0.941  12.975 -0.5745  0.6286 -0.6288
19420TIP3   OH279750   6.679   3.577   2.720  0.1922  0.1876 -0.2415
19420TIP3    H179751   6.766   3.554   2.752  1.3054  1.4301 -2.1852
19420TIP3    H279752   6.654   3.505   2.662  0.3206  0.2354 -0.3577
19421TIP3   OH279753   4.239   3.765  14.456  0.7790  0.1652 -0.0992
19421TIP3    H179754   4.296   3.688  14.456  0.4065 -0.1151  0.5997
19421TIP3    H279755   4.220   3.781  14.548  0.6398  0.9361 -0.2575
19422TIP3   OH279756   5.235   3.622  13.111  0.3109 -0.4710  0.0560
19422TIP3    H179757   5.286   3.671  13.176  3.5000 -2.7523 -0.4828
19422TIP3    H279758   5.245   3.671  13.030  0.8019 -0.3325  0.1961
19423TIP3   OH279759   1.045   5.595   6.225  0.4336 -0.3210  0.0905
19423TIP3    H179760   0.986   5.610   6.152  1.0471 -1.6523 -0.7103
19423TIP3    H279761   1.027   5.667   6.285  1.6994  2.3358 -2.4920
19424TIP3   OH279762   3.968   5.395   5.379  0.9489 -0.0390 -0.0926
19424TIP3    H179763   4.007   5.361   5.459  0.3598 -0.4545  0.0270
19424TIP3    H279764   3.892   5.338   5.363 -0.6893  1.8111  0.6628
19425TIP3   OH279765   0.721   0.010  15.118 -0.1226 -0.4357  0.1786
19425TIP3    H179766   0.636  -0.025  15.091  0.6878 -0.5982 -2.4825
19425TIP3    H279767   0.735   0.085  15.061  1.3739 -0.2080  0.8098
19426TIP3   OH279768   3.222   3.711   1.928 -0.5744 -0.5476  0.4078
19426TIP3    H179769   3.193   3.794   1.967 -0.1935 -0.1379 -0.1645
19426TIP3    H279770   3.165   3.645   1.967  1.9108 -0.7161  4.3365
19427TIP3   OH279771   5.022   4.195   5.783 -0.4264  0.7321 -0.1742
19427TIP3    H179772   5.029   4.162   5.872 -0.7375 -0.1403 -0.4702
19427TIP3    H279773   5.090   4.262   5.777 -0.7747  1.1982  0.8912
19428TIP3   OH279774   6.191   3.844   2.922  0.0902  0.2869 -0.8214
19428TIP3    H179775   6.277   3.803   2.917  0.6680  1.4503 -0.7605
19428TIP3    H279776   6.133   3.776   2.955  1.2529 -0.1392  0.3832
19429TIP3   OH279777   5.085   0.731   0.076  0.1567 -0.2530 -0.3155
19429TIP3    H179778   5.157   0.739   0.014 -0.2577  0.5021 -0.7082
19429TIP3    H279779   5.025   0.669   0.034  0.4597 -0.7088 -0.0896
19430TIP3   OH279780   0.405   4.500  13.128  0.2603 -0.1204  0.3438
19430TIP3    H179781   0.388   4.429  13.189 -0.9092  0.0842  0.2834
19430TIP3    H279782   0.356   4.476  13.049  0.4150  0.4135  0.0779
19431TIP3   OH279783   2.840   0.266  12.898 -0.0514 -0.2881 -0.0641
19431TIP3    H179784   2.896   0.295  12.826  1.6179  1.4482  1.8101
19431TIP3    H279785   2.890   0.198  12.942 -1.0384 -1.2955 -0.4591
19432TIP3   OH279786   5.383   0.755  17.235 -0.3087 -0.3297 -0.2238
19432TIP3    H179787   5.396   0.848  17.251 -0.8383 -0.1691 -0.7309
19432TIP3    H279788   5.342   0.750  17.149  0.8009 -1.0976 -0.7224
19433TIP3   OH279789   3.541   0.113  16.152  0.2252  0.0280  0.1830
19433TIP3    H179790   3.482   0.121  16.077 -0.1956  0.4769  0.5617
19433TIP3    H279791   3.483   0.098  16.227  0.6113  0.1289  0.5058
19434TIP3   OH279792   5.593   4.103  16.490 -0.2364 -0.1361 -0.2508
19434TIP3    H179793   5.500   4.081  16.492 -0.1356 -0.5145  0.7101
19434TIP3    H279794   5.637   4.025  16.524  0.3247  0.5571  0.6637
19435TIP3   OH279795   1.858   3.242  16.153  0.3585  0.0354 -0.0603
19435TIP3    H179796   1.951   3.224  16.164 -0.1542 -2.0200  1.3448
19435TIP3    H279797   1.821   3.235  16.241 -1.4948 -1.7227 -0.8866
19436TIP3   OH279798   1.908   5.744  13.972  0.6884 -0.3282 -0.3292
19436TIP3    H179799   1.860   5.713  14.049 -1.2171  0.6644 -1.0398
19436TIP3    H279800   1.957   5.820  14.004  0.9560 -0.7094  0.1825
19437TIP3   OH279801   4.275   1.208   5.155 -0.2022  0.2143 -0.3973
19437TIP3    H179802   4.277   1.303   5.140 -0.0091  0.2724 -0.0242
19437TIP3    H279803   4.307   1.198   5.244 -0.2488 -0.2035 -0.4281
19438TIP3   OH279804   3.468   0.148   5.962  0.2583  0.3820  0.2057
19438TIP3    H179805   3.427   0.080   5.909  2.1321 -0.2416 -0.5292
19438TIP3    H279806   3.419   0.148   6.044 -0.2554 -1.3231 -0.0689
19439TIP3   OH279807   5.676   5.643   4.068 -0.0124 -0.0001 -0.0555
19439TIP3    H179808   5.752   5.603   4.110 -0.6065 -0.3413  0.7191
19439TIP3    H279809   5.690   5.628   3.974  2.0372  1.9815 -0.1736
19440TIP3   OH279810   0.557   5.672   3.405  0.1654  0.3193  0.2662
19440TIP3    H179811   0.549   5.661   3.500  1.2249 -0.4029  0.2828
19440TIP3    H279812   0.475   5.635   3.370  0.3070 -0.5634  0.8292
19441TIP3   OH279813   1.843   4.223   4.420 -0.8418  0.1299  0.0169
19441TIP3    H179814   1.755   4.194   4.444 -0.6134 -0.2834  0.3723
19441TIP3    H279815   1.872   4.276   4.494  0.3609 -2.1901  1.3319
19442TIP3   OH279816   2.463   3.084   0.349 -0.4887  0.4472  0.7751
19442TIP3    H179817   2.536   3.071   0.289 -0.4409  0.8171  0.7554
19442TIP3    H279818   2.394   3.122   0.295 -1.1801 -1.1330  0.4708
19443TIP3   OH279819   2.026   1.083  15.573  0.1409  0.1921  0.6068
19443TIP3    H179820   2.063   1.004  15.535  0.8919 -0.9450  3.4874
19443TIP3    H279821   1.936   1.059  15.596 -0.7419  1.2727 -1.4683
19444TIP3   OH279822   5.317   6.736   5.567  0.1375 -0.1159 -0.6003
19444TIP3    H179823   5.282   6.798   5.632  0.4440 -0.4398 -0.1276
19444TIP3    H279824   5.376   6.680   5.616  1.5589  0.5838 -1.4393
19445TIP3   OH279825   5.518   5.215  11.483 -0.3189  0.0907 -0.4005
19445TIP3    H179826   5.502   5.130  11.524 -3.2244  0.0829 -1.2842
19445TIP3    H279827   5.512   5.278  11.555 -1.7841 -0.2148 -0.2154
19446TIP3   OH279828   0.324   2.873   4.437  0.5496  0.2270  0.1217
19446TIP3    H179829   0.315   2.814   4.513  0.8326 -1.3128 -0.9911
19446TIP3    H279830   0.415   2.861   4.409 -0.1111 -0.9258 -1.7446
19447TIP3   OH279831   1.432   6.550  10.603  0.4797  0.7323 -0.6275
19447TIP3    H179832   1.415   6.617  10.668  0.6827 -0.5051  0.7593
19447TIP3    H279833   1.368   6.481  10.621  1.0240  0.0388 -1.2495
19448TIP3   OH279834   2.799   1.156   0.360 -0.1156  0.4920  0.2007
19448TIP3    H179835   2.748   1.077   0.344  0.7831 -0.0998  0.1536
19448TIP3    H279836   2.860   1.161   0.286 -1.1693  2.0844 -0.6065
19449TIP3   OH279837   2.477   4.997  13.369 -0.5198 -0.2456 -0.7167
19449TIP3    H179838   2.447   5.070  13.315 -0.8176 -1.1908 -1.8755
19449TIP3    H279839   2.539   5.036  13.430  0.0928  0.8160 -1.9768
19450TIP3   OH279840   5.578   3.804  14.627 -0.2304 -0.5636  0.5868
19450TIP3    H179841   5.627   3.796  14.546 -0.2252 -2.2837  0.7234
19450TIP3    H279842   5.581   3.898  14.648  3.3235 -0.5826  0.7773
19451TIP3   OH279843   4.877   0.328   5.153  0.1206 -0.0980 -0.1984
19451TIP3    H179844   4.834   0.388   5.091 -0.6888  1.5704  1.8652
19451TIP3    H279845   4.873   0.243   5.109 -2.8835  0.4777 -1.3241
19452TIP3   OH279846   4.261   1.337   1.553 -0.1268  0.4036 -0.1536
19452TIP3    H179847   4.282   1.271   1.486 -0.8274  0.2648 -0.2387
19452TIP3    H279848   4.206   1.290   1.616 -2.6865  1.4757 -1.4416
19453TIP3   OH279849   3.819   1.149   4.044  0.3426 -0.3043 -0.4084
19453TIP3    H179850   3.727   1.169   4.023  0.9387  0.8670 -2.1328
19453TIP3    H279851   3.833   1.062   4.006  0.0049 -0.3826 -0.3628
19454TIP3   OH279852   0.919   6.693   1.819  0.5190 -0.0374  0.4658
19454TIP3    H179853   0.943   6.710   1.728  0.7101 -1.1235  0.2929
19454TIP3    H279854   0.911   6.780   1.859  0.1770  0.4634 -0.6460
19455TIP3   OH279855   6.808   3.840  13.497 -0.1954  0.1218 -0.3817
19455TIP3    H179856   6.796   3.891  13.416 -1.7300  0.1295 -0.1654
19455TIP3    H279857   6.903   3.841  13.511 -0.0249  1.3057 -1.4221
19456TIP3   OH279858   6.225   1.876  16.740 -0.6735 -0.1109  0.4803
19456TIP3    H179859   6.235   1.801  16.681  0.7629 -0.1269  0.7232
19456TIP3    H279860   6.133   1.903  16.728 -1.1094 -1.6450  0.0935
19457TIP3   OH279861   3.840   6.554  13.612 -0.0419  0.5127  0.6407
19457TIP3    H179862   3.865   6.471  13.572  0.3969  0.3483  1.2365
19457TIP3    H279863   3.886   6.555  13.696 -1.4157  0.5540  1.4332
19458TIP3   OH279864   2.664   1.287   4.055 -0.6531  0.5383  0.2162
19458TIP3    H179865   2.635   1.306   3.966 -0.6121 -1.6667 -0.3119
19458TIP3    H279866   2.744   1.237   4.045 -1.8802 -1.8584  1.3406
19459TIP3   OH279867   2.020   4.768   3.728 -0.5412  0.1411  0.1813
19459TIP3    H179868   1.966   4.798   3.801  0.6951 -0.4479  1.3778
19459TIP3    H279869   2.107   4.800   3.748 -0.1337 -0.2281 -0.9334
19460TIP3   OH279870   1.520   2.489  13.748 -0.3644  0.2184  0.0933
19460TIP3    H179871   1.574   2.519  13.821  0.3125  0.4956 -0.5109
19460TIP3    H279872   1.433   2.525  13.766 -0.0047  0.9898  0.3328
19461TIP3   OH279873   2.203   2.535  14.999  0.2680  0.2520 -0.7193
19461TIP3    H179874   2.289   2.501  15.025  0.5285  0.3787 -1.4027
19461TIP3    H279875   2.199   2.520  14.905 -1.3772 -1.8010 -0.4049
19462TIP3   OH279876   1.978   6.168   5.916  0.1385  0.0163  0.1369
19462TIP3    H179877   2.012   6.165   6.005 -1.7191  0.8504  0.9209
19462TIP3    H279878   1.886   6.189   5.926 -0.4858 -1.4340 -1.9188
19463TIP3   OH279879   3.500   1.092   1.530  0.1004 -0.2970 -0.6853
19463TIP3    H179880   3.492   1.037   1.608  2.8845 -0.2437 -0.2727
19463TIP3    H279881   3.559   1.162   1.556  0.3593  0.2439 -2.5897
19464TIP3   OH279882   6.411   1.069   0.202 -0.2116  0.3759 -0.6828
19464TIP3    H179883   6.454   0.987   0.181 -0.5898  0.1859 -0.7316
19464TIP3    H279884   6.481   1.126   0.235 -0.1475 -0.3658  0.5341
19465TIP3   OH279885   3.975   0.322  16.701  0.4396  0.6068 -0.2470
19465TIP3    H179886   3.885   0.321  16.668 -0.1845  1.1941  1.3717
19465TIP3    H279887   3.974   0.264  16.777  1.2369  1.2170  0.2466
19466TIP3   OH279888   0.892   2.872   5.782 -0.1380  0.0091 -0.6949
19466TIP3    H179889   0.944   2.850   5.704 -1.7774  1.1152 -2.1870
19466TIP3    H279890   0.894   2.967   5.787  0.3664 -0.0602  0.9683
19467TIP3   OH279891   5.607   6.344  10.741  0.2498 -0.2409 -0.1864
19467TIP3    H179892   5.642   6.323  10.827 -0.3961  0.6010  0.3040
19467TIP3    H279893   5.528   6.291  10.733  0.3450 -0.3667 -0.2822
19468TIP3   OH279894   1.889   5.773   3.016 -0.0923 -0.1641  0.2108
19468TIP3    H179895   1.794   5.771   3.002 -0.1994 -0.2541  0.9307
19468TIP3    H279896   1.905   5.855   3.061  0.2889  0.2600 -0.6732
19469TIP3   OH279897   4.998   1.306   3.445  0.2239 -0.5237 -0.3623
19469TIP3    H179898   5.051   1.349   3.378  2.1017 -2.6124 -0.3471
19469TIP3    H279899   4.914   1.351   3.441  1.7410  2.5645 -0.8274
19470TIP3   OH279900   3.658   1.694  12.683 -0.1387  0.2494 -0.0390
19470TIP3    H179901   3.594   1.668  12.616  0.0295 -0.5088  0.0846
19470TIP3    H279902   3.689   1.611  12.719  0.4531  0.6329  0.3409
19471TIP3   OH279903   5.240   4.070  10.903 -1.2331  0.5451 -0.2754
19471TIP3    H179904   5.196   4.152  10.926 -1.6076  0.1373  0.4936
19471TIP3    H279905   5.219   4.011  10.975  2.0716  0.8776  1.1441
19472TIP3   OH279906   2.986   2.192   3.590 -0.1605  0.4314  0.0278
19472TIP3    H179907   3.013   2.208   3.499  2.8651  1.9484  1.0379
19472TIP3    H279908   2.962   2.100   3.591  1.0108  0.0190 -2.0715
19473TIP3   OH279909   4.734   3.131   4.708  0.3875  0.0209 -0.6070
19473TIP3    H179910   4.658   3.129   4.766  0.6883 -0.2489 -0.2166
19473TIP3    H279911   4.700   3.101   4.624  0.0342  0.0285 -0.4721
19474TIP3   OH279912   2.379   4.132   6.650  0.1964  0.0145  0.2640
19474TIP3    H179913   2.299   4.172   6.684  0.2011 -0.2810  0.6196
19474TIP3    H279914   2.372   4.040   6.673 -0.5263 -0.5157 -1.8650
19475TIP3   OH279915   2.019   3.542  11.406 -0.2081  0.1284 -0.5531
19475TIP3    H179916   2.087   3.553  11.339  1.0279 -0.5826  0.5286
19475TIP3    H279917   1.972   3.625  11.406  0.4210  0.5046 -1.5956
19476TIP3   OH279918   1.143   0.758   3.205 -0.3590  0.0941 -0.1300
19476TIP3    H179919   1.237   0.770   3.221 -0.4801  1.7815 -0.4562
19476TIP3    H279920   1.126   0.667   3.228  1.2899 -0.1476  0.2695
19477TIP3   OH279921   6.373   2.251  12.602  0.2885  0.0199  0.1463
19477TIP3    H179922   6.404   2.299  12.526  1.5987 -1.5292 -0.3583
19477TIP3    H279923   6.439   2.267  12.669  0.4089 -0.5472  0.1689
19478TIP3   OH279924   3.867   4.356   0.163  0.4259  0.3508  0.0291
19478TIP3    H179925   3.878   4.322   0.074  1.9394 -0.9873  0.6881
19478TIP3    H279926   3.787   4.313   0.195 -0.1180  0.8245 -0.6590
19479TIP3   OH279927   3.321   5.831  17.192 -0.4027  0.0306 -0.2384
19479TIP3    H179928   3.302   5.924  17.204  0.1098  0.0439  0.4730
19479TIP3    H279929   3.414   5.822  17.210 -0.4707 -0.6426 -0.1859
19480TIP3   OH279930   0.894   2.169   4.849  0.1407  0.4905 -0.0508
19480TIP3    H179931   0.864   2.194   4.937 -0.1219 -0.5690  0.1666
19480TIP3    H279932   0.816   2.175   4.794 -0.1498 -0.7346  0.1971
19481TIP3   OH279933   3.236   5.463  10.999 -0.5182 -0.7342  0.4917
19481TIP3    H179934   3.226   5.396  11.066  2.1083  0.1125  1.9062
19481TIP3    H279935   3.236   5.546  11.048  0.6381 -0.0274 -0.6311
19482TIP3   OH279936   0.067   2.776   4.082 -0.3945 -0.2627  0.3050
19482TIP3    H179937   0.112   2.695   4.058  1.2817  1.1137 -1.5466
19482TIP3    H279938  -0.001   2.786   4.016 -0.7521 -0.2725  0.6695
19483TIP3   OH279939   1.823   3.312  11.848  0.3339 -0.7013 -0.2670
19483TIP3    H179940   1.757   3.324  11.779 -1.4758 -1.1340  1.2781
19483TIP3    H279941   1.820   3.394  11.897  1.0360 -0.6863 -0.2484
19484TIP3   OH279942   0.805   0.578  16.245 -0.4395 -0.0852  0.0348
19484TIP3    H179943   0.713   0.557  16.228 -0.2582 -2.0004  1.1102
19484TIP3    H279944   0.834   0.511  16.307  1.6080  0.6653 -0.0239
19485TIP3   OH279945   3.057   2.897  15.769 -0.8200  0.4993 -0.1103
19485TIP3    H179946   3.074   2.974  15.823 -0.5981  0.5264 -0.2185
19485TIP3    H279947   3.128   2.897  15.704 -0.8447  0.2278 -0.1358
19486TIP3   OH279948   4.807   4.714   2.056  0.0293  0.5817 -0.0216
19486TIP3    H179949   4.735   4.691   1.997  0.2051  1.1999 -0.4809
19486TIP3    H279950   4.886   4.699   2.004  0.1619  1.9925 -0.2709
19487TIP3   OH279951   6.199   6.765   2.413  0.5134 -0.5116  0.3530
19487TIP3    H179952   6.185   6.702   2.342  0.0785  0.2084 -0.2239
19487TIP3    H279953   6.251   6.835   2.373 -0.8976  0.5778  0.3222
19488TIP3   OH279954   4.830   0.860   3.644 -0.3300  0.1532 -0.4135
19488TIP3    H179955   4.887   0.785   3.663 -1.6972 -0.5490  1.2534
19488TIP3    H279956   4.755   0.822   3.598 -1.3608  0.3383  1.0513
19489TIP3   OH279957   5.865   3.339  10.670 -0.8312 -0.2362 -0.6252
19489TIP3    H179958   5.779   3.383  10.670 -1.7722 -1.9859 -0.2512
19489TIP3    H279959   5.880   3.317  10.762 -0.3510 -0.6294 -0.7942
19490TIP3   OH279960   4.756   5.125   4.426  0.5588 -0.0347  0.0500
19490TIP3    H179961   4.725   5.055   4.484  1.0568 -0.7941 -0.5739
19490TIP3    H279962   4.701   5.119   4.349  1.4744 -0.6584 -0.5846
19491TIP3   OH279963   2.170   1.090  11.870  0.1725 -0.0372  0.1246
19491TIP3    H179964   2.095   1.143  11.898  0.4339  1.2105 -1.4253
19491TIP3    H279965   2.173   1.018  11.933 -2.7094 -0.4851 -0.1295
19492TIP3   OH279966   3.675   2.517  13.528 -0.3764 -0.2748 -0.0302
19492TIP3    H179967   3.642   2.472  13.451  1.1833 -1.0079 -0.3228
19492TIP3    H279968   3.650   2.462  13.602  0.5617 -1.0769 -0.2912
19493TIP3   OH279969   4.514   4.049   0.596  0.3131  0.0291  0.4463
19493TIP3    H179970   4.505   4.099   0.515  0.2226 -0.4903  0.1313
19493TIP3    H279971   4.561   4.108   0.655  0.1900  0.4933  0.0932
19494TIP3   OH279972   1.670   1.675   0.900  0.1171 -0.6602  0.0589
19494TIP3    H179973   1.624   1.665   0.817 -1.6004 -0.1520  0.8979
19494TIP3    H279974   1.603   1.706   0.961  1.6170  0.2442  1.3317
19495TIP3   OH279975   5.086   2.044   0.688  0.7372 -0.0847 -0.5384
19495TIP3    H179976   5.128   2.041   0.603  2.0813 -0.7704  0.1122
19495TIP3    H279977   4.994   2.026   0.671  0.9269  0.1487 -1.8653
19496TIP3   OH279978   0.908   0.450   0.036  0.4348  0.0324 -0.3805
19496TIP3    H179979   0.988   0.443   0.087  0.3581  1.0838 -0.0814
19496TIP3    H279980   0.871   0.362   0.035  2.2901 -0.7919 -1.6962
19497TIP3   OH279981   3.653   2.502   3.194  0.2489  0.0283  0.7462
19497TIP3    H179982   3.573   2.524   3.241  0.6706  1.2730  0.9229
19497TIP3    H279983   3.624   2.485   3.104 -0.3850 -1.0251  1.1279
19498TIP3   OH279984   4.719   0.773  14.533 -0.1008 -1.0790  0.4083
19498TIP3    H179985   4.657   0.701  14.542 -0.9937 -0.3211  0.5136
19498TIP3    H279986   4.676   0.834  14.473 -0.7099  0.7358  2.5472
19499TIP3   OH279987   6.150   4.697   1.097 -0.0911  0.7082 -0.3611
19499TIP3    H179988   6.189   4.757   1.161 -0.1124  0.1142  0.2249
19499TIP3    H279989   6.200   4.710   1.017  2.6025 -1.3464  0.8532
19500TIP3   OH279990   1.086   5.626   2.409 -0.0535 -1.1434 -0.3778
19500TIP3    H179991   1.138   5.580   2.343 -0.9506 -2.1824 -0.3855
19500TIP3    H279992   1.053   5.557   2.466 -1.2424 -0.4890 -0.2421
19501TIP3   OH279993   2.092   2.323  14.249  0.3133 -0.4363  0.2623
19501TIP3    H179994   2.037   2.343  14.173 -1.2128 -0.7960  1.2397
19501TIP3    H279995   2.063   2.383  14.317  1.3630 -0.4175  0.7055
19502TIP3   OH279996   0.156   4.242  14.294  0.1692  0.5041  0.5917
19502TIP3    H179997   0.186   4.250  14.204 -1.4596  1.6757  0.0967
19502TIP3    H279998   0.152   4.148  14.311  1.8449  0.2852 -0.0450
19503TIP3   OH279999   0.050   6.638   4.847  0.0587  0.0183 -0.1168
19503TIP3    H180000   0.040   6.544   4.860 -1.8069  0.3241  1.1737
19503TIP3    H280001   0.137   6.648   4.807  1.9590 -1.9799  3.0602
19504TIP3   OH280002   4.224   3.761   0.937  0.4495 -0.2205  0.0942
19504TIP3    H180003   4.205   3.801   1.022 -0.2339  0.5784 -0.4114
19504TIP3    H280004   4.146   3.709   0.918  0.5419 -0.2859 -0.1024
19505TIP3   OH280005   2.913   1.897  13.356 -0.3893  0.1782 -0.1434
19505TIP3    H180006   2.954   1.941  13.430 -0.8430 -1.2019  0.9714
19505TIP3    H280007   2.982   1.893  13.290  0.2856  0.7003  0.5167
19506TIP3   OH280008   0.516   6.226   6.224 -0.0664  0.7624 -0.7355
19506TIP3    H180009   0.534   6.149   6.278 -1.6478  0.9731  0.1378
19506TIP3    H280010   0.597   6.278   6.229  0.0373  0.4980  1.0006
19507TIP3   OH280011   1.029   2.871  11.113  0.2483 -0.0457  0.2692
19507TIP3    H180012   1.111   2.909  11.146 -0.0842 -1.8306  3.5764
19507TIP3    H280013   1.037   2.778  11.132 -1.8476 -0.5453 -1.0310
19508TIP3   OH280014   0.811   1.246   5.908 -0.7432  0.0069  0.1020
19508TIP3    H180015   0.857   1.296   5.975  1.0493  0.4609 -1.3497
19508TIP3    H280016   0.815   1.302   5.830 -2.8677 -0.4311 -0.3684
19509TIP3   OH280017   1.766   1.128  15.000 -0.0677 -0.5589 -0.3926
19509TIP3    H180018   1.698   1.076  15.044 -0.7857 -0.4715 -1.3549
19509TIP3    H280019   1.822   1.160  15.071 -1.6098  0.1974  0.5447
19510TIP3   OH280020   1.609   0.734  12.538 -0.1761 -0.4985  0.3822
19510TIP3    H180021   1.579   0.806  12.482 -0.0529 -0.0876  0.8336
19510TIP3    H280022   1.641   0.667  12.478  0.0840 -0.0041 -0.0327
19511TIP3   OH280023   1.162   1.889   4.835 -0.4414  0.2088 -0.0180
19511TIP3    H180024   1.149   1.944   4.912  2.5608 -1.0158  1.5352
19511TIP3    H280025   1.155   1.799   4.869 -0.4633 -0.3717 -1.4960
19512TIP3   OH280026   6.124   0.297   3.860  0.9019 -0.5264 -0.2553
19512TIP3    H180027   6.139   0.387   3.829 -0.1243 -0.3202 -0.1921
19512TIP3    H280028   6.104   0.307   3.953  3.5108 -1.1026  0.4451
19513TIP3   OH280029   4.892   2.633  16.988 -0.2012  0.4712 -0.3696
19513TIP3    H180030   4.938   2.560  16.947  0.9404  1.4295 -0.8574
19513TIP3    H280031   4.959   2.678  17.040 -1.2544  0.2624  1.2188
19514TIP3   OH280032   1.035   4.445  16.575 -0.3996 -0.0936 -0.0448
19514TIP3    H180033   1.073   4.502  16.642  0.0876 -0.8549  0.3471
19514TIP3    H280034   0.999   4.505  16.510  0.3577  0.6539  0.2061
19515TIP3   OH280035   2.748   5.297  11.413  0.4803 -0.3856  0.4717
19515TIP3    H180036   2.803   5.237  11.462 -0.5253 -1.2248  0.5941
19515TIP3    H280037   2.668   5.305  11.465  0.6413  1.1818  0.5383
19516TIP3   OH280038   5.946   1.604  15.130  0.0223 -0.1555  0.0245
19516TIP3    H180039   6.021   1.638  15.081 -0.2265  1.6150  0.7825
19516TIP3    H280040   5.919   1.527  15.082  2.0214 -0.5643 -0.5460
19517TIP3   OH280041   4.592   0.057  11.419 -0.4246 -0.3560  0.4152
19517TIP3    H180042   4.666   0.002  11.394  2.2040  2.1976  1.8361
19517TIP3    H280043   4.583   0.119  11.346  0.5988  0.8887  1.2995
19518TIP3   OH280044   2.927   6.390  11.584  0.4354  0.3327 -0.4386
19518TIP3    H180045   2.968   6.476  11.590  0.7879  0.1746 -0.5254
19518TIP3    H280046   2.842   6.400  11.626  1.0659  0.3432  0.8870
19519TIP3   OH280047   4.927   1.857   5.025 -0.3538 -0.5007  0.0967
19519TIP3    H180048   4.908   1.766   5.046 -0.9392 -0.6559 -0.9907
19519TIP3    H280049   5.021   1.858   5.004  0.2409 -0.3370  2.5305
19520TIP3   OH280050   3.778   4.984  17.150 -0.1795  0.0239 -0.1540
19520TIP3    H180051   3.835   5.049  17.109 -0.0566 -0.8198 -1.3927
19520TIP3    H280052   3.692   5.001  17.111 -0.0334 -0.8817 -0.8933
19521TIP3   OH280053   5.403   5.049   3.584  0.6747 -0.2651 -0.3812
19521TIP3    H180054   5.483   5.047   3.636  0.8946  0.5243 -0.6773
19521TIP3    H280055   5.395   5.140   3.556  0.2702 -0.5731 -1.2884
19522TIP3   OH280056   3.035   1.121  14.450 -0.1072 -0.3668 -0.7894
19522TIP3    H180057   3.021   1.147  14.541  0.5422  1.6037 -1.2043
19522TIP3    H280058   3.126   1.142  14.432  0.7713 -3.7967 -1.0046
19523TIP3   OH280059   2.677   2.369   1.377  0.1583  0.4659 -0.1390
19523TIP3    H180060   2.721   2.394   1.295  0.1927  0.5439 -0.0970
19523TIP3    H280061   2.748   2.345   1.436  0.0876 -0.4745 -0.4235
19524TIP3   OH280062   0.724   4.456  10.764 -0.4764 -0.1322  0.2311
19524TIP3    H180063   0.790   4.468  10.697 -0.3935  0.4501  0.4135
19524TIP3    H280064   0.664   4.391  10.727  0.1495 -0.6058  0.0373
19525TIP3   OH280065   0.144   4.022   4.912  0.5824 -0.4638 -0.2013
19525TIP3    H180066   0.186   4.094   4.958  0.0368 -0.1568 -0.1812
19525TIP3    H280067   0.214   3.958   4.899  1.4120  0.6420 -1.4397
19526TIP3   OH280068   2.261   1.682   0.106 -0.2308 -0.0226 -0.2740
19526TIP3    H180069   2.299   1.694   0.019 -2.5310  1.9154 -1.1055
19526TIP3    H280070   2.181   1.632   0.091 -0.3280 -0.2280  0.8218
19527TIP3   OH280071   3.168   0.232  15.532 -0.1425 -0.1564  0.4678
19527TIP3    H180072   3.224   0.255  15.607  1.0408 -1.0530 -0.1214
19527TIP3    H280073   3.225   0.181  15.474 -1.3857 -0.4954 -0.4844
19528TIP3   OH280074   6.435   0.817   1.096  0.5587  0.0271  0.6687
19528TIP3    H180075   6.513   0.807   1.151  1.3727 -1.3872 -0.6614
19528TIP3    H280076   6.387   0.735   1.108 -0.0827  0.3742  0.5093
19529TIP3   OH280077   0.033   3.062   6.517  0.7551  0.0834  0.0306
19529TIP3    H180078   0.128   3.058   6.525  1.0516 -0.3585 -2.5521
19529TIP3    H280079   0.015   3.019   6.433 -1.3207  3.5869 -1.5374
19530TIP3   OH280080   0.905   1.569   4.106  0.1294  0.1385 -0.3621
19530TIP3    H180081   0.930   1.597   4.194  1.1208  0.5144 -0.7592
19530TIP3    H280082   0.987   1.545   4.063 -0.1289  1.6220 -1.7741
19531TIP3   OH280083   3.587   2.568  14.978 -0.2943 -0.1500  0.1321
19531TIP3    H180084   3.578   2.476  15.003  0.8479  0.2517  2.2396
19531TIP3    H280085   3.646   2.567  14.903 -1.2739 -1.1997 -0.6562
19532TIP3   OH280086   5.246   6.691   3.668 -0.5665 -0.5664 -0.1965
19532TIP3    H180087   5.159   6.730   3.680 -2.2342 -4.2034  0.9785
19532TIP3    H280088   5.267   6.652   3.753  1.6065 -0.9285 -0.8393
19533TIP3   OH280089   2.936   2.750  16.904  0.0503  0.7711 -0.0710
19533TIP3    H180090   2.863   2.689  16.892 -0.1123  0.5519  1.8041
19533TIP3    H280091   2.908   2.831  16.861 -0.1724 -0.1037 -1.6550
19534TIP3   OH280092   4.636   3.986  11.708  0.3694  0.0510  0.5432
19534TIP3    H180093   4.564   4.046  11.722  0.0385 -0.2955  0.3475
19534TIP3    H280094   4.640   3.976  11.612  1.1248  0.6117  0.5067
19535TIP3   OH280095   3.062   5.048   3.823  0.4014 -0.1619 -0.3146
19535TIP3    H180096   3.007   5.034   3.900 -0.2344 -0.7042 -0.8548
19535TIP3    H280097   3.144   5.003   3.844  1.6344  2.6559  1.5044
19536TIP3   OH280098   0.773   0.800  11.444  0.5206  0.0872  0.3012
19536TIP3    H180099   0.680   0.817  11.427  0.4069  0.4970  1.3009
19536TIP3    H280100   0.794   0.726  11.387 -0.2620  0.3665 -0.3780
19537TIP3   OH280101   4.996   5.152   1.458  0.3380  0.1738  0.1367
19537TIP3    H180102   4.979   5.200   1.377 -0.0928 -1.9523 -1.1047
19537TIP3    H280103   4.909   5.136   1.495  0.2433 -1.5331 -0.6799
19538TIP3   OH280104   4.740   0.362  16.182  0.1972  0.1635 -0.1105
19538TIP3    H180105   4.826   0.403  16.186  0.6647 -0.7493 -0.5799
19538TIP3    H280106   4.754   0.272  16.209 -0.0889 -0.7503 -2.7330
19539TIP3   OH280107   0.928   4.450  12.830  0.0357  0.3975  0.1243
19539TIP3    H180108   1.018   4.423  12.848  0.0653 -0.1226 -0.7743
19539TIP3    H280109   0.880   4.425  12.909  0.7333  0.9788  0.7425
19540TIP3   OH280110   4.486   2.535   2.449  0.0353 -0.2010  0.0823
19540TIP3    H180111   4.505   2.578   2.532 -0.4218  0.0994  0.0366
19540TIP3    H280112   4.481   2.607   2.385 -1.1378 -0.2567  0.0776
19541TIP3   OH280113   4.478   1.406   1.682 -0.0905  0.1553 -0.1124
19541TIP3    H180114   4.490   1.501   1.687  1.0230 -0.0257  1.2881
19541TIP3    H280115   4.406   1.394   1.620  1.0973  1.8063 -1.9131
19542TIP3   OH280116   5.599   2.457  15.063 -0.1754 -0.9055 -0.2159
19542TIP3    H180117   5.530   2.488  15.120 -2.0481 -1.1608 -2.2030
19542TIP3    H280118   5.679   2.462  15.116 -1.7880 -1.3498  2.4375
19543TIP3   OH280119   6.187   0.901  12.683 -0.0520  0.2187  0.1862
19543TIP3    H180120   6.112   0.960  12.676 -0.9325 -0.7567  1.0537
19543TIP3    H280121   6.226   0.922  12.767  1.2530  1.3683 -0.6661
19544TIP3   OH280122   1.115   6.433  13.195  0.4216  0.0726 -0.0116
19544TIP3    H180123   1.113   6.421  13.290 -1.0073  0.7069  0.0600
19544TIP3    H280124   1.137   6.525  13.183 -0.9573  0.3978 -0.2309
19545TIP3   OH280125   6.232   2.035   4.252  0.5358 -1.0910 -0.0590
19545TIP3    H180126   6.184   2.107   4.293  2.1585  0.7857 -1.3002
19545TIP3    H280127   6.320   2.041   4.288  1.5237 -0.4763 -2.3680
19546TIP3   OH280128   3.974   1.164   4.786  0.1054  0.5290  0.5536
19546TIP3    H180129   4.054   1.164   4.733  0.2633  2.1446  0.7503
19546TIP3    H280130   3.910   1.212   4.734 -0.5463 -0.1406  0.7108
19547TIP3   OH280131   6.270   4.463  14.087 -0.6527 -0.2768 -0.4130
19547TIP3    H180132   6.335   4.502  14.028 -0.0400 -0.6904 -0.0302
19547TIP3    H280133   6.297   4.371  14.093 -0.0039 -0.0084  1.4133
19548TIP3   OH280134   2.043   3.741  12.468 -0.5414 -0.5133  0.4235
19548TIP3    H180135   2.106   3.717  12.401 -2.9075 -2.5244 -1.2510
19548TIP3    H280136   2.007   3.825  12.439 -0.3140 -0.5139  0.1401
19549TIP3   OH280137   5.425   5.143   4.287 -0.1516 -0.1396  0.0386
19549TIP3    H180138   5.466   5.154   4.373  0.0777 -2.3058  0.2481
19549TIP3    H280139   5.377   5.061   4.293 -0.2513 -0.2677 -1.8612
19550TIP3   OH280140   5.379   6.725  11.044 -0.2034  0.9158 -0.0910
19550TIP3    H180141   5.345   6.673  11.118  1.8250  1.3280  1.2056
19550TIP3    H280142   5.310   6.719  10.978 -2.4584  1.1272  2.0818
19551TIP3   OH280143   5.768   0.360  11.265 -0.6626  0.6621  0.2004
19551TIP3    H180144   5.722   0.289  11.310 -1.0043 -0.7324 -2.1837
19551TIP3    H280145   5.858   0.353  11.297 -0.6328 -1.0270 -0.1406
19552TIP3   OH280146   3.750   5.451   2.512  0.0729 -0.4482 -0.4552
19552TIP3    H180147   3.730   5.537   2.476  1.4241  0.2767  0.4405
19552TIP3    H280148   3.821   5.467   2.575  0.7451 -2.2826 -0.6760
19553TIP3   OH280149   3.030   2.132  12.666  0.3598  0.0971  0.6008
19553TIP3    H180150   3.009   2.105  12.576 -0.6847 -2.0271  1.4108
19553TIP3    H280151   2.946   2.130  12.712  0.9729  0.5652  1.7826
19554TIP3   OH280152   4.839   5.503   5.354 -0.3044 -0.1344  0.4070
19554TIP3    H180153   4.872   5.449   5.281 -1.6767  0.0747 -0.4082
19554TIP3    H280154   4.744   5.497   5.346 -0.4699  1.2283  1.1982
19555TIP3   OH280155   1.359   4.533   3.233  0.4337 -0.1189  0.4219
19555TIP3    H180156   1.281   4.526   3.287  1.2263 -0.8759  1.5113
19555TIP3    H280157   1.326   4.547   3.144 -1.0534 -3.2541  0.3543
19556TIP3   OH280158   0.303   6.448   0.322  0.1407 -0.4846 -0.2856
19556TIP3    H180159   0.380   6.423   0.371 -0.4821  1.3036  1.7550
19556TIP3    H280160   0.230   6.403   0.365 -0.2430 -0.1512 -0.5704
19557TIP3   OH280161   0.041   5.004  17.062  0.0547  0.6095  0.3452
19557TIP3    H180162   0.037   5.078  17.122 -1.3160  0.0875  0.9375
19557TIP3    H280163   0.040   5.043  16.975 -0.2546  1.3080  0.6561
19558TIP3   OH280164   3.744   3.103  15.552  0.3314  0.0068 -0.3987
19558TIP3    H180165   3.656   3.115  15.588  0.3494  0.4699 -0.5086
19558TIP3    H280166   3.801   3.150  15.612  0.4594  0.0542 -0.5576
19559TIP3   OH280167   1.974   3.899  13.235 -0.4721 -0.0304 -0.4809
19559TIP3    H180168   2.012   3.986  13.226  0.0125  0.2623  3.2035
19559TIP3    H280169   1.887   3.913  13.273 -0.2834 -1.1542  0.4310
19560TIP3   OH280170   5.175   0.394   6.010 -0.5593 -0.0045 -0.3192
19560TIP3    H180171   5.224   0.467   5.971 -0.8024  0.8719  0.9330
19560TIP3    H280172   5.179   0.411   6.105  0.5308 -2.3547  0.1356
19561TIP3   OH280173   0.651   5.436   0.093  0.3123  0.3516  0.3488
19561TIP3    H180174   0.588   5.441   0.165 -0.1735 -1.3932  0.1031
19561TIP3    H280175   0.602   5.462   0.016 -0.1314 -0.9254  0.1710
19562TIP3   OH280176   2.177   1.616  11.748 -0.0737 -0.3537 -0.0187
19562TIP3    H180177   2.134   1.531  11.738 -0.1058 -0.1511 -1.9606
19562TIP3    H280178   2.109   1.673  11.783 -0.1020 -1.0680  1.1425
19563TIP3   OH280179   5.952   0.441  12.243  0.1239 -0.2520  0.3009
19563TIP3    H180180   6.013   0.390  12.190  0.5650  0.1129  0.4453
19563TIP3    H280181   5.867   0.427  12.203  0.6091  0.9844 -1.2902
19564TIP3   OH280182   6.115   6.547   0.085  0.4268 -0.4116  0.2449
19564TIP3    H180183   6.075   6.624   0.124  1.0207  0.6028 -1.0388
19564TIP3    H280184   6.142   6.576  -0.003 -1.6756 -2.7991 -1.3294
19565TIP3   OH280185   6.375   3.627  13.058 -0.1410 -0.1442 -0.2873
19565TIP3    H180186   6.375   3.688  13.132 -0.6972 -2.3692  1.6675
19565TIP3    H280187   6.463   3.592  13.056 -0.5909 -1.3855  0.5129
19566TIP3   OH280188   6.379   5.109   6.011 -0.1848  0.4137 -0.7563
19566TIP3    H180189   6.380   5.080   6.102 -1.7388 -1.5234 -1.3020
19566TIP3    H280190   6.299   5.161   6.003 -0.4616 -0.0743 -1.1986
19567TIP3   OH280191   0.442   6.013   4.556 -0.3873 -0.4093  0.1335
19567TIP3    H180192   0.499   6.025   4.480 -1.8196  0.0193 -0.9296
19567TIP3    H280193   0.425   5.919   4.559 -0.0553 -0.4695  0.1176
19568TIP3   OH280194   5.301   5.675   3.180 -0.1395  0.1309 -0.1659
19568TIP3    H180195   5.305   5.585   3.212  0.4677  0.5281  0.9621
19568TIP3    H280196   5.259   5.669   3.094 -0.9248 -1.1138  0.2792
19569TIP3   OH280197   6.412   6.073  16.210  0.0142  0.5460  0.1018
19569TIP3    H180198   6.502   6.105  16.206 -0.2131  1.2283  0.2148
19569TIP3    H280199   6.383   6.073  16.118  0.6508 -1.2792 -0.1405
19570TIP3   OH280200   6.007   3.675   1.056  0.0558  0.1381 -0.6163
19570TIP3    H180201   5.965   3.591   1.042  0.5511 -0.0058 -1.3091
19570TIP3    H280202   6.032   3.675   1.149 -0.4759 -0.2260 -0.4737
19571TIP3   OH280203   5.448   5.164  17.160  0.0297  0.1617 -0.4756
19571TIP3    H180204   5.476   5.090  17.106  2.1549 -2.1801  3.3775
19571TIP3    H280205   5.516   5.231  17.147 -1.0737  0.9381 -2.7806
19572TIP3   OH280206   3.763   3.681  15.726 -0.3726  0.3677 -0.4741
19572TIP3    H180207   3.850   3.680  15.688 -0.8611  0.9054 -1.6503
19572TIP3    H280208   3.718   3.607  15.685 -0.6334  0.4059 -0.2602
19573TIP3   OH280209   0.431   6.019   0.131 -0.3005 -0.2880 -0.0513
19573TIP3    H180210   0.371   6.056   0.066  2.1737 -0.1537 -2.4439
19573TIP3    H280211   0.422   5.924   0.121  0.0655 -0.2671 -0.6067
19574TIP3   OH280212   2.719   1.384   2.251  0.1702  0.4533  0.1227
19574TIP3    H180213   2.767   1.304   2.270  1.5285  1.0942 -0.5060
19574TIP3    H280214   2.691   1.374   2.160  0.3827  0.7061  0.0284
19575TIP3   OH280215   0.485   3.566  15.633  0.2525  0.5613  0.2752
19575TIP3    H180216   0.578   3.543  15.638  0.1477  0.1104  0.2026
19575TIP3    H280217   0.440   3.486  15.661 -0.3381 -1.1933 -4.7616
19576TIP3   OH280218   5.747   2.466   5.030  0.2467  0.2310 -0.4675
19576TIP3    H180219   5.840   2.443   5.024  0.8539  1.0377  3.2855
19576TIP3    H280220   5.744   2.559   5.006  0.2064 -0.0348 -1.5367
19577TIP3   OH280221   0.079   3.324   3.392  0.1288  0.0170 -0.2609
19577TIP3    H180222   0.159   3.370   3.366 -0.6430  1.5279 -0.0618
19577TIP3    H280223   0.053   3.277   3.313  1.4116 -0.8267 -0.2155
19578TIP3   OH280224   5.533   4.337  16.958  0.1109 -0.4406 -0.0907
19578TIP3    H180225   5.597   4.284  16.910 -0.8820 -1.6085 -0.1919
19578TIP3    H280226   5.538   4.423  16.917  0.2490 -1.0360 -1.3907
19579TIP3   OH280227   4.103   2.889  12.489  0.1904  0.4550 -0.2474
19579TIP3    H180228   4.063   2.946  12.424  1.1357  2.1021  0.5389
19579TIP3    H280229   4.158   2.829  12.437 -2.7349 -1.5205 -1.2862
19580TIP3   OH280230   5.700   6.443   3.143 -0.3947  0.2986  0.3994
19580TIP3    H180231   5.689   6.416   3.051  2.4267  0.0219  0.0672
19580TIP3    H280232   5.672   6.534   3.145 -0.5296  0.2946 -0.7169
19581TIP3   OH280233   5.078   3.780  12.661  0.3122  0.1759 -0.7351
19581TIP3    H180234   5.017   3.771  12.587 -0.3449  0.0970 -0.1883
19581TIP3    H280235   5.053   3.711  12.722  0.7963  0.2946 -0.3976
19582TIP3   OH280236   2.290   0.578  13.650 -0.2018  0.1073  0.0622
19582TIP3    H180237   2.264   0.597  13.740  0.1817 -1.4318  0.5249
19582TIP3    H280238   2.258   0.653  13.600  0.2200  1.3624  1.5719
19583TIP3   OH280239   2.176   4.956  10.759  0.7922  0.0334 -0.6216
19583TIP3    H180240   2.226   4.898  10.817  1.7960  0.5781 -0.9099
19583TIP3    H280241   2.201   5.044  10.787  0.3642  0.3115 -1.1065
19584TIP3   OH280242   4.187   2.223   0.771  0.3784 -0.2811 -0.2789
19584TIP3    H180243   4.265   2.167   0.767  0.6269  0.0595 -0.2599
19584TIP3    H280244   4.194   2.267   0.856  0.3076 -0.0509 -0.3907
19585TIP3   OH280245   6.773   0.321  13.879  0.6164 -0.5804  0.2765
19585TIP3    H180246   6.806   0.248  13.826  1.1039  0.0095 -0.2472
19585TIP3    H280247   6.841   0.335  13.945  0.9487 -0.0377 -0.1676
19586TIP3   OH280248   3.761   4.282   0.999 -0.3075  0.2568 -0.4620
19586TIP3    H180249   3.710   4.206   0.970  1.3877 -0.5957 -1.3242
19586TIP3    H280250   3.837   4.245   1.043  1.0075  1.3807 -1.6838
19587TIP3   OH280251   3.739   4.563   0.832  0.1123  0.0038  0.6272
19587TIP3    H180252   3.678   4.593   0.901 -0.8782  1.3913 -0.7703
19587TIP3    H280253   3.688   4.500   0.781  0.4672 -0.2027  0.5266
19588TIP3   OH280254   1.841   2.298  13.499  0.3397  0.0030  0.2782
19588TIP3    H180255   1.810   2.384  13.528  0.6568 -0.3306  1.6786
19588TIP3    H280256   1.785   2.235  13.544  1.5868 -0.5608  1.1148
19589TIP3   OH280257   0.410   6.004   3.442  0.2276  0.9290 -0.3409
19589TIP3    H180258   0.470   6.011   3.516 -1.7056  1.9500  1.2068
19589TIP3    H280259   0.389   5.910   3.437  1.8909  0.5431 -0.9385
19590TIP3   OH280260   3.721   6.300   0.646  0.2398  0.7367 -0.1904
19590TIP3    H180261   3.787   6.336   0.586  0.3439  1.0789  0.1279
19590TIP3    H280262   3.769   6.285   0.728 -0.9863  5.6248  1.7747
19591TIP3   OH280263   1.918   6.799   2.482  0.5822  0.3757  1.0723
19591TIP3    H180264   1.848   6.834   2.426  1.1729 -0.3741 -0.1762
19591TIP3    H280265   1.892   6.709   2.499  0.3487  0.6326  2.1425
19592TIP3   OH280266   4.202   3.527  16.187 -0.6010  0.2561 -0.1005
19592TIP3    H180267   4.284   3.493  16.223 -0.9118  0.5480  0.9073
19592TIP3    H280268   4.133   3.488  16.241 -1.1488 -0.1120 -1.0422
19593TIP3   OH280269   2.190   4.908   5.653  0.1791  0.0372 -0.1036
19593TIP3    H180270   2.258   4.911   5.720  0.8458 -1.0580 -0.7017
19593TIP3    H280271   2.214   4.975   5.590  0.3850  0.0428 -0.0167
19594TIP3   OH280272   5.715   0.576   0.287 -0.0758  0.1418  0.6836
19594TIP3    H180273   5.651   0.627   0.336 -2.1921  0.5754 -2.2834
19594TIP3    H280274   5.732   0.627   0.208 -1.3042 -2.9862 -1.8210
19595TIP3   OH280275   4.283   6.502  13.487 -0.4311  0.2650  0.3426
19595TIP3    H180276   4.211   6.564  13.500  0.0425  1.0649 -0.7104
19595TIP3    H280277   4.254   6.446  13.415  0.9877  2.2325 -1.8919
19596TIP3   OH280278   1.822   1.348  14.392  0.2507 -0.0350  0.5135
19596TIP3    H180279   1.840   1.393  14.309 -0.3457  1.4716  1.1783
19596TIP3    H280280   1.729   1.363  14.408  0.0803 -1.3653  0.8667
19597TIP3   OH280281   5.004   5.011  16.383 -0.7528  0.2374  0.1701
19597TIP3    H180282   4.967   4.949  16.320  0.0257 -0.6014  0.5029
19597TIP3    H280283   5.031   4.956  16.457  0.9900  0.8140  0.0012
19598TIP3   OH280284   3.766   0.695   1.192  0.5463  0.3754 -0.4569
19598TIP3    H180285   3.744   0.728   1.104 -0.0879 -1.2577 -0.9387
19598TIP3    H280286   3.854   0.658   1.182  0.8501  1.0022 -0.1622
19599TIP3   OH280287   5.066   2.124   3.585 -0.2298 -0.5971  0.6177
19599TIP3    H180288   5.052   2.127   3.491  0.7780  0.2535  0.4659
19599TIP3    H280289   5.103   2.037   3.602  1.7785  0.0449 -0.1519
19600TIP3   OH280290   4.093   6.635  10.707 -0.1945 -0.7395  0.3904
19600TIP3    H180291   4.058   6.673  10.788 -0.5403 -0.2810  0.0234
19600TIP3    H280292   4.032   6.565  10.685 -1.7782  1.0229 -1.0770
19601TIP3   OH280293   0.062   6.435   2.983 -0.1451 -0.0398 -0.5028
19601TIP3    H180294  -0.015   6.417   2.930 -0.6409 -1.9351  0.7481
19601TIP3    H280295   0.129   6.462   2.921 -1.2436 -0.3221 -1.8459
19602TIP3   OH280296   1.461   3.527  16.413  0.0626  0.1373 -0.3861
19602TIP3    H180297   1.477   3.465  16.342 -1.1765  0.1258 -0.6915
19602TIP3    H280298   1.521   3.600  16.396  1.3868 -0.8640 -0.1344
19603TIP3   OH280299   5.980   5.472  17.089  0.3215 -0.2679  0.4306
19603TIP3    H180300   5.939   5.428  17.015 -0.8200  1.8574 -0.2905
19603TIP3    H280301   6.067   5.496  17.057  0.2128 -0.2672  0.1284
19604TIP3   OH280302   5.686   6.802   0.772 -0.3290 -0.1683  0.4339
19604TIP3    H180303   5.603   6.815   0.818  1.5876  1.6253  3.7643
19604TIP3    H280304   5.748   6.776   0.840  2.0883 -0.6401 -1.7513
19605TIP3   OH280305   6.783   3.532   3.533  0.3182 -0.1636 -0.4568
19605TIP3    H180306   6.830   3.463   3.486  0.9591  0.0502 -0.1483
19605TIP3    H280307   6.717   3.486   3.584  1.4502 -0.6580  0.5883
19606TIP3   OH280308   1.950   0.824  16.754  0.2845  0.1300 -0.4933
19606TIP3    H180309   1.906   0.766  16.692  0.1024  0.2730 -0.4982
19606TIP3    H280310   1.882   0.884  16.784 -0.6936 -2.3249  2.8263
19607TIP3   OH280311   1.348   2.768   5.356  0.1570  0.2558  0.5378
19607TIP3    H180312   1.369   2.814   5.274 -1.4835  1.1907  0.5912
19607TIP3    H280313   1.347   2.837   5.422 -0.1109 -0.2430  1.0579
19608TIP3   OH280314   6.783   1.738   6.627  0.4690  0.4841  0.0007
19608TIP3    H180315   6.754   1.679   6.558  1.5065  0.2674 -0.2648
19608TIP3    H280316   6.755   1.696   6.708  1.8031 -0.7677 -0.1414
19609TIP3   OH280317   1.982   0.184   4.908 -0.4763 -0.1461 -0.4815
19609TIP3    H180318   1.970   0.095   4.877 -0.9173 -0.1031 -0.4392
19609TIP3    H280319   1.900   0.205   4.952  0.8591 -1.0209  2.7292
19610TIP3   OH280320   2.046   1.405  14.992  0.0064 -0.2451 -0.4491
19610TIP3    H180321   2.065   1.391  14.899  1.5758  3.4968 -0.8690
19610TIP3    H280322   1.963   1.451  14.993 -0.6417 -1.3914  0.1473
19611TIP3   OH280323   5.019   0.807  16.458  0.1984  0.2949  0.5740
19611TIP3    H180324   5.056   0.744  16.520 -0.0383  1.6473  2.1582
19611TIP3    H280325   4.924   0.798  16.470  0.1452  0.4439  0.2705
19612TIP3   OH280326   2.989   1.515  16.745 -0.1562  0.6369 -0.0137
19612TIP3    H180327   2.952   1.585  16.692 -1.6805  0.8323  1.2252
19612TIP3    H280328   2.934   1.438  16.727  2.1166 -0.6294 -2.1489
19613TIP3   OH280329   0.780   5.601  16.002 -0.6395  0.4037  0.4332
19613TIP3    H180330   0.804   5.561  16.086 -3.0825 -0.4879  0.7822
19613TIP3    H280331   0.804   5.535  15.937  1.4699  1.1881  0.3385
19614TIP3   OH280332   4.956   3.067  12.862 -0.1223 -0.5714 -0.6667
19614TIP3    H180333   4.872   3.094  12.898 -0.2891 -0.2277 -1.3037
19614TIP3    H280334   5.008   3.041  12.938 -0.9020 -1.0711 -0.2932
19615TIP3   OH280335   3.199   2.003   6.442  0.2666  0.0850 -0.4746
19615TIP3    H180336   3.279   2.029   6.398  1.0359  0.0633  0.8686
19615TIP3    H280337   3.226   1.937   6.505 -1.0508 -1.0538 -1.0623
19616TIP3   OH280338   5.532   6.105  10.973 -0.0185 -0.5852  0.8404
19616TIP3    H180339   5.542   6.037  10.906 -2.6491 -1.3600  1.1414
19616TIP3    H280340   5.614   6.102  11.022  0.0347 -3.4193  0.7337
19617TIP3   OH280341   6.771   2.636   1.349  0.4765  0.0448 -0.2039
19617TIP3    H180342   6.718   2.623   1.427 -1.1388 -1.2406 -1.4315
19617TIP3    H280343   6.725   2.705   1.300  1.3618  0.7028 -0.1313
19618TIP3   OH280344   6.265   6.059   1.805  0.2344 -0.0768 -0.7552
19618TIP3    H180345   6.294   5.989   1.863 -0.5440  0.4536  0.3179
19618TIP3    H280346   6.332   6.127   1.813  0.0891  0.0262 -0.4110
19619TIP3   OH280347   3.401   3.613  13.014  0.1545 -0.3922  0.1706
19619TIP3    H180348   3.368   3.525  13.033 -0.9588 -0.4761 -1.8931
19619TIP3    H280349   3.336   3.671  13.053  0.0701 -0.4968  0.1869
19620TIP3   OH280350   3.557   2.532   5.776  0.4006 -0.0419 -0.5928
19620TIP3    H180351   3.588   2.594   5.842 -2.0750  1.4447 -0.6679
19620TIP3    H280352   3.572   2.577   5.693 -1.4797  0.5597 -0.6458
19621TIP3   OH280353   0.807   6.561  15.913 -0.0859 -0.2178  0.7914
19621TIP3    H180354   0.814   6.594  15.823 -0.9827 -3.3186 -0.5471
19621TIP3    H280355   0.873   6.492  15.918  0.5011  0.4312  2.8590
19622TIP3   OH280356   3.099   5.462  11.903  0.0010 -0.4804  0.7727
19622TIP3    H180357   3.012   5.423  11.909 -0.6857  0.4467 -1.6360
19622TIP3    H280358   3.087   5.553  11.927  0.4265 -0.4836  1.0099
19623TIP3   OH280359   1.959   2.662   6.185 -0.6884 -0.0641 -0.0708
19623TIP3    H180360   1.980   2.583   6.235 -1.0494  0.2483  0.5899
19623TIP3    H280361   2.042   2.689   6.147 -0.4371 -0.4053  0.2305
19624TIP3   OH280362   3.839   2.960  15.105 -0.5036 -0.4790  0.9783
19624TIP3    H180363   3.855   2.909  15.185  0.2028 -2.0357 -0.1042
19624TIP3    H280364   3.750   2.937  15.080  0.0553 -1.8212  0.0997
19625TIP3   OH280365   1.864   6.145  10.185 -0.4237  1.0433  0.2925
19625TIP3    H180366   1.792   6.206  10.200 -0.4170  0.7447  1.6162
19625TIP3    H280367   1.887   6.112  10.272  0.7045  0.4393 -0.2125
19626TIP3   OH280368   3.292   1.933   5.686 -0.4081  0.0952  0.2859
19626TIP3    H180369   3.354   1.979   5.743 -1.0983 -0.2680  1.3583
19626TIP3    H280370   3.236   1.884   5.746 -2.6891  1.5420 -0.5224
19627TIP3   OH280371   6.674   5.529   6.453  0.3968 -0.0450  1.2102
19627TIP3    H180372   6.760   5.534   6.495  0.5949 -0.1374  0.8216
19627TIP3    H280373   6.635   5.448   6.487  0.4631 -0.0058  1.3820
19628TIP3   OH280374   0.840   5.341  13.294  0.1996 -0.3681 -0.1813
19628TIP3    H180375   0.770   5.381  13.243  0.3385  1.2524  0.8439
19628TIP3    H280376   0.896   5.299  13.229 -1.1910 -0.8757 -1.0904
19629TIP3   OH280377   0.287   1.213   3.168 -0.0187 -0.2376 -0.1665
19629TIP3    H180378   0.309   1.279   3.233 -1.5560  0.5141 -0.3464
19629TIP3    H280379   0.192   1.203   3.175  0.0482 -1.6760 -0.8630
19630TIP3   OH280380   2.406   6.801  13.967 -0.6334 -0.1548 -0.2212
19630TIP3    H180381   2.498   6.799  13.942 -0.3738  1.8035  0.3641
19630TIP3    H280382   2.364   6.850  13.897 -0.7216  1.2981  0.8108
19631TIP3   OH280383   6.642   4.537  14.095 -0.0943  0.0313  0.1817
19631TIP3    H180384   6.671   4.461  14.043  0.1449  0.3521 -0.1572
19631TIP3    H280385   6.722   4.588  14.108  0.2156 -0.8566  2.2831
19632TIP3   OH280386   0.247   3.328   2.639  0.2278  0.6807  0.3518
19632TIP3    H180387   0.295   3.245   2.637  0.7251  0.9142  1.7528
19632TIP3    H280388   0.305   3.391   2.596  0.2573  0.5189  0.1507
19633TIP3   OH280389   2.967   0.671   0.713  0.3284  0.2673  0.0953
19633TIP3    H180390   3.034   0.714   0.767  0.2322  1.2056 -0.5036
19633TIP3    H280391   2.890   0.666   0.770 -0.2990  2.7519 -0.4000
19634TIP3   OH280392   3.069   3.810   5.832  0.4611  0.1264 -0.1972
19634TIP3    H180393   3.144   3.852   5.874 -0.5455  1.0422  0.7391
19634TIP3    H280394   3.088   3.716   5.839  1.7249  0.3499 -0.3895
19635TIP3   OH280395   0.249   1.795  16.785  0.2650  0.5303  0.2878
19635TIP3    H180396   0.277   1.828  16.699  0.8062  0.0532  0.2716
19635TIP3    H280397   0.330   1.772  16.829 -0.0225  0.6191  0.8716
19636TIP3   OH280398   1.153   5.724  11.644 -0.3979 -0.3208 -0.2598
19636TIP3    H180399   1.099   5.653  11.679 -1.4596  0.6776  0.1837
19636TIP3    H280400   1.108   5.804  11.670  1.2483  0.5577  0.0112
19637TIP3   OH280401   1.219   2.923   2.209 -0.8346  0.3602  0.2828
19637TIP3    H180402   1.170   2.969   2.277  1.1508  1.9392  0.7230
19637TIP3    H280403   1.271   2.859   2.256  1.4639  2.2675  0.4872
19638TIP3   OH280404   6.201   5.547  14.208 -0.5756  0.3996  0.0371
19638TIP3    H180405   6.150   5.623  14.180 -0.2610  1.3274  1.8929
19638TIP3    H280406   6.233   5.569  14.295  0.2430 -1.5188  0.2794
19639TIP3   OH280407   0.687   6.024   1.355 -0.4810  0.2031  0.1839
19639TIP3    H180408   0.666   6.116   1.340 -1.2069  0.0647  0.3176
19639TIP3    H280409   0.614   5.991   1.408 -0.9080 -0.7888 -0.9877
19640TIP3   OH280410   6.527   1.974   0.485 -0.4153  0.2994 -0.1440
19640TIP3    H180411   6.433   1.991   0.491 -0.6432 -1.1279  0.6549
19640TIP3    H280412   6.568   2.056   0.514 -1.4218  0.5651  0.5682
19641TIP3   OH280413   0.871   0.743  16.018  0.1669 -0.1409  0.1411
19641TIP3    H180414   0.882   0.693  16.098 -1.1807 -0.2416  0.2890
19641TIP3    H280415   0.821   0.821  16.044  0.3948  0.2155 -0.4558
19642TIP3   OH280416   2.222   5.132   4.756  0.4395  0.0231  0.1560
19642TIP3    H180417   2.312   5.108   4.734  0.4793 -0.3147  0.6901
19642TIP3    H280418   2.229   5.219   4.796  0.5987 -0.2886  0.8024
19643TIP3   OH280419   3.420   0.784   2.566  0.1862 -0.1958 -0.1853
19643TIP3    H180420   3.348   0.789   2.629 -0.0315  1.8886 -0.5332
19643TIP3    H280421   3.389   0.835   2.491  1.8626  0.4115 -0.5037
19644TIP3   OH280422   1.979   2.729   0.885 -0.6161 -0.1551 -1.0389
19644TIP3    H180423   1.922   2.793   0.928 -1.2563 -0.2303 -1.7651
19644TIP3    H280424   2.064   2.774   0.877 -0.1859 -0.4582  1.1091
19645TIP3   OH280425   3.580   3.305  16.049 -0.3739  0.4230 -0.3020
19645TIP3    H180426   3.665   3.307  16.092  1.0772 -0.2581 -2.9213
19645TIP3    H280427   3.534   3.232  16.090 -0.2728  1.5505  1.9949
19646TIP3   OH280428   6.235   0.233  16.708  0.0294 -0.0814  0.3405
19646TIP3    H180429   6.252   0.237  16.802 -1.7390  1.7226  0.6395
19646TIP3    H280430   6.307   0.282  16.669  0.1773  0.1091  0.8471
19647TIP3   OH280431   3.959   3.118   2.384 -0.0291  0.2117  0.5241
19647TIP3    H180432   4.054   3.114   2.384 -0.0268 -0.4484  1.8352
19647TIP3    H280433   3.935   3.108   2.477 -1.3129  1.7986  0.4210
19648TIP3   OH280434   1.874   2.034  13.574  0.3817  0.3911  0.3146
19648TIP3    H180435   1.815   2.004  13.505  1.1224  2.0823 -1.1451
19648TIP3    H280436   1.950   1.976  13.568  0.7776  0.9945 -0.8668
19649TIP3   OH280437   0.054   6.308   0.983 -0.0008 -0.2875 -0.0324
19649TIP3    H180438   0.065   6.271   1.070 -1.2946 -0.7157 -0.0366
19649TIP3    H280439   0.036   6.401   0.999 -0.8643 -0.4880  0.2021
19650TIP3   OH280440   5.053   4.473   2.586  0.2183  0.5408 -0.3689
19650TIP3    H180441   5.108   4.421   2.528 -1.1289 -0.5714 -0.6877
19650TIP3    H280442   5.090   4.562   2.581  1.0368  0.1489 -1.7372
19651TIP3   OH280443   5.008   6.548  12.777  0.6874  0.8812 -0.3688
19651TIP3    H180444   4.918   6.550  12.809  0.7299  0.2955 -0.2077
19651TIP3    H280445   5.053   6.486  12.834  0.2696 -1.8970 -2.7981
19652TIP3   OH280446   1.718   6.569  17.194 -0.5245 -1.3486  0.1587
19652TIP3    H180447   1.719   6.474  17.206 -0.6872 -1.3496  0.1671
19652TIP3    H280448   1.810   6.594  17.197 -0.5289 -1.3893  1.1427
19653TIP3   OH280449   5.704   3.315   4.682 -0.4789  0.5444 -0.0899
19653TIP3    H180450   5.689   3.311   4.587 -0.3189  0.3976 -0.1107
19653TIP3    H280451   5.622   3.349   4.718 -1.1207 -0.8707 -0.1349
19654TIP3   OH280452   2.599   5.374  11.674  0.4178  0.1383  0.1214
19654TIP3    H180453   2.509   5.343  11.662 -0.5671  2.3332  1.1682
19654TIP3    H280454   2.627   5.335  11.756 -0.4595  1.2060  0.9583
19655TIP3   OH280455   0.272   2.735  12.578 -0.1075  0.2328  0.3297
19655TIP3    H180456   0.313   2.821  12.588  1.6543 -0.3715 -1.0709
19655TIP3    H280457   0.335   2.674  12.616 -1.3272 -0.4714  1.2955
19656TIP3   OH280458   2.283   1.053  17.197 -0.3390  0.2090  0.1787
19656TIP3    H180459   2.332   0.971  17.192 -0.4750  0.1961 -1.2895
19656TIP3    H280460   2.200   1.034  17.153  0.8653  1.9828 -3.2261
19657TIP3   OH280461   1.914   3.449   3.963 -0.0323  0.5900 -0.2796
19657TIP3    H180462   1.909   3.381   3.896  1.9036  0.6512 -0.5565
19657TIP3    H280463   1.851   3.515   3.935  0.2127  0.2661 -1.6545
19658TIP3   OH280464   6.465   5.141   0.577  0.0975  0.6525 -0.0697
19658TIP3    H180465   6.459   5.191   0.495 -0.3813  1.2784  0.3391
19658TIP3    H280466   6.391   5.172   0.629  1.7732  2.0704  1.6011
19659TIP3   OH280467   5.702   4.291   5.989  0.7168  0.2359 -0.1987
19659TIP3    H180468   5.777   4.279   6.047  1.3809 -0.9750 -1.2551
19659TIP3    H280469   5.635   4.231   6.023  0.6303  0.4756  0.0617
19660TIP3   OH280470   4.224   0.854  16.836  0.6638  0.3115  0.6599
19660TIP3    H180471   4.267   0.771  16.819 -1.8476 -0.4684 -3.0220
19660TIP3    H280472   4.159   0.835  16.904  0.1037 -0.7574 -0.1625
19661TIP3   OH280473   6.198   1.814  12.875 -0.4958 -0.5254  0.3892
19661TIP3    H180474   6.222   1.844  12.962 -0.6301 -1.0956  0.6247
19661TIP3    H280475   6.252   1.737  12.860 -1.2176 -1.0437  0.3978
19662TIP3   OH280476   4.786   0.280  12.880  0.1237 -0.0922  0.4192
19662TIP3    H180477   4.821   0.323  12.802  1.0701 -1.4692  0.0323
19662TIP3    H280478   4.786   0.187  12.857 -0.4038 -0.4430  1.7575
19663TIP3   OH280479   6.789   4.560  12.907  0.4104  0.1458 -0.0438
19663TIP3    H180480   6.771   4.619  12.834  1.6012 -0.3321 -0.7575
19663TIP3    H280481   6.703   4.535  12.940 -0.1379  0.5934 -1.0960
19664TIP3   OH280482   2.509   4.866   2.453  0.1680  0.0511 -0.1619
19664TIP3    H180483   2.596   4.873   2.414 -0.3309 -0.6632 -1.4967
19664TIP3    H280484   2.509   4.781   2.497 -0.3255 -0.6974 -1.5288
19665TIP3   OH280485   4.108   3.824   4.336 -0.0147 -0.1326 -0.4251
19665TIP3    H180486   4.019   3.790   4.353  0.4717 -1.5383 -0.5223
19665TIP3    H280487   4.122   3.808   4.243  0.6204 -0.6375 -0.2489
19666TIP3   OH280488   6.655   1.911  16.690 -0.0646  0.2986  0.2089
19666TIP3    H180489   6.697   1.896  16.775  2.0181 -1.0415 -0.9942
19666TIP3    H280490   6.639   1.823  16.655 -1.1444  0.8263 -0.6855
19667TIP3   OH280491   2.360   3.980   4.478  0.5117 -0.1428 -0.1360
19667TIP3    H180492   2.362   4.042   4.550  0.0006  0.4311 -0.6081
19667TIP3    H280493   2.279   3.931   4.490  1.2480 -1.2141  0.6292
19668TIP3   OH280494   2.894   2.256   5.346 -0.2917  1.0620  0.2093
19668TIP3    H180495   2.955   2.201   5.396 -0.1528  2.8299  2.0946
19668TIP3    H280496   2.949   2.323   5.307 -0.6583  0.8061 -0.7597
19669TIP3   OH280497   2.598   3.054  14.157 -0.4352  0.2077 -0.5727
19669TIP3    H180498   2.541   3.078  14.230  0.3775 -0.0068  0.1430
19669TIP3    H280499   2.638   3.137  14.129 -0.6915  0.2780 -0.7409
19670TIP3   OH280500   4.610   5.782  16.815  0.0946 -0.8292 -0.9953
19670TIP3    H180501   4.514   5.784  16.810 -0.1025  0.1940  1.4341
19670TIP3    H280502   4.630   5.695  16.851 -0.4395  0.5300  3.1908
19671TIP3   OH280503   6.509   1.547  14.298 -0.0286  0.3305 -0.4209
19671TIP3    H180504   6.459   1.591  14.228  0.0488  1.2470  0.0826
19671TIP3    H280505   6.454   1.558  14.376  0.2332 -0.0415 -0.1843
19672TIP3   OH280506   2.612   2.048  14.248 -0.2134 -0.5026  0.1275
19672TIP3    H180507   2.675   2.023  14.181  0.4315  0.0728  0.5101
19672TIP3    H280508   2.527   2.027  14.210  0.2232 -1.9853 -0.1173
19673TIP3   OH280509   2.780   4.573  12.608 -0.4561  0.3431  0.3446
19673TIP3    H180510   2.815   4.616  12.531 -0.7857  0.2697  0.1494
19673TIP3    H280511   2.851   4.519  12.641 -1.2303 -2.1393 -1.7398
19674TIP3   OH280512   6.790   0.248  13.081 -0.3394 -0.1390  0.2485
19674TIP3    H180513   6.827   0.245  12.993 -0.8294 -0.7408  0.0596
19674TIP3    H280514   6.867   0.251  13.138  0.0312 -1.2598 -0.1464
19675TIP3   OH280515   1.097   6.469  15.001  0.0508 -0.2732 -0.2212
19675TIP3    H180516   1.013   6.426  14.985 -0.6671  1.0744 -0.2446
19675TIP3    H280517   1.156   6.433  14.935 -1.0631  0.2528 -1.5285
19676TIP3   OH280518   2.210   5.450   6.090 -0.7085 -0.0683  0.9411
19676TIP3    H180519   2.227   5.390   6.163  2.6697 -1.9650 -1.1811
19676TIP3    H280520   2.141   5.408   6.040  0.8840 -1.7492  0.0624
19677TIP3   OH280521   4.106   0.475  12.876 -0.4894 -0.2338  0.1833
19677TIP3    H180522   4.130   0.549  12.931  0.9165 -0.0906 -0.5780
19677TIP3    H280523   4.071   0.516  12.796 -1.4773 -0.4254  0.5084
19678TIP3   OH280524   6.384   5.913  11.859  0.6448  0.1942 -0.1942
19678TIP3    H180525   6.378   5.993  11.807 -0.2354 -0.2524 -0.7987
19678TIP3    H280526   6.384   5.842  11.794 -0.8659 -0.3923  0.3962
19679TIP3   OH280527   5.610   1.989   1.425  0.3599  0.2724  0.0474
19679TIP3    H180528   5.516   1.979   1.439  0.4061 -0.3707 -0.1123
19679TIP3    H280529   5.617   2.054   1.355 -0.0117 -0.9441 -1.1430
19680TIP3   OH280530   1.191   1.772  11.618 -0.1795 -0.3041  0.4087
19680TIP3    H180531   1.175   1.714  11.544  1.2296 -0.1264 -0.0550
19680TIP3    H280532   1.263   1.828  11.590 -0.3212  0.4644  1.5275
19681TIP3   OH280533   6.736   2.542   5.171  0.0247  0.6006 -0.3642
19681TIP3    H180534   6.770   2.480   5.106  0.7669 -0.0983  0.6584
19681TIP3    H280535   6.812   2.595   5.195  0.0477  0.1012  0.7490
19682TIP3   OH280536   0.378   3.990   5.801  0.1931 -0.0530 -0.6397
19682TIP3    H180537   0.443   4.005   5.732 -0.4204 -0.1477 -1.2474
19682TIP3    H280538   0.360   3.896   5.797  0.0691 -0.0396 -0.4264
19683TIP3   OH280539   4.859   5.108  14.180  0.3141  0.4797 -0.2750
19683TIP3    H180540   4.891   5.080  14.265  1.3540 -1.2833 -1.1767
19683TIP3    H280541   4.937   5.108  14.124 -0.7639 -1.3509 -1.9189
19684TIP3   OH280542   2.668   4.261   0.213  0.5164 -0.0813 -0.0066
19684TIP3    H180543   2.727   4.285   0.142 -0.8247  1.7135 -0.6080
19684TIP3    H280544   2.604   4.203   0.173  0.7278 -0.4252  0.1531
19685TIP3   OH280545   6.565   5.269   4.894 -0.1981  0.0362 -0.6095
19685TIP3    H180546   6.559   5.364   4.904  3.0334  0.2427  0.2861
19685TIP3    H280547   6.561   5.254   4.800 -1.6516  0.9045 -0.7225
19686TIP3   OH280548   5.313   3.340   0.562  0.4419  0.0859  0.2032
19686TIP3    H180549   5.346   3.429   0.575 -3.5810  1.5874  1.3815
19686TIP3    H280550   5.268   3.343   0.478  0.0644 -0.7520  0.3717
19687TIP3   OH280551   2.477   1.330   3.525  0.0221  0.7015  0.5786
19687TIP3    H180552   2.409   1.381   3.483 -0.1287  2.2600  2.5502
19687TIP3    H280553   2.457   1.239   3.503  0.1007  1.3777 -2.7627
19688TIP3   OH280554   4.810   0.273   1.487 -0.1705 -0.5440 -0.4024
19688TIP3    H180555   4.868   0.320   1.427  1.1722 -0.6953  0.7155
19688TIP3    H280556   4.854   0.189   1.501 -0.5074 -0.5453  0.7081
19689TIP3   OH280557   3.288   3.205   5.365 -0.7483 -0.0409  0.2747
19689TIP3    H180558   3.235   3.146   5.419 -0.7766 -0.0167  0.2729
19689TIP3    H280559   3.224   3.252   5.311 -0.9289  1.5500  1.7761
19690TIP3   OH280560   2.578   6.519  12.283  0.2530  0.0520  0.0523
19690TIP3    H180561   2.648   6.497  12.344  0.3612 -1.3599 -0.5309
19690TIP3    H280562   2.601   6.473  12.202 -1.2316 -0.2844 -0.2169
19691TIP3   OH280563   4.129   2.364   1.851  0.4240 -0.3817 -0.0536
19691TIP3    H180564   4.044   2.369   1.895  0.2789 -0.2654 -0.3415
19691TIP3    H280565   4.193   2.385   1.918  0.0706  2.4874 -0.4866
19692TIP3   OH280566   2.497   5.099  14.960 -0.2626 -0.1157 -0.2578
19692TIP3    H180567   2.501   5.187  14.923  0.0159 -0.0772 -0.1369
19692TIP3    H280568   2.406   5.090  14.991 -0.9911 -0.7511 -2.3853
19693TIP3   OH280569   2.174   2.765   2.662 -0.0927  0.1783  0.0835
19693TIP3    H180570   2.234   2.834   2.634  0.1797 -0.0998 -0.0211
19693TIP3    H280571   2.092   2.785   2.615  0.0322  0.3407 -0.0680
19694TIP3   OH280572   4.362   0.011  13.339 -0.3181 -0.1532 -0.4058
19694TIP3    H180573   4.357  -0.023  13.249  1.5159 -1.5158 -0.0477
19694TIP3    H280574   4.351  -0.066  13.394 -1.1093  0.6278  0.5598
19695TIP3   OH280575   2.337   1.907   3.386 -0.4396  0.6053  0.2902
19695TIP3    H180576   2.364   1.892   3.477 -0.0454  0.9048  0.2273
19695TIP3    H280577   2.266   1.971   3.392 -0.1436  0.9307  0.3640
19696TIP3   OH280578   1.841   1.247   1.279 -0.2589  0.3303  0.0876
19696TIP3    H180579   1.927   1.207   1.296  0.1367  1.0308 -0.2288
19696TIP3    H280580   1.846   1.333   1.320 -0.0231  1.2398 -1.7387
19697TIP3   OH280581   4.278   0.018  11.868 -0.1234 -0.1749  0.0156
19697TIP3    H180582   4.257   0.066  11.787  1.5051  1.0525  0.2614
19697TIP3    H280583   4.312   0.085  11.927  1.3102 -1.4732  0.7400
19698TIP3   OH280584   0.895   0.615   0.401  0.2538 -0.4929  0.7608
19698TIP3    H180585   0.951   0.622   0.478 -0.2898  2.0356  1.0252
19698TIP3    H280586   0.823   0.676   0.418 -0.0168 -0.0262 -1.6188
19699TIP3   OH280587   6.171   2.040  13.777  0.7167  0.0668 -0.2606
19699TIP3    H180588   6.240   2.093  13.817 -0.0674  1.6608 -0.9202
19699TIP3    H280589   6.110   2.023  13.849  1.3728 -0.6541  0.1387
19700TIP3   OH280590   5.505   5.652  12.082 -0.7223 -0.1092  0.0088
19700TIP3    H180591   5.578   5.612  12.034  0.1621 -0.0289  1.2413
19700TIP3    H280592   5.473   5.582  12.139 -1.1036  0.0875  0.0340
19701TIP3   OH280593   4.016   6.605   0.941 -0.8476 -0.1719  0.3292
19701TIP3    H180594   4.096   6.613   0.992 -1.5518  1.9792  1.2227
19701TIP3    H280595   4.045   6.577   0.855  0.3714 -4.1901  1.8437
19702TIP3   OH280596   6.429   0.539   6.111 -0.1503 -0.5898  0.5678
19702TIP3    H180597   6.446   0.483   6.187  1.6764 -2.4810 -1.0917
19702TIP3    H280598   6.502   0.601   6.111  1.4470 -2.3311 -1.0302
19703TIP3   OH280599   1.434   1.485  17.012 -0.0819  0.6997  0.2146
19703TIP3    H180600   1.359   1.492  17.072 -0.2751  0.2650  0.0299
19703TIP3    H280601   1.400   1.514  16.927 -0.4086 -0.7215 -0.1621
19704TIP3   OH280602   6.356   1.159  14.294 -0.0763 -0.3000  0.2167
19704TIP3    H180603   6.349   1.230  14.230 -2.0702 -1.4263 -0.9097
19704TIP3    H280604   6.411   1.094  14.251 -2.1093 -1.4233 -0.7709
19705TIP3   OH280605   3.596   3.497   4.369 -0.0227  0.7182 -0.1933
19705TIP3    H180606   3.652   3.419   4.367  0.6762  1.2169 -0.3942
19705TIP3    H280607   3.627   3.551   4.296 -0.5462  1.1606 -0.0970
19706TIP3   OH280608   6.476   1.494   3.049 -0.2808 -0.0025 -0.0017
19706TIP3    H180609   6.402   1.472   2.994 -0.0082 -0.3488 -0.2369
19706TIP3    H280610   6.437   1.524   3.132 -0.6952  0.8064 -0.4752
19707TIP3   OH280611   5.070   0.089  14.592  0.4498  0.6183  0.1387
19707TIP3    H180612   5.083   0.179  14.564  0.2966  0.3451 -0.8425
19707TIP3    H280613   5.000   0.094  14.658  0.6255  1.2401  0.2773
19708TIP3   OH280614   3.274   1.663  14.303 -0.0360 -0.0893  0.2171
19708TIP3    H180615   3.324   1.586  14.330  1.5044  0.3629 -1.1847
19708TIP3    H280616   3.201   1.627  14.253 -0.1676 -0.6837  0.8153
19709TIP3   OH280617   2.818   5.112   3.251 -0.1860  0.0339 -0.2295
19709TIP3    H180618   2.873   5.151   3.318  0.5542  0.8702 -1.2969
19709TIP3    H280619   2.832   5.018   3.261  0.6131  0.1890  0.2036
19710TIP3   OH280620   5.401   5.476  13.591  0.1718  0.0209  0.2734
19710TIP3    H180621   5.310   5.494  13.617  0.3066 -0.4762  1.1092
19710TIP3    H280622   5.415   5.384  13.613  1.0579  0.2426  0.6687
19711TIP3   OH280623   0.139   0.240   0.790 -0.7635  0.7414 -0.1819
19711TIP3    H180624   0.047   0.217   0.776 -1.2502  2.3365  0.1176
19711TIP3    H280625   0.161   0.294   0.713  0.0447  0.0792 -0.4296
19712TIP3   OH280626   3.649   3.171   0.119  0.2526  0.1544  0.6886
19712TIP3    H180627   3.736   3.149   0.154  0.6208  1.1285  0.4112
19712TIP3    H280628   3.596   3.188   0.197  0.4986  0.2247  0.8442
19713TIP3   OH280629   5.631   5.155  16.040  0.1379 -0.1634  0.0319
19713TIP3    H180630   5.644   5.193  16.127 -0.2979  1.1514 -0.4472
19713TIP3    H280631   5.536   5.162  16.026  0.3788  1.1418 -1.1777
19714TIP3   OH280632   3.679   4.223   0.554  0.1796 -0.5652  0.2193
19714TIP3    H180633   3.638   4.153   0.606 -0.7544  0.6704  1.1986
19714TIP3    H280634   3.768   4.193   0.539  0.3853 -1.0993  2.2916
19715TIP3   OH280635   4.473   6.570   1.719  0.0773  0.0911 -0.8550
19715TIP3    H180636   4.443   6.538   1.634  0.0636 -0.3993 -0.6638
19715TIP3    H280637   4.394   6.577   1.772  0.2451 -0.7937 -0.4881
19716TIP3   OH280638   6.432   2.571  15.576  0.1052  0.3917 -0.1013
19716TIP3    H180639   6.351   2.547  15.621 -0.2539  1.8931  0.0957
19716TIP3    H280640   6.406   2.635  15.511  1.0322  0.2908 -0.5898
19717TIP3   OH280641   6.622   0.655  16.751 -0.2297 -0.4853 -0.0213
19717TIP3    H180642   6.576   0.582  16.792 -0.0941 -1.9272 -2.3024
19717TIP3    H280643   6.558   0.726  16.750  0.2014  0.2119  3.9130
19718TIP3   OH280644   5.549   6.682  14.332 -0.0986  0.0045 -0.2957
19718TIP3    H180645   5.458   6.662  14.310  0.5216 -1.0634 -2.1008
19718TIP3    H280646   5.558   6.654  14.424 -1.8116  1.0505  0.2306
19719TIP3   OH280647   6.035   2.221  14.644  1.0522 -0.7382  0.6267
19719TIP3    H180648   6.013   2.276  14.569 -1.7338 -1.4087  0.8479
19719TIP3    H280649   6.042   2.283  14.717  0.2392 -0.4361  0.4573
19720TIP3   OH280650   2.587   1.268  11.761 -0.6611 -0.2581  0.4646
19720TIP3    H180651   2.550   1.185  11.731 -1.7301  0.2334  0.3886
19720TIP3    H280652   2.511   1.323  11.780  0.0205  0.4176  1.3422
19721TIP3   OH280653   1.331   4.207  16.122  0.1588  0.2816  0.8148
19721TIP3    H180654   1.236   4.216  16.131  0.0824  0.5828 -0.1448
19721TIP3    H280655   1.362   4.294  16.097  0.5937  0.0186  0.4107
19722TIP3   OH280656   6.494   2.591   0.890 -0.0649 -0.3010  0.1382
19722TIP3    H180657   6.566   2.592   0.953  0.2886  1.9500 -0.2211
19722TIP3    H280658   6.418   2.564   0.940  0.7286 -1.2928  0.8554
19723TIP3   OH280659   0.999   2.240  13.514  0.7110  0.2094  0.2702
19723TIP3    H180660   0.925   2.293  13.484  0.2186 -1.4178 -1.6573
19723TIP3    H280661   1.036   2.289  13.587 -1.6812  1.5639  0.6884
19724TIP3   OH280662   3.264   2.978  12.046 -0.7781  0.3394  0.4006
19724TIP3    H180663   3.341   2.964  11.990 -0.7685 -0.4183  0.5947
19724TIP3    H280664   3.299   3.026  12.122 -0.7989  1.4025 -0.2403
19725TIP3   OH280665   4.914   6.512  13.443  0.5337  0.0675 -0.3645
19725TIP3    H180666   4.858   6.501  13.521  1.4970 -1.8311  0.1233
19725TIP3    H280667   5.001   6.531  13.479  0.7331  0.4036 -1.0197
19726TIP3   OH280668   3.214   2.894  10.545  0.5312  0.1090 -0.1656
19726TIP3    H180669   3.182   2.980  10.519  0.0040 -0.1156 -0.2594
19726TIP3    H280670   3.294   2.912  10.596  0.2661  0.6651  0.0503
19727TIP3   OH280671   4.729   2.625  15.856  0.3257  0.7136  0.9697
19727TIP3    H180672   4.728   2.538  15.896  1.0857  1.2088  2.0924
19727TIP3    H280673   4.636   2.650  15.852  0.2532  1.0515  3.3742
19728TIP3   OH280674   2.275   3.433   1.787 -0.5080  0.4241 -0.5362
19728TIP3    H180675   2.301   3.393   1.704 -0.7029 -0.4758 -0.1684
19728TIP3    H280676   2.351   3.422   1.844 -0.6182  0.4455 -0.3847
19729TIP3   OH280677   6.060   5.033   5.795 -0.1665  0.3431  0.1953
19729TIP3    H180678   6.058   4.946   5.837 -1.4895  0.8896  1.3541
19729TIP3    H280679   6.100   5.090   5.860  2.3785  0.3185 -1.2600
19730TIP3   OH280680   3.060   5.807  14.787 -0.4449 -0.4651 -0.2523
19730TIP3    H180681   3.021   5.893  14.769 -2.2087 -0.8308  1.5805
19730TIP3    H280682   3.096   5.815  14.875  1.0441 -1.0953 -0.7621
19731TIP3   OH280683   5.260   1.131  13.397  0.5780 -0.3524  0.0789
19731TIP3    H180684   5.308   1.181  13.463  0.7981 -0.8374  0.2929
19731TIP3    H280685   5.292   1.041  13.408  0.9326 -0.3676 -0.9727
19732TIP3   OH280686   2.311   0.187  11.158  0.4298  0.1777 -0.6248
19732TIP3    H180687   2.384   0.248  11.156  0.7617 -0.1778  0.0193
19732TIP3    H280688   2.336   0.123  11.225 -0.7654  0.4326  0.1022
19733TIP3   OH280689   3.169   3.059   3.091 -0.5048 -0.2052 -0.0823
19733TIP3    H180690   3.143   3.006   3.016 -0.4003  0.5562 -0.6594
19733TIP3    H280691   3.105   3.038   3.159 -0.3517 -1.2154 -0.2320
19734TIP3   OH280692   2.385   4.427  14.901  0.3427  0.3015  0.5521
19734TIP3    H180693   2.301   4.455  14.865  0.1865 -0.2034  0.5237
19734TIP3    H280694   2.396   4.482  14.980  0.5123  1.1362 -0.0370
19735TIP3   OH280695   0.076   0.100  16.666  0.0440  0.1320 -0.7005
19735TIP3    H180696   0.141   0.099  16.595  1.2584 -2.2315  0.3509
19735TIP3    H280697  -0.009   0.095  16.621  0.6939  0.3579 -2.0161
19736TIP3   OH280698   4.516   1.076  15.592  0.1588 -0.2356  0.0322
19736TIP3    H180699   4.602   1.034  15.595  0.4808  0.2890 -1.1570
19736TIP3    H280700   4.455   1.006  15.570  0.0516 -0.8840  2.1845
19737TIP3   OH280701   1.846   3.179   6.531 -0.0994 -0.3106  0.5376
19737TIP3    H180702   1.751   3.170   6.525 -0.1354  0.6479 -0.7007
19737TIP3    H280703   1.879   3.091   6.515 -0.7375 -0.3555 -0.6404
19738TIP3   OH280704   2.258   5.864   0.960  0.1411  0.2828  0.0354
19738TIP3    H180705   2.223   5.953   0.965  0.9556  0.6706 -0.9402
19738TIP3    H280706   2.206   5.815   1.024  0.3891  1.6691  1.3653
19739TIP3   OH280707   2.814   2.751  16.609  0.4265  0.9884 -0.5628
19739TIP3    H180708   2.822   2.655  16.603 -0.5901  0.7819  0.7739
19739TIP3    H280709   2.749   2.765  16.679  1.0553  2.6655 -0.2670
19740TIP3   OH280710   3.550   3.889   1.426  0.3927 -0.4377  0.2720
19740TIP3    H180711   3.540   3.912   1.518  3.1595  2.1334  0.0940
19740TIP3    H280712   3.514   3.963   1.378  0.8176 -0.8089 -0.6556
19741TIP3   OH280713   4.628   6.704  10.925  0.3099 -0.2147 -0.3840
19741TIP3    H180714   4.550   6.653  10.903  0.4639 -1.0797  0.9366
19741TIP3    H280715   4.700   6.641  10.920  0.7943  0.3600 -0.7181
19742TIP3   OH280716   0.474   1.153   6.846  0.3272  0.4636  0.1454
19742TIP3    H180717   0.385   1.185   6.862 -0.1167 -0.7736  0.2311
19742TIP3    H280718   0.464   1.059   6.835  1.4474  0.4849 -1.2895
19743TIP3   OH280719   1.165   3.618  12.238  0.2231 -0.2655  0.0251
19743TIP3    H180720   1.245   3.567  12.244 -0.8528 -2.4211 -2.2717
19743TIP3    H280721   1.109   3.569  12.178 -2.4598  1.6540  0.7537
19744TIP3   OH280722   1.287   1.272   2.745  0.0919 -0.2239  0.0990
19744TIP3    H180723   1.267   1.182   2.718  1.2357 -0.4571 -0.0373
19744TIP3    H280724   1.258   1.276   2.837  0.1803 -0.7866  0.1552
19745TIP3   OH280725   2.431   3.320  11.867 -0.0368 -0.1712  0.2965
19745TIP3    H180726   2.410   3.254  11.801 -1.4015  0.1071  0.4230
19745TIP3    H280727   2.474   3.271  11.937  1.9571 -0.3823 -1.0026
19746TIP3   OH280728   3.242   2.029  11.092 -0.2682 -0.7692 -0.0451
19746TIP3    H180729   3.179   2.098  11.111  1.6338  0.9047  0.4315
19746TIP3    H280730   3.235   1.968  11.166  0.6326  0.9062  1.4984
19747TIP3   OH280731   2.641   6.739   3.913  1.1699  0.1086  0.5961
19747TIP3    H180732   2.613   6.649   3.925  1.3387  0.1361  1.2642
19747TIP3    H280733   2.669   6.744   3.821  2.7752 -0.9893  0.9734
19748TIP3   OH280734   0.169   3.996  13.876  0.1026  0.3023 -0.3069
19748TIP3    H180735   0.237   3.969  13.814  0.1814 -1.5536  0.5140
19748TIP3    H280736   0.089   3.955  13.843 -0.1136  0.3888  0.1007
19749TIP3   OH280737   3.468   0.895  10.726 -0.1715 -0.1972  0.2761
19749TIP3    H180738   3.509   0.980  10.741  0.3820 -0.2079 -1.0518
19749TIP3    H280739   3.388   0.914  10.677 -0.0911 -0.4254  0.0507
19750TIP3   OH280740   3.444   3.424  13.904  0.1086  0.6248  0.5676
19750TIP3    H180741   3.392   3.503  13.888  2.6693  2.3424  0.0537
19750TIP3    H280742   3.441   3.411  13.998 -1.0720  0.7762  0.5605
19751TIP3   OH280743   0.995   0.105   3.790  0.0095 -0.0584 -0.1213
19751TIP3    H180744   0.911   0.140   3.762  0.0944 -0.4829 -0.9267
19751TIP3    H280745   1.053   0.181   3.794 -0.6866  0.4309  1.5846
19752TIP3   OH280746   4.095   3.059   3.591  0.3412  1.0243  0.0668
19752TIP3    H180747   4.082   3.029   3.681 -0.1284  3.2802  0.8106
19752TIP3    H280748   4.033   3.007   3.539 -0.5157  0.7840  1.2973
19753TIP3   OH280749   6.424   1.716   5.426  0.7428  0.4699  0.7298
19753TIP3    H180750   6.365   1.767   5.482 -0.5716  0.7599 -0.8505
19753TIP3    H280751   6.460   1.650   5.484 -0.1664  1.0799  2.0511
19754TIP3   OH280752   1.795   1.019   3.745  0.1500  0.2884  0.2825
19754TIP3    H180753   1.733   0.954   3.778  0.4469 -0.0254  0.2182
19754TIP3    H280754   1.843   1.048   3.823  0.7924 -0.3903  0.1385
19755TIP3   OH280755   5.392   6.012   6.583 -0.6638  0.0108 -0.2643
19755TIP3    H180756   5.307   6.026   6.625 -0.3579  0.2744  0.2823
19755TIP3    H280757   5.455   6.055   6.642 -0.3455  1.4653 -1.5958
19756TIP3   OH280758   1.513   3.458  14.595 -1.0863 -0.0915  0.0074
19756TIP3    H180759   1.552   3.396  14.533 -1.2522 -0.1748 -0.0139
19756TIP3    H280760   1.486   3.405  14.669  1.4797  0.3276  1.3436
19757TIP3   OH280761   5.237   4.240  14.976  0.0812  0.4189 -0.0422
19757TIP3    H180762   5.224   4.244  14.881 -0.9803  1.8389  0.1386
19757TIP3    H280763   5.327   4.207  14.986  0.3650  0.6480 -1.5443
19758TIP3   OH280764   0.603   2.801   0.983 -0.4409  0.0942  0.2668
19758TIP3    H180765   0.607   2.710   1.013 -0.2736 -0.5221 -1.5006
19758TIP3    H280766   0.669   2.806   0.914 -0.0147  1.7475  0.7536
19759TIP3   OH280767   1.669   4.253   1.526  0.4010 -0.1083 -0.6420
19759TIP3    H180768   1.759   4.264   1.558 -0.0380  1.1499  0.2504
19759TIP3    H280769   1.677   4.260   1.431  1.3425 -0.8633 -0.6438
19760TIP3   OH280770   4.742   4.686   2.729 -0.3463  0.4235  0.2965
19760TIP3    H180771   4.743   4.781   2.722  1.0941  0.5255  1.3992
19760TIP3    H280772   4.780   4.655   2.647  0.8384  0.8953  0.6426
19761TIP3   OH280773   2.907   5.628   1.312 -0.0801 -0.3509  0.5067
19761TIP3    H180774   2.867   5.547   1.282 -2.3905  0.9408 -0.1580
19761TIP3    H280775   2.872   5.695   1.254 -0.6916  1.5453  2.8864
19762TIP3   OH280776   1.483   4.887  16.193 -0.4663  0.2495 -0.3082
19762TIP3    H180777   1.434   4.809  16.222 -1.1181  0.8596  0.2664
19762TIP3    H280778   1.518   4.924  16.274  0.4411  0.1773 -0.6544
19763TIP3   OH280779   1.860   5.568  11.181  0.3830  0.4546  0.4702
19763TIP3    H180780   1.876   5.514  11.103 -3.5125 -1.2885  0.6617
19763TIP3    H280781   1.811   5.643  11.148 -2.9975 -1.2318  1.2657
19764TIP3   OH280782   4.190   2.828   1.725  0.6133 -0.1134  0.0568
19764TIP3    H180783   4.213   2.896   1.661 -0.9213  0.1738 -0.2297
19764TIP3    H280784   4.227   2.748   1.688  0.2039  0.1400 -0.9560
19765TIP3   OH280785   3.593   0.069  14.970 -0.4301  0.1472 -0.1673
19765TIP3    H180786   3.604   0.157  14.933 -4.1751  0.6886 -0.3117
19765TIP3    H280787   3.542   0.082  15.050 -0.9154 -1.8822 -0.0965
19766TIP3   OH280788   6.513   1.407  11.036  0.0359 -0.0414  0.1536
19766TIP3    H180789   6.535   1.476  11.099  1.6313  1.4027 -1.8501
19766TIP3    H280790   6.573   1.422  10.962  0.4275 -3.5957 -0.4023
19767TIP3   OH280791   0.910   2.661  13.360  0.6708 -0.1921 -0.4676
19767TIP3    H180792   0.873   2.635  13.275 -0.3083  1.6564 -0.6731
19767TIP3    H280793   1.004   2.668  13.343  0.5380 -0.2481 -1.3085
19768TIP3   OH280794   2.656   6.308   0.611 -0.4313  0.4861  0.0375
19768TIP3    H180795   2.611   6.378   0.660  0.3999  1.0845 -0.0338
19768TIP3    H280796   2.634   6.228   0.659 -2.2273  0.6387 -0.4635
19769TIP3   OH280797   2.377   5.699  13.613 -0.5086  0.1968  0.0234
19769TIP3    H180798   2.302   5.753  13.637  0.1260  0.4564  1.5309
19769TIP3    H280799   2.405   5.733  13.528 -1.8052  0.3824 -0.3562
19770TIP3   OH280800   1.376   1.844   5.152  0.0053 -0.7607  0.4366
19770TIP3    H180801   1.451   1.815   5.101  0.1695 -0.7983  0.6941
19770TIP3    H280802   1.300   1.807   5.107 -0.0759  1.2543 -1.2301
19771TIP3   OH280803   0.108   2.068  16.409 -0.3115  0.4552 -0.3970
19771TIP3    H180804   0.100   2.162  16.397 -2.2242  0.1467 -1.8918
19771TIP3    H280805   0.123   2.057  16.503  2.2226  2.3089 -0.4749
19772TIP3   OH280806   4.547   0.232   3.264  0.0514 -0.0911 -0.0634
19772TIP3    H180807   4.489   0.159   3.288 -1.4270  0.9470 -0.3655
19772TIP3    H280808   4.548   0.289   3.341  3.1589 -1.5268  1.1288
19773TIP3   OH280809   6.125   3.492  15.857 -0.3208 -0.0487 -0.0932
19773TIP3    H180810   6.127   3.501  15.952 -0.4774 -2.1214  0.1500
19773TIP3    H280811   6.170   3.570  15.825  0.8997  0.0653  1.7212
19774TIP3   OH280812   0.055   4.935   4.657 -0.2201 -0.0427  0.1111
19774TIP3    H180813   0.067   4.985   4.737  0.1723  0.6807 -0.3915
19774TIP3    H280814   0.140   4.938   4.613  0.2729 -2.4449  0.7710
19775TIP3   OH280815   1.345   6.786   2.441 -0.0426  0.2680 -0.1504
19775TIP3    H180816   1.333   6.693   2.422  1.4091  0.1252 -0.4369
19775TIP3    H280817   1.342   6.792   2.536  0.9435 -0.2421 -0.0807
19776TIP3   OH280818   5.907   4.777   0.728 -0.5378 -0.3758  0.1572
19776TIP3    H180819   5.843   4.804   0.794  1.8312  2.4836  1.5360
19776TIP3    H280820   5.888   4.831   0.652  0.7921  1.2985  0.9550
19777TIP3   OH280821   6.176   4.109  14.886 -0.3444 -0.3257  0.0561
19777TIP3    H180822   6.116   4.176  14.919 -1.1017 -1.4129  0.9276
19777TIP3    H280823   6.141   4.086  14.800  0.4949  1.0721 -0.7139
19778TIP3   OH280824   4.095   5.996  11.356 -0.1803  0.1614  0.3082
19778TIP3    H180825   4.172   5.965  11.404 -0.7985 -0.5485  0.8641
19778TIP3    H280826   4.078   5.927  11.292 -1.0853 -0.2936  1.0193
19779TIP3   OH280827   0.444   5.036  11.535  0.2252  0.3377  0.2704
19779TIP3    H180828   0.512   5.022  11.601  0.5492  0.0012 -0.1318
19779TIP3    H280829   0.466   4.976  11.464  0.3815  1.2998 -0.5261
19780TIP3   OH280830   3.676   6.486   5.420  0.3615  0.2273  0.0402
19780TIP3    H180831   3.754   6.472   5.474  0.4413  0.8079  0.0891
19780TIP3    H280832   3.603   6.475   5.481  0.3508 -1.2827 -0.2133
19781TIP3   OH280833   6.797   3.148   2.409  0.3095 -0.1255 -0.1120
19781TIP3    H180834   6.885   3.126   2.377 -0.8835 -1.7009 -2.6216
19781TIP3    H280835   6.743   3.074   2.383 -1.5862  0.1825  2.5426
19782TIP3   OH280836   2.467   4.013  14.960 -0.3899  0.5281 -0.2960
19782TIP3    H180837   2.514   3.952  14.904  2.0679  1.7862  0.2884
19782TIP3    H280838   2.381   4.021  14.919  0.4075 -0.6338 -2.3454
19783TIP3   OH280839   0.538   2.773   3.099  0.0346  0.1152  0.1551
19783TIP3    H180840   0.468   2.712   3.122  0.5673 -0.8789 -0.7579
19783TIP3    H280841   0.502   2.860   3.118 -0.6295 -0.4834  1.7440
19784TIP3   OH280842   0.627   1.022   6.428  0.1205 -0.6229 -0.1533
19784TIP3    H180843   0.633   1.070   6.346 -2.3177  0.0378 -0.0062
19784TIP3    H280844   0.587   0.939   6.404  0.8128 -1.0581  0.1671
19785TIP3   OH280845   1.576   2.958   6.673  0.4950 -0.1486 -0.2102
19785TIP3    H180846   1.506   2.911   6.628 -0.7466  1.8168 -0.4489
19785TIP3    H280847   1.561   3.050   6.652  0.3795  0.8194  3.4738
19786TIP3   OH280848   2.244   0.256  15.085  0.1906  0.0472  0.0678
19786TIP3    H180849   2.209   0.216  15.006  1.4068 -1.6845  0.3372
19786TIP3    H280850   2.339   0.248  15.076  0.4739  2.3026  0.4951
19787TIP3   OH280851   0.866   1.796   2.845 -0.1992  0.2043 -0.3530
19787TIP3    H180852   0.829   1.740   2.913  0.3478 -0.1160 -0.3123
19787TIP3    H280853   0.922   1.858   2.893 -0.9899  0.9461 -0.3747
19788TIP3   OH280854   4.885   5.982  14.227 -0.3804  0.1369 -0.3102
19788TIP3    H180855   4.820   5.911  14.224 -1.4310  1.1018 -2.3504
19788TIP3    H280856   4.945   5.962  14.155  1.6666 -0.7156  1.5256
19789TIP3   OH280857   3.518   2.622   3.784  0.3163 -0.4315 -0.1440
19789TIP3    H180858   3.443   2.583   3.829  0.8757 -1.4823 -0.0972
19789TIP3    H280859   3.585   2.632   3.852  0.5038 -0.2702 -0.3504
19790TIP3   OH280860   0.952   1.668   0.852  0.5133 -0.5517 -0.4827
19790TIP3    H180861   0.882   1.605   0.834  0.3945 -1.0425  1.4717
19790TIP3    H280862   0.911   1.753   0.840 -0.0554 -0.8365 -0.6098
19791TIP3   OH280863   4.452   3.681   2.359 -0.0413 -0.4177  0.8441
19791TIP3    H180864   4.524   3.650   2.304 -1.5280 -1.0041 -0.8879
19791TIP3    H280865   4.486   3.760   2.401  1.8993 -1.1833  0.8338
19792TIP3   OH280866   3.729   0.832   0.292  0.5215 -0.2895 -0.3451
19792TIP3    H180867   3.691   0.897   0.233 -0.0683  1.2847  1.6546
19792TIP3    H280868   3.683   0.750   0.271 -0.3896  0.4520 -1.3443
19793TIP3   OH280869   4.383   3.863  16.289  0.3214 -0.1197 -0.2214
19793TIP3    H180870   4.419   3.777  16.267  1.3512 -0.1895  1.5717
19793TIP3    H280871   4.388   3.913  16.207  0.5446 -1.4738 -1.0529
19794TIP3   OH280872   2.312   0.748  12.141  0.4458  0.9253  0.1776
19794TIP3    H180873   2.406   0.758  12.126  0.4442  0.2049 -0.3420
19794TIP3    H280874   2.305   0.719  12.232  0.7433  0.7442  0.1431
19795TIP3   OH280875   2.671   4.476   2.059  0.1056 -0.1593 -0.6864
19795TIP3    H180876   2.588   4.433   2.079  0.6404 -0.4030  1.2303
19795TIP3    H280877   2.716   4.416   1.999  0.2440 -1.6285  0.8251
19796TIP3   OH280878   1.006   0.904   3.579  0.0023  0.3741 -0.1153
19796TIP3    H180879   0.940   0.835   3.578 -2.3862  2.4406  1.2800
19796TIP3    H280880   1.013   0.931   3.488 -0.6699 -0.2667 -0.3683
19797TIP3   OH280881   3.408   0.104  12.040  0.4816 -0.5533 -0.0838
19797TIP3    H180882   3.344   0.174  12.030 -1.2483 -2.0882 -0.4305
19797TIP3    H280883   3.484   0.132  11.989 -0.4640  0.7162 -0.8344
19798TIP3   OH280884   3.731   0.268  14.194 -0.4587  0.4393  0.3611
19798TIP3    H180885   3.680   0.230  14.266  0.3202 -1.0302  0.1757
19798TIP3    H280886   3.670   0.275  14.122 -0.8703  0.4884  0.7115
19799TIP3   OH280887   0.017   2.550  14.897  0.7567 -0.4400  0.0911
19799TIP3    H180888   0.028   2.592  14.812 -0.1361 -0.8526 -0.2512
19799TIP3    H280889   0.030   2.457  14.879  1.9956 -0.3986  0.6990
19800TIP3   OH280890   5.109   1.831  12.155  0.3368 -0.3656 -0.5516
19800TIP3    H180891   5.025   1.829  12.202  0.2143 -0.3923 -0.7718
19800TIP3    H280892   5.155   1.907  12.191 -0.6555  0.9412 -1.9487
19801TIP3   OH280893   2.372   6.119  15.368  0.4985 -0.2969  0.9104
19801TIP3    H180894   2.323   6.184  15.318  1.2782 -0.6188 -0.3286
19801TIP3    H280895   2.406   6.059  15.302  1.2619 -0.9549  1.8723
19802TIP3   OH280896   4.610   0.835   1.505  0.6920 -0.0649 -0.0550
19802TIP3    H180897   4.565   0.909   1.545 -1.2174 -1.6085  0.8609
19802TIP3    H280898   4.557   0.813   1.429  2.4549  0.7951 -1.5898
19803TIP3   OH280899   0.476   1.444   1.470  0.2583 -0.3362 -0.1008
19803TIP3    H180900   0.389   1.439   1.431  1.4014 -1.9947 -2.7062
19803TIP3    H280901   0.485   1.364   1.522 -0.2856  0.5824  1.4601
19804TIP3   OH280902   2.128   4.163  17.066  0.3486 -0.3226 -1.0892
19804TIP3    H180903   2.174   4.222  17.126  1.4472 -0.4714 -1.7645
19804TIP3    H280904   2.047   4.209  17.044  0.2202  0.0030  0.0122
19805TIP3   OH280905   6.280   6.383  11.556 -0.9069  0.0215  0.5431
19805TIP3    H180906   6.349   6.349  11.500 -1.6636 -0.6465 -0.0237
19805TIP3    H280907   6.218   6.425  11.496 -0.1973  2.1173  1.1912
19806TIP3   OH280908   3.404   3.754   2.988 -0.7968  0.2575  0.1137
19806TIP3    H180909   3.343   3.712   3.048 -0.6353 -0.4179 -0.1907
19806TIP3    H280910   3.485   3.761   3.037 -0.7591  0.0071  0.0866
19807TIP3   OH280911   3.404   2.441   4.205 -0.0421 -0.2195 -0.4967
19807TIP3    H180912   3.464   2.402   4.143  0.1202 -0.0823 -0.4254
19807TIP3    H280913   3.429   2.404   4.290 -0.0907 -0.2002 -0.4737
19808TIP3   OH280914   0.795   1.497   4.416 -0.1113 -0.4109 -0.0727
19808TIP3    H180915   0.890   1.507   4.429 -0.3986  0.7407  1.3607
19808TIP3    H280916   0.756   1.541   4.491 -1.8238  0.3982 -1.3785
19809TIP3   OH280917   3.472   2.127   3.466  0.0168  0.0786  0.2225
19809TIP3    H180918   3.408   2.110   3.397  1.5215 -1.9432 -0.7738
19809TIP3    H280919   3.468   2.049   3.522  0.0438  0.9318  1.4537
19810TIP3   OH280920   0.888   5.839  10.599  0.5547 -0.5780 -0.6349
19810TIP3    H180921   0.967   5.889  10.581  1.0647 -0.2901  2.0826
19810TIP3    H280922   0.919   5.758  10.638 -0.4619 -0.1457  1.1783
19811TIP3   OH280923   1.546   2.160  11.399  0.4715 -0.1698  0.1728
19811TIP3    H180924   1.560   2.240  11.349 -1.5589 -0.4864 -1.0419
19811TIP3    H280925   1.568   2.089  11.338  0.2625 -0.5465  0.5290
19812TIP3   OH280926   0.541   1.370   4.195  0.2880  0.2377 -0.4511
19812TIP3    H180927   0.474   1.387   4.261 -0.0778  0.2989 -0.8333
19812TIP3    H280928   0.607   1.317   4.240  0.7357  1.4326  0.3576
19813TIP3   OH280929   1.122   1.148  12.219 -0.3427  0.1473 -0.0655
19813TIP3    H180930   1.156   1.110  12.300 -0.8207  3.0882  1.6277
19813TIP3    H280931   1.109   1.072  12.161  1.9604 -1.8512  1.8099
19814TIP3   OH280932   2.548   6.548   5.579  0.0908 -0.4150  0.3709
19814TIP3    H180933   2.603   6.625   5.564  0.0666  0.1726  2.9489
19814TIP3    H280934   2.460   6.582   5.588 -0.3137 -1.0542 -0.8732
19815TIP3   OH280935   2.842   3.886  13.599  0.5726  0.1953  0.2366
19815TIP3    H180936   2.931   3.861  13.623 -0.2411 -1.5029  1.7547
19815TIP3    H280937   2.818   3.824  13.530  0.9989  1.5435 -1.1730
19816TIP3   OH280938   3.357   2.612   5.140  0.1831  0.1968 -0.7102
19816TIP3    H180939   3.434   2.661   5.113  1.7040 -1.4032  0.5090
19816TIP3    H280940   3.301   2.608   5.062  1.1031  1.7585 -1.4874
19817TIP3   OH280941   1.962   2.563  14.396  0.1730 -0.0997  0.1895
19817TIP3    H180942   2.026   2.633  14.381 -0.4237  0.5135  0.4793
19817TIP3    H280943   1.970   2.543  14.489 -0.0468 -0.0323  0.2233
19818TIP3   OH280944   5.281   5.445   1.796 -0.3843  0.5443 -0.6128
19818TIP3    H180945   5.254   5.537   1.794 -1.9495  0.1148 -1.3874
19818TIP3    H280946   5.216   5.400   1.742  0.3452 -1.0265 -0.2499
19819TIP3   OH280947   1.228   2.811  13.618 -0.1201  0.1512 -0.3226
19819TIP3    H180948   1.157   2.874  13.622  0.2954  0.5647  1.7986
19819TIP3    H280949   1.228   2.780  13.528  0.0069  3.5523 -1.6164
19820TIP3   OH280950   0.949   6.633   3.412  0.0626 -0.4753 -0.3128
19820TIP3    H180951   1.010   6.699   3.447  0.2056 -1.4822  1.4779
19820TIP3    H280952   0.867   6.648   3.459  0.0220 -1.3826 -0.0659
19821TIP3   OH280953   3.304   2.971  15.057  0.0496 -0.5323  0.3201
19821TIP3    H180954   3.327   3.063  15.052 -1.5673 -0.0735  0.9744
19821TIP3    H280955   3.361   2.935  15.125  1.6868 -0.3775 -0.8956
19822TIP3   OH280956   6.024   4.549   0.890 -0.4778  0.2023 -0.3981
19822TIP3    H180957   5.967   4.612   0.846 -1.2311  0.5425  1.0328
19822TIP3    H280958   5.998   4.465   0.853 -0.4687  0.5560 -1.2552
19823TIP3   OH280959   6.766   2.816   5.407  0.3017 -0.1625  0.2468
19823TIP3    H180960   6.825   2.773   5.345  1.4189 -0.1370  1.2422
19823TIP3    H280961   6.756   2.753   5.479 -2.0794 -0.7589 -0.5250
19824TIP3   OH280962   0.928   1.792   5.588  0.3098  0.4710  0.3491
19824TIP3    H180963   0.901   1.730   5.656 -1.0804  1.0093  0.3162
19824TIP3    H280964   0.984   1.855   5.634 -0.3633  0.6523  0.9470
19825TIP3   OH280965   4.549   6.346  14.652  0.3581 -0.0915  1.1254
19825TIP3    H180966   4.508   6.297  14.580  2.3887  0.1709 -0.3117
19825TIP3    H280967   4.528   6.295  14.730 -4.3521  1.1149  0.9205
19826TIP3   OH280968   2.002   0.520   1.146 -0.1386 -0.5618  0.0351
19826TIP3    H180969   1.919   0.526   1.100 -0.7124  0.1374  1.1273
19826TIP3    H280970   2.049   0.600   1.123 -0.5347 -0.0836  0.8310
19827TIP3   OH280971   0.964   3.633  11.221 -0.2261 -0.1519  1.1751
19827TIP3    H180972   1.051   3.595  11.210  0.0760  0.7384  0.3599
19827TIP3    H280973   0.980   3.718  11.262 -0.7802 -0.3246  1.7552
19828TIP3   OH280974   6.179   0.079  10.638 -0.0760 -0.1419  0.0265
19828TIP3    H180975   6.134   0.109  10.559  1.4401  0.4524 -0.6558
19828TIP3    H280976   6.154   0.142  10.706 -0.9549 -0.3446 -0.0914
19829TIP3   OH280977   6.308   0.776  14.104 -0.0034  0.2570 -0.0898
19829TIP3    H180978   6.248   0.822  14.163  1.0464 -1.8840  2.9662
19829TIP3    H280979   6.263   0.694  14.084  0.6838 -0.1242 -0.1228
19830TIP3   OH280980   0.049   0.265   5.947  0.3135  0.3939  0.4156
19830TIP3    H180981  -0.016   0.298   5.885 -1.1339 -2.0387  0.5231
19830TIP3    H280982   0.064   0.175   5.920  1.0056 -0.1816  2.5202
19831TIP3   OH280983   3.890   4.520  12.388  0.7311  0.0466 -0.0829
19831TIP3    H180984   3.865   4.474  12.468  0.9197  0.7679  0.3950
19831TIP3    H280985   3.913   4.608  12.417  0.3758  0.4498 -0.9905
19832TIP3   OH280986   3.808   1.023   5.553  0.1271 -0.3934 -0.4351
19832TIP3    H180987   3.866   1.065   5.489 -2.1011  0.7852 -1.8006
19832TIP3    H280988   3.792   1.090   5.619  0.0478 -0.6103 -0.2301
19833TIP3   OH280989   5.285   2.224   1.429  0.2839  0.0066 -0.3354
19833TIP3    H180990   5.343   2.210   1.504 -1.3266 -1.9926  0.6231
19833TIP3    H280991   5.284   2.319   1.418  0.5364  0.3875  2.2060
19834TIP3   OH280992   1.801   6.205  12.375 -0.3653 -0.1519 -0.2521
19834TIP3    H180993   1.861   6.202  12.300  0.2852 -1.0735  0.2928
19834TIP3    H280994   1.723   6.157  12.345 -0.1871 -0.3468 -0.4049
19835TIP3   OH280995   2.831   0.670  11.614  0.2805 -0.6089 -0.2787
19835TIP3    H180996   2.768   0.598  11.621 -0.3690  0.0541  1.0458
19835TIP3    H280997   2.898   0.637  11.554  0.2520 -2.5039  0.6484
19836TIP3   OH280998   2.635   0.111   0.466  0.4655 -0.0467 -0.5070
19836TIP3    H180999   2.639   0.018   0.490  1.1467 -0.2475 -1.3833
19836TIP3    H281000   2.564   0.116   0.402 -0.4025  0.2615  0.4393
19837TIP3   OH281001   0.240   2.282  16.741 -0.3139 -0.2087 -0.4815
19837TIP3    H181002   0.284   2.197  16.738  1.0055  0.4258  0.2317
19837TIP3    H281003   0.169   2.270  16.805  0.2434 -0.6022  0.0745
19838TIP3   OH281004   5.487   3.992   4.027 -0.3176 -0.4534 -0.1171
19838TIP3    H181005   5.564   3.992   3.969 -0.5027  0.7802 -0.3767
19838TIP3    H281006   5.478   3.900   4.054  2.1378 -0.4163  1.0995
19839TIP3   OH281007   4.160   4.127   4.416 -0.3545  0.6611  0.2221
19839TIP3    H181008   4.145   4.034   4.434 -0.1916  0.4723 -0.6069
19839TIP3    H281009   4.236   4.129   4.359  0.0745  1.3560  0.8030
19840TIP3   OH281010   6.666   2.587   0.326  0.3689  0.2809 -0.3057
19840TIP3    H181011   6.608   2.514   0.303 -0.3364  0.9217 -0.6168
19840TIP3    H281012   6.611   2.665   0.315  0.6317  0.7658  1.5611
19841TIP3   OH281013   3.883   4.131   1.754  0.3182 -0.6782 -0.0837
19841TIP3    H181014   3.921   4.123   1.842  1.6956 -1.2371 -0.6984
19841TIP3    H281015   3.938   4.076   1.699 -0.6402 -0.4851 -1.2777
19842TIP3   OH281016   2.057   4.423  16.560 -0.2836  0.1835 -0.1269
19842TIP3    H181017   1.965   4.400  16.548 -0.0925 -0.1333 -1.0400
19842TIP3    H281018   2.055   4.493  16.625 -1.0139 -1.1012  1.2892
19843TIP3   OH281019   0.210   1.850   0.925 -0.2910  0.1269 -0.3859
19843TIP3    H181020   0.255   1.926   0.962  0.8129  0.6719 -2.6745
19843TIP3    H281021   0.178   1.802   1.002  0.2733  2.0862  1.1851
19844TIP3   OH281022   2.220   0.756  16.758 -0.0225 -0.5200 -0.1477
19844TIP3    H181023   2.225   0.668  16.722 -0.0573 -1.3236  1.6801
19844TIP3    H281024   2.126   0.770  16.772 -0.1244  0.2775 -1.4291
19845TIP3   OH281025   1.701   0.813   1.351 -0.3708  0.3296  0.1918
19845TIP3    H181026   1.613   0.790   1.320 -0.0589 -1.3323  0.4510
19845TIP3    H281027   1.711   0.765   1.432 -0.6935  3.6329  2.3792
19846TIP3   OH281028   2.727   0.530   0.553  0.4078 -0.1323  0.0293
19846TIP3    H181029   2.774   0.542   0.636 -1.1263 -0.8350  1.0456
19846TIP3    H281030   2.657   0.468   0.574 -1.9786  2.0503 -0.9967
19847TIP3   OH281031   1.524   4.423  11.558  0.2432  0.5204  0.1128
19847TIP3    H181032   1.445   4.372  11.541  1.4382 -0.6291 -2.6911
19847TIP3    H281033   1.578   4.366  11.613  0.1741  0.1640 -0.1799
19848TIP3   OH281034   6.365   4.838  12.734  0.3042 -0.0178  0.0808
19848TIP3    H181035   6.310   4.903  12.777  0.6692 -0.4544  1.2408
19848TIP3    H281036   6.445   4.885  12.711  0.6971 -0.1069  1.2042
19849TIP3   OH281037   5.678   6.214  12.267 -0.5558 -0.2869  0.1473
19849TIP3    H181038   5.629   6.295  12.279  1.1733  1.1878 -2.0290
19849TIP3    H281039   5.634   6.170  12.194 -1.3299 -1.2467  1.1524
19850TIP3   OH281040   4.752   3.629  15.167  0.1707 -0.1565  0.1288
19850TIP3    H181041   4.830   3.573  15.160 -0.4504 -1.1283  0.6703
19850TIP3    H281042   4.739   3.663  15.078  1.1333 -0.0791  0.0061
19851TIP3   OH281043   3.389   2.075  16.141  0.1244  0.8825  0.0281
19851TIP3    H181044   3.478   2.051  16.169 -1.0434 -0.6094  2.8002
19851TIP3    H281045   3.352   1.992  16.110 -0.7669  1.1785  0.2936
19852TIP3   OH281046   3.189   3.410  12.469  0.4774 -0.1551 -0.7479
19852TIP3    H181047   3.191   3.344  12.538 -1.8046 -0.3321 -0.7816
19852TIP3    H281048   3.157   3.364  12.392  2.7690  0.1018 -1.9525
19853TIP3   OH281049   3.237   1.789   0.264 -0.7425  0.0537  0.0751
19853TIP3    H181050   3.224   1.800   0.358  2.5622 -3.2596  1.1602
19853TIP3    H281051   3.298   1.858   0.240 -1.4451  0.7912  0.3530
19854TIP3   OH281052   3.224   4.501  15.585 -0.3673  0.6226 -0.4174
19854TIP3    H181053   3.205   4.410  15.564  0.3582  0.1263  0.9705
19854TIP3    H281054   3.179   4.517  15.667 -0.0669  1.3565 -0.3909
19855TIP3   OH281055   2.272   3.593  17.136 -0.7365  0.0557  0.6885
19855TIP3    H181056   2.341   3.648  17.173  1.4268  0.9662 -3.9039
19855TIP3    H281057   2.234   3.646  17.066 -0.6860 -3.0754 -1.9439
19856TIP3   OH281058   0.858   1.944   5.989  0.3715 -0.1217  0.9046
19856TIP3    H181059   0.777   1.894   5.990  0.1247  0.1158 -1.4184
19856TIP3    H281060   0.833   2.030   6.022 -0.4316  0.0475 -0.0845
19857TIP3   OH281061   5.567   0.478   3.240 -0.6608 -0.8147 -0.0736
19857TIP3    H181062   5.649   0.508   3.202 -0.1482 -0.1439  1.4693
19857TIP3    H281063   5.520   0.436   3.168  1.6959 -2.6136 -0.6683
19858TIP3   OH281064   0.314   5.938   4.197 -0.8971 -0.6610  0.4686
19858TIP3    H181065   0.253   6.004   4.228 -1.8080 -1.3250  0.1382
19858TIP3    H281066   0.273   5.854   4.220 -1.0163 -1.1612 -1.3479
19859TIP3   OH281067   1.871   3.392  13.986  0.3841  0.4296 -1.1592
19859TIP3    H181068   1.900   3.306  14.015 -0.7276  0.2307 -0.5822
19859TIP3    H281069   1.810   3.421  14.055  0.9256  1.7732 -1.2175
19860TIP3   OH281070   4.804   1.677   1.943  0.4682  0.4823 -0.0911
19860TIP3    H181071   4.712   1.663   1.965  0.7510 -1.8381 -0.0963
19860TIP3    H281072   4.821   1.768   1.965 -1.4772  0.5787  1.2288
19861TIP3   OH281073   2.247   4.001   5.929  0.4809 -0.2513 -0.3054
19861TIP3    H181074   2.166   3.984   5.977  0.1018 -3.1879 -1.8151
19861TIP3    H281075   2.228   4.078   5.876 -1.3757 -0.9307 -0.6868
19862TIP3   OH281076   2.460   3.042   3.620  0.0502  0.5798 -0.4011
19862TIP3    H181077   2.367   3.066   3.618 -0.2702 -0.6443 -1.8082
19862TIP3    H281078   2.485   3.034   3.528  0.8641 -1.5321 -0.0680
19863TIP3   OH281079   3.256   4.111   6.387  0.4141  0.2904 -0.0085
19863TIP3    H181080   3.174   4.137   6.344  0.3414 -0.8174 -0.5731
19863TIP3    H281081   3.242   4.134   6.479 -0.0525  1.2209 -0.2955
19864TIP3   OH281082   4.312   4.005   5.749 -0.0428 -0.1337  0.3875
19864TIP3    H181083   4.274   3.952   5.819  1.1095 -2.7919 -0.8537
19864TIP3    H281084   4.396   4.034   5.784  0.3378 -1.0865  0.2808
19865TIP3   OH281085   3.706   5.576  12.709 -0.2879  0.4470  0.3131
19865TIP3    H181086   3.627   5.523  12.699  0.0800  0.2236 -1.7422
19865TIP3    H281087   3.723   5.611  12.622  0.3459  2.7670  1.2855
19866TIP3   OH281088   2.145   6.066   1.478 -0.3549 -0.0769 -0.3204
19866TIP3    H181089   2.181   6.143   1.521  1.2704 -1.0649  0.1791
19866TIP3    H281090   2.164   6.079   1.386 -1.2371  0.6940 -0.4071
19867TIP3   OH281091   1.561   1.857   4.892  0.0724  0.0411 -0.1541
19867TIP3    H181092   1.571   1.945   4.856  0.6374  1.9378  4.0065
19867TIP3    H281093   1.650   1.820   4.892  0.1948  0.3362 -0.0253
19868TIP3   OH281094   5.827   2.277  10.887  0.8104 -0.1101 -0.3181
19868TIP3    H181095   5.817   2.347  10.822 -0.3713 -0.6411 -0.7235
19868TIP3    H281096   5.868   2.206  10.839 -0.3752 -0.6282 -0.6054
19869TIP3   OH281097   0.421   0.383  16.630 -0.8731  0.5409  0.4460
19869TIP3    H181098   0.456   0.351  16.547 -1.7440  0.2219  0.1909
19869TIP3    H281099   0.487   0.444  16.661 -0.1363  0.0225 -0.0604
19870TIP3   OH281100   3.749   3.043   3.271  0.4754 -0.0853 -0.2916
19870TIP3    H181101   3.726   3.018   3.182 -0.2882 -1.0650  0.1631
19870TIP3    H281102   3.774   3.135   3.265  1.5917 -0.4523 -1.7150
19871TIP3   OH281103   4.157   1.586   1.595  0.5509  0.1936 -0.6781
19871TIP3    H181104   4.208   1.660   1.562  1.6261  0.2361  0.9611
19871TIP3    H281105   4.211   1.509   1.576  0.1266 -0.0197 -1.0369
19872TIP3   OH281106   3.896   4.623   5.120  0.2417 -0.7150 -0.1745
19872TIP3    H181107   3.923   4.545   5.073  0.3221 -1.3214  0.8333
19872TIP3    H281108   3.935   4.612   5.208  0.8679  0.7995 -0.2297
19873TIP3   OH281109   1.676   6.791  11.390  0.4970 -0.3537 -0.4876
19873TIP3    H181110   1.651   6.797  11.482 -1.8217  0.0422 -1.0682
19873TIP3    H281111   1.735   6.865  11.376 -0.3703  0.5150  0.3440
19874TIP3   OH281112   5.872   4.970   4.763  0.1427 -0.3241 -0.4457
19874TIP3    H181113   5.854   4.876   4.755 -0.1884 -0.1551 -2.0779
19874TIP3    H281114   5.946   4.985   4.704 -0.2989  0.5580 -0.7925
19875TIP3   OH281115   6.783   2.333   0.006  0.5624 -0.1737 -0.3981
19875TIP3    H181116   6.868   2.356   0.042  1.0978 -0.9857 -1.1128
19875TIP3    H281117   6.761   2.405  -0.053  0.0766  0.7373  0.8319
19876TIP3   OH281118   2.903   3.119   1.547 -0.2354  0.2436 -0.8772
19876TIP3    H181119   2.935   3.113   1.637 -0.6885 -0.8304 -0.7721
19876TIP3    H281120   2.914   3.211   1.524 -1.2365  0.7902  0.7013
19877TIP3   OH281121   3.551   6.179   5.889 -0.1115 -0.4454 -0.1078
19877TIP3    H181122   3.509   6.191   5.974  2.2786 -2.2165  1.4284
19877TIP3    H281123   3.516   6.097   5.856  0.9297 -1.1299  0.4518
19878TIP3   OH281124   6.030   5.779  14.191 -0.3026 -0.5881 -0.1235
19878TIP3    H181125   6.073   5.779  14.277  2.1698 -1.9515 -1.2417
19878TIP3    H281126   6.052   5.865  14.154  0.6822 -0.8904 -0.2834
19879TIP3   OH281127   2.373   0.047   1.694  0.8513 -0.1014  0.2337
19879TIP3    H181128   2.359  -0.017   1.764 -0.3004 -0.2641 -0.1255
19879TIP3    H281129   2.293   0.043   1.642  2.0727 -0.7022 -1.6887
19880TIP3   OH281130   1.931   6.349  15.773 -0.6377 -0.1715 -0.1774
19880TIP3    H181131   1.845   6.367  15.811 -1.0312 -1.6443 -0.2861
19880TIP3    H281132   1.931   6.254  15.758 -0.0547  0.1741 -2.7940
19881TIP3   OH281133   1.492   6.653   5.979 -0.2267 -0.1655  0.4985
19881TIP3    H181134   1.434   6.723   5.947 -0.4040  0.3005  1.7714
19881TIP3    H281135   1.432   6.585   6.009 -0.0921 -0.0597  1.0020
19882TIP3   OH281136   1.305   0.052  15.884 -0.0763  0.0055  0.2480
19882TIP3    H181137   1.262   0.124  15.838 -1.1132 -0.9363 -0.2943
19882TIP3    H281138   1.285  -0.025  15.832  2.4996 -0.4636 -0.1870
19883TIP3   OH281139   4.560   4.752   3.865  0.3652  0.6146  0.0585
19883TIP3    H181140   4.622   4.824   3.878 -0.9227  1.6872  0.4179
19883TIP3    H281141   4.615   4.678   3.838  1.8437  1.4253  0.7064
19884TIP3   OH281142   3.085   0.166  17.210 -0.0607 -0.3625  0.0171
19884TIP3    H181143   3.065   0.259  17.207  2.3272  0.1902 -0.4626
19884TIP3    H281144   3.036   0.133  17.285  0.5392  1.6884  1.3836
19885TIP3   OH281145   4.882   0.452   4.287 -0.2267  0.2950 -0.2495
19885TIP3    H181146   4.956   0.511   4.299 -1.1750  1.6420 -0.8829
19885TIP3    H281147   4.918   0.379   4.237  1.5743 -0.9927  2.6291
19886TIP3   OH281148   0.987   6.613   5.222 -0.2227  0.2054 -0.0771
19886TIP3    H181149   0.948   6.552   5.159  0.7360  1.0683 -1.5461
19886TIP3    H281150   1.078   6.621   5.196 -0.0653  1.4547  0.7337
19887TIP3   OH281151   1.601   3.796   1.795 -0.1791  0.4211 -0.4915
19887TIP3    H181152   1.696   3.781   1.795  0.1910  2.4408  0.0475
19887TIP3    H281153   1.592   3.890   1.781 -2.1616  0.1394 -1.4065
19888TIP3   OH281154   0.090   2.671   0.880  0.1594  0.2337  0.2271
19888TIP3    H181155   0.116   2.643   0.968  0.3442  1.6500  0.6520
19888TIP3    H281156   0.130   2.606   0.822 -1.0855 -1.5233  1.2283
19889TIP3   OH281157   0.861   6.592   5.475 -0.2635  0.4144 -0.3494
19889TIP3    H181158   0.914   6.536   5.532  0.9246  2.7321  0.9671
19889TIP3    H281159   0.917   6.609   5.399 -0.3812  0.3203 -0.4579
19890TIP3   OH281160   5.967   3.508   0.569 -0.2984 -0.0085  0.3898
19890TIP3    H181161   5.950   3.456   0.648 -0.6668 -1.0155 -0.3275
19890TIP3    H281162   5.904   3.475   0.505  0.5989  0.1608 -0.6053
19891TIP3   OH281163   2.762   2.548   2.770 -0.8024  0.3223  0.4387
19891TIP3    H181164   2.815   2.624   2.744  1.5465 -0.7172  1.8381
19891TIP3    H281165   2.719   2.520   2.689 -1.7722  3.1006 -0.1220
19892TIP3   OH281166   3.525   3.978   5.637  0.0276  0.3560  0.1060
19892TIP3    H181167   3.531   3.921   5.560 -0.6027 -0.1348  0.4160
19892TIP3    H281168   3.504   3.919   5.709 -0.9000  1.0165  0.3840
19893TIP3   OH281169   0.018   5.490   0.796  0.2891  0.2180  0.0625
19893TIP3    H181170  -0.034   5.420   0.756 -2.9135  1.4672  1.6353
19893TIP3    H281171   0.074   5.446   0.859  0.5327 -1.1514 -1.0730
19894TIP3   OH281172   5.743   4.699   5.135  0.0932 -0.2376 -0.0699
19894TIP3    H181173   5.787   4.773   5.178 -1.6784  0.1029  1.2385
19894TIP3    H281174   5.736   4.727   5.043 -0.0440  0.9871  0.2867
19895TIP3   OH281175   4.421   6.103  11.124  0.4168  0.5516 -0.7262
19895TIP3    H181176   4.356   6.039  11.097  0.7748  0.2451 -0.8757
19895TIP3    H281177   4.485   6.104  11.052  0.2414  1.3223 -0.8807
19896TIP3   OH281178   0.068   4.576   3.924  0.2803  0.0459 -0.0224
19896TIP3    H181179   0.161   4.585   3.948  0.8294 -0.4178 -1.7883
19896TIP3    H281180   0.020   4.612   3.999  1.9468  2.5195 -0.0278
19897TIP3   OH281181   0.146   4.220  14.018 -0.0268 -0.1640 -0.1754
19897TIP3    H181182   0.160   4.138  13.971 -0.6782 -0.2849 -0.1660
19897TIP3    H281183   0.056   4.245  13.997  0.0459  0.3629  0.1105
19898TIP3   OH281184   6.542   4.802   3.980  0.2683 -0.0498  0.0398
19898TIP3    H181185   6.604   4.863   3.941  0.5542 -0.4679 -0.1757
19898TIP3    H281186   6.512   4.846   4.060 -0.6122  0.9714 -0.8242
19899TIP3   OH281187   0.290   2.775   5.986  0.1801  0.7313 -0.3739
19899TIP3    H181188   0.232   2.700   5.970 -0.1201  0.9822 -0.4703
19899TIP3    H281189   0.261   2.842   5.924  2.0343  0.1065 -2.0548
19900TIP3   OH281190   2.638   6.557   4.809 -0.2335 -0.6953 -0.2173
19900TIP3    H181191   2.627   6.651   4.797 -1.0952 -0.7134  0.3491
19900TIP3    H281192   2.715   6.548   4.865 -0.5512 -0.2914  0.2853
19901TIP3   OH281193   2.358   1.175  15.309  0.0734  1.2904 -0.1356
19901TIP3    H181194   2.269   1.154  15.281 -0.9343  0.8003  3.0155
19901TIP3    H281195   2.415   1.126  15.249 -1.8382  0.0056 -0.9796
19902TIP3   OH281196   5.034   3.412   0.481 -0.4472  0.2002  1.1845
19902TIP3    H181197   4.945   3.434   0.509 -0.3224  0.5773  1.2955
19902TIP3    H281198   5.072   3.367   0.557 -0.7735 -0.6127  0.8796
19903TIP3   OH281199   6.449   4.361  11.526 -0.3108  0.1692  0.2348
19903TIP3    H181200   6.512   4.405  11.583 -0.5742  1.5805 -0.5314
19903TIP3    H281201   6.500   4.293  11.482  1.0097  1.9931 -1.2100
19904TIP3   OH281202   1.318   0.367   0.414 -0.1119 -0.0145 -0.0410
19904TIP3    H181203   1.340   0.401   0.501 -0.3396  0.8202 -0.3023
19904TIP3    H281204   1.320   0.272   0.424  1.0814  0.0577  0.5788
19905TIP3   OH281205   0.892   4.764   5.393 -0.0892  0.4861 -0.5427
19905TIP3    H181206   0.985   4.739   5.397 -0.0111  0.3984 -2.2078
19905TIP3    H281207   0.894   4.856   5.364 -0.5044  0.7950  0.3956
19906TIP3   OH281208   3.553   3.455   6.186 -0.3088  0.0288 -0.4644
19906TIP3    H181209   3.464   3.421   6.191  0.1204 -1.2498 -0.8555
19906TIP3    H281210   3.608   3.376   6.179  0.8069  0.8038 -0.7596
19907TIP3   OH281211   4.476   5.582   2.768  0.2788 -0.3986  0.1386
19907TIP3    H181212   4.493   5.541   2.684  1.5285  0.2949  0.0312
19907TIP3    H281213   4.382   5.573   2.781 -0.0579  0.1790 -1.6924
19908TIP3   OH281214   1.595   5.848  16.512  0.5017 -0.1697 -0.0389
19908TIP3    H181215   1.687   5.822  16.515  0.3452 -0.7052  0.2266
19908TIP3    H281216   1.591   5.927  16.567  0.7464 -0.3110  0.1859
19909TIP3   OH281217   0.048   6.046   3.912  0.2171  0.3907  0.1949
19909TIP3    H181218   0.016   6.130   3.879  0.7634  0.2253 -0.7725
19909TIP3    H281219   0.138   6.064   3.941 -0.2194  0.5159  1.5684
19910TIP3   OH281220   2.214   2.720  14.377 -0.2405 -0.2096  0.6309
19910TIP3    H181221   2.297   2.676  14.395  0.8388  0.7696 -1.5782
19910TIP3    H281222   2.238   2.801  14.333 -2.3739 -0.3716 -1.0346
19911TIP3   OH281223   0.558   2.206  13.934  0.7489  0.2119 -0.1648
19911TIP3    H181224   0.498   2.169  13.999 -0.3783  2.2487  0.0433
19911TIP3    H281225   0.642   2.213  13.980  0.8034 -1.3324  0.0135
19912TIP3   OH281226   4.661   5.060  12.651 -0.1285  0.2526 -0.4022
19912TIP3    H181227   4.664   5.066  12.746 -0.5532  0.4350 -0.3954
19912TIP3    H281228   4.668   5.151  12.621 -0.3904  0.2311 -0.5323
19913TIP3   OH281229   5.431   6.165   1.567  0.1802 -0.0325 -0.3804
19913TIP3    H181230   5.504   6.188   1.510  0.8907 -2.0194 -0.3802
19913TIP3    H281231   5.378   6.106   1.514  0.2180 -0.9705  0.5883
19914TIP3   OH281232   4.157   6.642  11.586 -0.0642 -0.1813  0.0849
19914TIP3    H181233   4.152   6.710  11.652 -0.2529 -1.0264  0.9694
19914TIP3    H281234   4.251   6.631  11.569  0.0511 -0.6115  0.9346
19915TIP3   OH281235   1.583   5.416   1.595  0.1906 -0.1367  0.3498
19915TIP3    H181236   1.586   5.337   1.541  1.6271 -0.6065  1.0828
19915TIP3    H281237   1.670   5.423   1.633  0.3062  2.1775 -0.2011
19916TIP3   OH281238   4.377   3.130   5.555 -0.1343 -0.4106 -0.3477
19916TIP3    H181239   4.377   3.088   5.469 -0.7396 -0.9669 -0.0928
19916TIP3    H281240   4.360   3.058   5.616 -1.8089  0.2719  0.0487
19917TIP3   OH281241   4.517   3.826  16.632  0.8634 -0.8250 -0.3006
19917TIP3    H181242   4.497   3.760  16.698 -0.3099 -0.7836 -0.5862
19917TIP3    H281243   4.431   3.854  16.600  1.3207  0.8447 -0.1827
19918TIP3   OH281244   3.118   3.312   3.966  0.2627 -0.2336  0.3070
19918TIP3    H181245   3.057   3.250   4.007 -0.5352  1.0387  1.1061
19918TIP3    H281246   3.080   3.330   3.880 -0.4173  0.4360  0.7421
19919TIP3   OH281247   1.313   5.486  13.697 -0.0541 -0.5673  0.4123
19919TIP3    H181248   1.283   5.403  13.733 -1.2768  0.4388  1.8633
19919TIP3    H281249   1.258   5.501  13.620  0.4722 -1.2807 -0.1148
19920TIP3   OH281250   5.838   2.586  11.711 -0.1678  0.1026  0.0977
19920TIP3    H181251   5.899   2.549  11.647 -0.2271 -0.0313  0.1177
19920TIP3    H281252   5.893   2.606  11.787  0.1522  1.5215 -0.4739
19921TIP3   OH281253   5.218   1.181   1.356 -0.8431 -0.0797 -0.3344
19921TIP3    H181254   5.171   1.260   1.385 -0.8283 -0.2595  0.1886
19921TIP3    H281255   5.307   1.193   1.387 -1.0089 -0.6241  0.3819
19922TIP3   OH281256   1.926   4.116   1.579 -0.6086 -0.0814 -0.3141
19922TIP3    H181257   1.994   4.067   1.623 -0.8359  1.8824  2.4816
19922TIP3    H281258   1.973   4.170   1.515  0.0800 -0.8439 -0.4718
19923TIP3   OH281259   4.509   1.412   5.214 -0.1712  0.4734 -0.3542
19923TIP3    H181260   4.604   1.420   5.200 -0.2743 -0.3842 -1.7151
19923TIP3    H281261   4.502   1.372   5.301  0.6174  2.6791  0.7957
19924TIP3   OH281262   3.907   4.144   4.320  0.2287 -0.5131  0.6519
19924TIP3    H181263   3.999   4.139   4.348  0.6892 -0.9876 -0.8271
19924TIP3    H281264   3.858   4.160   4.400  1.7923  1.7909  1.2422
19925TIP3   OH281265   1.517   5.405   3.920  0.0083  0.0344  0.0440
19925TIP3    H181266   1.428   5.437   3.930  0.0013  0.0472 -0.0545
19925TIP3    H281267   1.508   5.315   3.889  0.0189  0.5390 -1.5268
19926TIP3   OH281268   5.759   2.088   4.600 -0.0283  0.5759  0.1650
19926TIP3    H181269   5.854   2.100   4.599 -0.0282  0.5577 -0.1743
19926TIP3    H281270   5.747   1.995   4.622  0.0246  0.6477  0.4992
19927TIP3   OH281271   4.271   5.290  14.051 -0.3316 -0.4302 -0.2006
19927TIP3    H181272   4.232   5.370  14.087 -0.0786  0.0301 -0.9203
19927TIP3    H281273   4.356   5.318  14.018  0.8860 -1.5175  1.8366
19928TIP3   OH281274   1.138   1.564   5.681 -0.5311  0.2427  0.2648
19928TIP3    H181275   1.173   1.643   5.641  1.2098  0.5517  2.2216
19928TIP3    H281276   1.155   1.495   5.618 -1.1192  1.2375 -1.0216
19929TIP3   OH281277   1.585   0.753  16.372  0.0430 -0.0521 -0.0015
19929TIP3    H181278   1.630   0.767  16.455  1.5898  0.7466 -0.9355
19929TIP3    H281279   1.579   0.840  16.333  1.5002 -0.6969 -1.7914
19930TIP3   OH281280   1.783   3.633  16.382  1.0463  0.5350 -0.6118
19930TIP3    H181281   1.828   3.673  16.456 -0.7725 -0.8304  1.3388
19930TIP3    H281282   1.728   3.704  16.346  1.0775  0.9171  0.0797
19931TIP3   OH281283   1.461   2.489   0.850  0.0500 -0.7149 -0.3223
19931TIP3    H181284   1.384   2.519   0.897  0.3141  0.6934 -0.7186
19931TIP3    H281285   1.534   2.535   0.892  0.3230  0.3589 -1.8643
19932TIP3   OH281286   4.022   2.048   4.586  0.4183 -0.1176 -0.0840
19932TIP3    H181287   3.935   2.009   4.598  0.7404 -0.8269  0.0006
19932TIP3    H281288   4.070   1.985   4.533  1.4299 -0.5682  1.3059
19933TIP3   OH281289   6.131   5.648  11.377  0.7613  0.2985  0.3275
19933TIP3    H181290   6.166   5.571  11.421 -0.3113 -1.6032 -1.9631
19933TIP3    H281291   6.207   5.704  11.362  2.2370 -2.0109 -1.2257
19934TIP3   OH281292   3.469   2.292  12.635  0.1869 -0.0045  0.8832
19934TIP3    H181293   3.375   2.302  12.616 -0.1734 -1.9502  1.3821
19934TIP3    H281294   3.487   2.199  12.617  2.2968  0.5699 -0.2456
19935TIP3   OH281295   4.748   4.152  14.452 -0.1338 -0.0681 -0.0413
19935TIP3    H181296   4.791   4.075  14.413  0.5012  0.8868 -1.3242
19935TIP3    H281297   4.707   4.119  14.532  1.1407 -1.4853  0.0750
19936TIP3   OH281298   0.157   1.538   0.481  0.2725  0.3348  0.3381
19936TIP3    H181299   0.151   1.626   0.518 -2.1144  1.2688 -1.9838
19936TIP3    H281300   0.190   1.551   0.392 -1.6867 -0.8865 -0.6184
19937TIP3   OH281301   0.162   4.997   2.862  0.5931 -0.3970  0.0049
19937TIP3    H181302   0.142   4.945   2.940 -0.3846  2.5126  1.8805
19937TIP3    H281303   0.082   4.996   2.811  0.2351  0.0224  0.5435
19938TIP3   OH281304   5.240   3.171  13.408  0.1478 -0.0829  0.3644
19938TIP3    H181305   5.162   3.169  13.464 -0.2741 -2.2592 -0.1883
19938TIP3    H281306   5.313   3.156  13.467 -0.0872 -0.2165  0.6268
19939TIP3   OH281307   2.592   5.333  14.823 -0.6831  0.0625 -0.4237
19939TIP3    H181308   2.621   5.314  14.734 -0.1731  1.4016 -0.5719
19939TIP3    H281309   2.672   5.349  14.872 -1.0271  1.1432 -0.1823
19940TIP3   OH281310   6.157   4.755   0.277  0.3964 -0.0666 -0.6127
19940TIP3    H181311   6.097   4.823   0.308  0.8390 -0.1512  0.4940
19940TIP3    H281312   6.244   4.791   0.293  0.7281  0.6243 -3.4477
19941TIP3   OH281313   2.305   0.390   0.862  0.1039 -0.5527 -0.0796
19941TIP3    H181314   2.234   0.445   0.832  0.5038 -0.1685 -0.3257
19941TIP3    H281315   2.264   0.331   0.926 -0.6727 -1.1329 -1.0903
19942TIP3   OH281316   2.722   0.741  17.076 -0.1739 -0.3140 -0.3080
19942TIP3    H181317   2.723   0.683  17.152  1.3429 -0.6386 -0.5405
19942TIP3    H281318   2.696   0.684  17.003 -0.8737 -0.1760 -0.1741
19943TIP3   OH281319   2.933   0.752  13.188 -0.3843  0.6666  0.5399
19943TIP3    H181320   2.889   0.783  13.109  0.5126 -1.1518 -0.7436
19943TIP3    H281321   2.870   0.767  13.258 -1.3254  2.0513 -0.5461
19944TIP3   OH281322   1.855   6.257   2.957  0.5834 -0.2453  0.4749
19944TIP3    H181323   1.802   6.178   2.951 -1.1492  0.9152 -0.4936
19944TIP3    H281324   1.931   6.239   2.901 -0.5276 -0.7015 -0.9500
19945TIP3   OH281325   0.468   1.254   1.676  0.3476  0.2062 -0.7097
19945TIP3    H181326   0.539   1.307   1.712  0.7081 -0.7277 -0.0182
19945TIP3    H281327   0.511   1.175   1.644 -0.1481  0.4313 -1.9921
19946TIP3   OH281328   0.359   1.963   3.404  0.5434  0.4153 -0.9359
19946TIP3    H181329   0.417   1.996   3.335  1.6162 -1.6343 -1.0985
19946TIP3    H281330   0.410   1.972   3.485  1.3237 -1.7034 -1.1242
19947TIP3   OH281331   6.710   5.048   3.154  0.7709 -0.3127  0.0299
19947TIP3    H181332   6.743   5.111   3.219  1.7123 -0.8602  0.1027
19947TIP3    H281333   6.676   4.975   3.206 -1.6947  0.7284  0.0025
19948TIP3   OH281334   0.757   0.935  16.189  0.1933  0.1507 -0.9269
19948TIP3    H181335   0.722   0.899  16.271 -2.1680  0.3431 -1.7542
19948TIP3    H281336   0.832   0.988  16.215  0.0385 -0.5185  0.9948
19949TIP3   OH281337   3.940   4.484   1.867 -0.7041 -0.4182 -0.2108
19949TIP3    H181338   3.979   4.567   1.842 -1.2250  0.5981  2.0469
19949TIP3    H281339   4.006   4.418   1.844 -0.3159  0.5739 -2.1065
19950TIP3   OH281340   1.811   5.489   4.728  0.4733 -0.6623  0.0782
19950TIP3    H181341   1.767   5.505   4.811  0.0618  0.3305 -0.3138
19950TIP3    H281342   1.785   5.401   4.702  0.5971 -0.9692  0.9909
19951TIP3   OH281343   3.939   2.575   4.944  0.3049  0.3371 -0.1790
19951TIP3    H181344   3.964   2.649   4.999  0.6127  0.1432 -0.0544
19951TIP3    H281345   4.006   2.509   4.962 -1.6772 -1.2153  2.1714
19952TIP3   OH281346   6.279   6.764   5.166  0.1145 -0.4863  0.0435
19952TIP3    H181347   6.340   6.835   5.142  0.9700 -0.9104  0.8789
19952TIP3    H281348   6.205   6.809   5.207  1.3840 -0.1057  2.0921
19953TIP3   OH281349   5.463   4.471   3.513  0.3231 -0.5972  0.5689
19953TIP3    H181350   5.539   4.445   3.461 -1.1575 -0.1385 -1.9359
19953TIP3    H281351   5.406   4.394   3.514 -1.3838  0.5314 -1.8487
19954TIP3   OH281352   6.373   1.468  12.599 -0.6389 -0.1796  0.2800
19954TIP3    H181353   6.330   1.531  12.540 -0.5506  0.5884  1.0175
19954TIP3    H281354   6.467   1.481  12.583 -0.5808  0.6212  1.1547
19955TIP3   OH281355   0.892   0.426   4.465 -0.1501  0.2720  0.0844
19955TIP3    H181356   0.856   0.343   4.433  0.6305 -0.5236  1.1984
19955TIP3    H281357   0.980   0.404   4.494  1.2348  2.1176 -2.3617
19956TIP3   OH281358   6.341   6.430  13.498 -0.2266 -0.0389 -0.2149
19956TIP3    H181359   6.337   6.402  13.407  0.7710  0.1426 -0.3158
19956TIP3    H281360   6.277   6.501  13.504 -2.3989 -1.8981 -0.0853
19957TIP3   OH281361   6.674   1.194   1.991 -0.1698 -0.3755 -0.3163
19957TIP3    H181362   6.594   1.223   2.035  1.1411 -0.1483  2.0760
19957TIP3    H281363   6.734   1.170   2.062  1.9049 -0.5564 -2.0098
19958TIP3   OH281364   6.117   1.272  15.733  0.1773  0.4637  0.0800
19958TIP3    H181365   6.043   1.327  15.759  1.0547  1.5380  0.3840
19958TIP3    H281366   6.086   1.227  15.654 -1.4978 -0.6781  1.3232
19959TIP3   OH281367   0.187   5.480   1.890 -0.0726  1.4739 -0.0984
19959TIP3    H181368   0.133   5.402   1.897  0.3277  1.1717 -0.3372
19959TIP3    H281369   0.184   5.520   1.977  1.0853  0.2754  0.5263
19960TIP3   OH281370   5.942   0.577   2.510  0.1309 -0.3500 -0.5560
19960TIP3    H181371   6.001   0.533   2.572  0.8058 -1.8143 -2.1577
19960TIP3    H281372   5.967   0.670   2.516  1.9970 -0.7982 -0.5105
19961TIP3   OH281373   6.631   4.722  16.288 -0.0356 -0.8344  0.2705
19961TIP3    H181374   6.572   4.744  16.215 -0.9564  1.0850  1.5128
19961TIP3    H281375   6.712   4.768  16.268 -1.2249  2.2175  1.7513
19962TIP3   OH281376   0.578   2.064   2.454 -0.0157 -0.1431 -0.0972
19962TIP3    H181377   0.626   2.113   2.388 -0.3589 -0.7306 -0.7998
19962TIP3    H281378   0.642   2.004   2.492  0.1049 -0.0492 -0.1562
19963TIP3   OH281379   6.130   4.620  17.082  0.3066 -0.2096  0.7941
19963TIP3    H181380   6.069   4.634  17.009 -0.6982 -1.4116  1.3445
19963TIP3    H281381   6.205   4.576  17.043 -0.8453 -2.1616  0.6637
19964TIP3   OH281382   2.518   1.186   1.384  0.5687  0.0672  0.0464
19964TIP3    H181383   2.588   1.151   1.329  2.6617  2.4970  0.9311
19964TIP3    H281384   2.535   1.149   1.470  2.1378  2.2008  0.7352
19965TIP3   OH281385   3.759   6.687  11.194  0.1063  0.3454  0.3087
19965TIP3    H181386   3.773   6.668  11.101  1.3581  0.7095  0.3988
19965TIP3    H281387   3.837   6.652  11.237  0.0489  1.1538  1.0889
19966TIP3   OH281388   2.188   6.198   5.097  0.2533  0.8046 -0.2173
19966TIP3    H181389   2.203   6.141   5.172  2.7248 -0.8296 -1.8176
19966TIP3    H281390   2.120   6.153   5.047  1.8415 -0.6011 -1.2170
19967TIP3   OH281391   0.533   6.651   4.535  0.2017  0.1376 -0.3518
19967TIP3    H181392   0.571   6.599   4.605 -0.5056 -0.3772 -0.3490
19967TIP3    H281393   0.608   6.696   4.496  0.6659  0.0274  0.3939
19968TIP3   OH281394   4.090   0.108   4.234 -0.4765  0.6162 -0.1955
19968TIP3    H181395   4.126   0.183   4.187  1.7794  0.1884  0.7210
19968TIP3    H281396   4.046   0.146   4.310  0.4259  1.0641  0.1216
19969TIP3   OH281397   2.968   0.699  11.174  0.2734 -0.0298 -0.0025
19969TIP3    H181398   2.954   0.787  11.209  2.1353  1.1023 -1.8677
19969TIP3    H281399   2.892   0.684  11.118  0.4321  0.8434 -0.4717
19970TIP3   OH281400   1.722   1.151   5.569 -0.5306  0.5081  0.2611
19970TIP3    H181401   1.773   1.157   5.489 -2.3541  1.1070 -0.9074
19970TIP3    H281402   1.658   1.082   5.552  1.3008 -2.0113  2.5955
19971TIP3   OH281403   4.338   2.440   2.056  0.4649  0.1648  0.4357
19971TIP3    H181404   4.261   2.494   2.074  0.3886  0.4894 -0.7957
19971TIP3    H281405   4.406   2.503   2.033 -0.0273 -0.2502 -2.5266
19972TIP3   OH281406   3.619   5.959  11.856  0.1195  0.1526  0.4089
19972TIP3    H181407   3.577   6.008  11.927  0.0329 -1.7495  1.7525
19972TIP3    H281408   3.565   5.978  11.779 -1.3302  0.3113  1.4100
19973TIP3   OH281409   5.843   4.700  10.351  0.0753 -0.8365 -0.4678
19973TIP3    H181410   5.868   4.629  10.292 -1.8458 -1.2850 -0.8029
19973TIP3    H281411   5.755   4.678  10.379 -0.9360  1.8402 -1.2511
19974TIP3   OH281412   0.920   5.946   0.089 -0.5899 -0.1967  0.0552
19974TIP3    H181413   1.014   5.925   0.085  0.7791  4.6677 -0.8038
19974TIP3    H281414   0.882   5.901   0.014  1.3430 -1.2643 -0.3601
19975TIP3   OH281415   3.716   1.562   5.764  0.3896  0.8635  0.0763
19975TIP3    H181416   3.703   1.544   5.857  0.0156  0.6459 -0.0151
19975TIP3    H281417   3.631   1.593   5.734  0.7212  1.6921 -0.0240
19976TIP3   OH281418   5.800   4.089   2.528 -0.0955  0.9344  0.0912
19976TIP3    H181419   5.746   4.148   2.476 -0.1172  1.8347  1.1087
19976TIP3    H281420   5.871   4.143   2.561 -0.4432  0.5569  1.5272
19977TIP3   OH281421   3.357   4.924  16.157  0.7037 -0.0233 -0.9372
19977TIP3    H181422   3.452   4.916  16.144  1.0070  2.3098 -0.5865
19977TIP3    H281423   3.341   4.879  16.240  0.9939 -2.8760 -2.3224
19978TIP3   OH281424   4.224   4.234  13.817 -0.8007  0.1549 -0.2607
19978TIP3    H181425   4.255   4.202  13.732 -0.9211 -0.7544  0.0313
19978TIP3    H281426   4.254   4.169  13.880  0.2200  1.3602  0.5618
19979TIP3   OH281427   5.536   3.720  11.425  0.5202  0.2299  0.2601
19979TIP3    H181428   5.578   3.772  11.357 -0.6461  1.3045  0.3116
19979TIP3    H281429   5.479   3.660  11.378  1.7735 -0.9700  0.2065
19980TIP3   OH281430   1.293   1.585  12.565 -0.5428 -0.6064  0.5060
19980TIP3    H181431   1.349   1.558  12.638  1.5819  1.2752 -0.3200
19980TIP3    H281432   1.279   1.505  12.515  2.4212 -1.0124  0.1482
19981TIP3   OH281433   1.699   6.740   3.674 -0.1547 -0.1854  0.3336
19981TIP3    H181434   1.671   6.698   3.756 -1.3185 -0.4388 -0.1850
19981TIP3    H281435   1.779   6.787   3.698 -0.1397 -0.7544  1.4767
19982TIP3   OH281436   0.870   0.844   1.102 -0.2003  0.3233  0.3750
19982TIP3    H181437   0.885   0.754   1.132  0.0837 -0.0633 -0.8603
19982TIP3    H281438   0.956   0.875   1.074 -0.6635  0.1424 -1.3680
19983TIP3   OH281439   4.980   0.808  10.282  0.3744 -0.3912 -0.2451
19983TIP3    H181440   4.889   0.779  10.292  0.2595  0.6892  2.5143
19983TIP3    H281441   4.976   0.903  10.286  1.5511 -0.2747 -1.1579
19984TIP3   OH281442   6.141   5.597   4.488 -0.6374 -0.5239  0.2964
19984TIP3    H181443   6.212   5.615   4.427 -1.6236  0.0392 -0.7263
19984TIP3    H281444   6.073   5.555   4.435 -1.9652  0.9773  0.7121
19985TIP3   OH281445   0.662   4.954   3.974 -0.0834  0.0310 -0.4949
19985TIP3    H181446   0.739   5.009   3.966 -0.4871  0.5537 -0.9137
19985TIP3    H281447   0.652   4.939   4.068 -0.2735  1.1416 -0.3199
19986TIP3   OH281448   0.713   0.838  16.450 -0.3707  0.0353 -0.2324
19986TIP3    H181449   0.623   0.804  16.448 -0.6757  0.8434 -1.1516
19986TIP3    H281450   0.728   0.859  16.542 -0.2788 -2.2161  0.3296
19987TIP3   OH281451   0.327   0.340   0.546 -0.0565  0.1649 -0.1370
19987TIP3    H181452   0.331   0.379   0.459 -1.6965 -1.0440 -0.8170
19987TIP3    H281453   0.370   0.256   0.537 -1.6946 -0.7045 -0.2697
19988TIP3   OH281454   0.454   1.804   2.595 -0.4327 -0.7053 -0.5142
19988TIP3    H181455   0.474   1.748   2.671  1.8633  0.2498 -0.3073
19988TIP3    H281456   0.517   1.877   2.603  0.2589 -0.8437 -3.6069
19989TIP3   OH281457   2.865   3.865  17.033  0.1533 -0.2454 -0.3807
19989TIP3    H181458   2.851   3.958  17.050  0.8073 -0.4424  1.4203
19989TIP3    H281459   2.858   3.857  16.938  0.4171  1.6948 -0.6047
19990TIP3   OH281460   6.351   3.468  12.174  0.7783  0.2530 -0.3604
19990TIP3    H181461   6.331   3.416  12.252  1.2802  0.3558 -0.1567
19990TIP3    H281462   6.441   3.499  12.189  0.0881  2.1883  0.1112
19991TIP3   OH281463   2.488   1.977   0.176 -0.1095  0.3661 -0.0238
19991TIP3    H181464   2.452   1.908   0.231  2.4226 -1.9128 -0.9963
19991TIP3    H281465   2.524   2.041   0.238 -1.8093  0.4774  0.8968
19992TIP3   OH281466   6.493   5.668  13.511  0.0951  0.5450  0.1513
19992TIP3    H181467   6.491   5.648  13.604 -0.2328  0.6971  0.1798
19992TIP3    H281468   6.522   5.759  13.506 -1.6276  1.1449  0.2239
19993TIP3   OH281469   2.988   5.943   1.151  0.0507 -0.1462  0.2469
19993TIP3    H181470   2.907   5.935   1.202 -0.1954 -0.2085 -0.1475
19993TIP3    H281471   3.056   5.959   1.216 -0.3091  0.1010  0.5655
19994TIP3   OH281472   0.800   0.790  13.780  0.7148  0.0968 -0.0044
19994TIP3    H181473   0.844   0.874  13.792  0.6067  0.0705  0.6226
19994TIP3    H281474   0.707   0.810  13.791  0.7500 -0.2391  0.9669
19995TIP3   OH281475   2.399   6.738  15.700 -0.3762 -0.5174 -0.7372
19995TIP3    H181476   2.321   6.703  15.658 -0.9257  0.1913 -0.3302
19995TIP3    H281477   2.434   6.801  15.637  1.2342 -2.4966 -1.9522
19996TIP3   OH281478   4.276   3.352   4.077  0.3653 -0.5835 -0.3222
19996TIP3    H181479   4.256   3.399   4.157 -1.5748 -1.8083 -0.0400
19996TIP3    H281480   4.372   3.352   4.073  0.4600  1.2740  0.8768
19997TIP3   OH281481   0.298   5.552   3.317  0.2586 -0.3094 -0.3318
19997TIP3    H181482   0.226   5.612   3.301  0.2526 -0.7072 -1.9384
19997TIP3    H281483   0.313   5.509   3.233  0.2845 -2.5369  0.7299
19998TIP3   OH281484   0.150   6.356  16.754 -0.3767 -0.3710 -0.2310
19998TIP3    H181485   0.234   6.399  16.747  0.0499 -0.8502  1.4166
19998TIP3    H281486   0.142   6.304  16.674  1.0066 -0.5162 -0.2925
19999TIP3   OH281487   2.810   6.132   2.375 -0.3037  0.2170  0.5968
19999TIP3    H181488   2.872   6.105   2.442 -0.3783  0.1895  0.6545
19999TIP3    H281489   2.800   6.227   2.388 -2.2340 -0.1310  2.2549
20000TIP3   OH281490   6.703   3.541   0.182 -0.5672 -0.3997 -0.0243
20000TIP3    H181491   6.779   3.502   0.137 -0.9720  1.0277 -2.1148
20000TIP3    H281492   6.629   3.518   0.126 -1.6167 -1.1752  1.6304
20001TIP3   OH281493   1.941   1.134  10.879  0.0003  0.0784  0.1990
20001TIP3    H181494   1.871   1.163  10.821  0.5530  1.1829  0.0608
20001TIP3    H281495   1.903   1.061  10.929 -0.9811  0.1579 -0.4185
20002TIP3   OH281496   5.856   5.479  10.674 -0.4954 -0.4914  0.1936
20002TIP3    H181497   5.846   5.510  10.584 -0.2584  0.6858  0.5591
20002TIP3    H281498   5.806   5.542  10.727  0.4039 -0.4404  1.0063
20003TIP3   OH281499   1.937   2.723   4.217  0.6670  0.0384 -0.1554
20003TIP3    H181500   1.907   2.737   4.307 -0.8455 -2.1153 -0.2493
20003TIP3    H281501   2.007   2.659   4.225  1.7872  1.1956 -0.3994
20004TIP3   OH281502   0.047   4.085  16.245 -0.0130  0.9517  1.1178
20004TIP3    H181503   0.084   4.057  16.329  0.4883 -0.6626  0.4114
20004TIP3    H281504   0.018   4.003  16.204 -1.1252  1.8089  0.1179
20005TIP3   OH281505   0.105   3.429  15.037  0.0498  0.6483 -0.0417
20005TIP3    H181506   0.066   3.510  15.069  1.9379  2.0058 -0.9691
20005TIP3    H281507   0.033   3.365  15.038 -0.7941  1.4886  3.4520
20006TIP3   OH281508   1.428   5.082   4.009 -0.0800 -0.7718 -0.5709
20006TIP3    H181509   1.351   5.140   4.006 -0.9157 -1.8339 -0.2812
20006TIP3    H281510   1.403   5.006   3.957  0.5130 -1.4435  0.1001
20007TIP3   OH281511   1.189   1.727   2.981  0.0973  0.5798  0.4509
20007TIP3    H181512   1.272   1.717   3.027 -0.2707  0.5589  1.1169
20007TIP3    H281513   1.170   1.821   2.984 -0.2625  0.4968  0.9475
20008TIP3   OH281514   5.173   5.062   3.406 -0.3899 -0.4365  0.0203
20008TIP3    H181515   5.227   4.990   3.439  1.1773  0.6930  0.0363
20008TIP3    H281516   5.150   5.036   3.316  0.6390 -0.7135 -0.1723
20009TIP3   OH281517   2.350   5.018  16.304  0.3456 -0.1504  0.2750
20009TIP3    H181518   2.315   4.930  16.291 -0.3262  0.4559 -3.3642
20009TIP3    H281519   2.272   5.072  16.317  0.6779  0.0814  1.3851
20010TIP3   OH281520   4.547   3.941   2.417 -0.2562  0.3503 -0.0576
20010TIP3    H181521   4.553   4.001   2.344  1.3464 -0.3218 -0.5362
20010TIP3    H281522   4.475   3.974   2.470 -1.0427  1.2083 -1.6006
20011TIP3   OH281523   5.294   1.294  16.581 -0.0221  0.1426  0.0685
20011TIP3    H181524   5.368   1.354  16.590  1.0385 -0.9061 -1.2813
20011TIP3    H281525   5.241   1.332  16.510 -0.0881  0.1892  0.1416
20012TIP3   OH281526   6.645   4.169   0.021 -0.7071  0.2368  0.0321
20012TIP3    H181527   6.578   4.100   0.020 -2.0309  1.4639 -1.1143
20012TIP3    H281528   6.597   4.249   0.001  1.2262  1.0542 -1.7065
20013TIP3   OH281529   6.149   2.746  10.508 -0.2163 -0.3644  0.0691
20013TIP3    H181530   6.138   2.779  10.418  1.5278  0.2378  0.0423
20013TIP3    H281531   6.220   2.683  10.502 -0.3650 -0.6354  0.9766
20014TIP3   OH281532   2.742   5.326  17.189  0.4102  0.4332 -0.0069
20014TIP3    H181533   2.751   5.272  17.110  0.6200  0.4540  0.0017
20014TIP3    H281534   2.738   5.416  17.155  2.8240  0.6597  0.1091
20015TIP3   OH281535   6.547   5.146   4.016  0.2882 -0.4237  0.0382
20015TIP3    H181536   6.573   5.226   4.062 -2.6293  2.0274 -2.1862
20015TIP3    H281537   6.492   5.099   4.079 -1.1237  1.3130  0.1738
20016TIP3   OH281538   5.493   2.880   3.327  0.1080  0.2688 -0.1376
20016TIP3    H181539   5.539   2.920   3.400 -0.0584 -0.5356  0.4205
20016TIP3    H281540   5.447   2.952   3.285 -1.6497  0.4184  1.9089
20017TIP3   OH281541   6.552   0.996  14.253  0.2492  0.3773  0.0211
20017TIP3    H181542   6.522   0.918  14.206  0.3468  0.6056 -0.4231
20017TIP3    H281543   6.587   0.962  14.335  0.3510 -0.0569 -0.1982
20018TIP3   OH281544   0.228   2.132  14.657 -0.0083  0.3757  0.1799
20018TIP3    H181545   0.306   2.129  14.601  1.2195 -0.0526  1.8306
20018TIP3    H281546   0.168   2.190  14.610  1.5215  1.1996 -0.8719
20019TIP3   OH281547   3.609   4.037   2.900  0.6466 -0.2866  0.7377
20019TIP3    H181548   3.674   4.048   2.970  1.5315 -0.8377  0.0226
20019TIP3    H281549   3.605   4.124   2.859  1.1113 -0.3120  0.6328
20020TIP3   OH281550   1.263   1.563   0.147  0.1545 -0.3640  0.1338
20020TIP3    H181551   1.247   1.478   0.187 -0.8241 -0.0961  0.3252
20020TIP3    H281552   1.206   1.565   0.070  0.3392  0.0290  0.0035
20021TIP3   OH281553   0.571   0.236  11.413 -0.3628 -0.2515 -0.1055
20021TIP3    H181554   0.606   0.233  11.324 -2.5717  0.1268 -1.0450
20021TIP3    H281555   0.492   0.290  11.406 -1.1286 -1.0140  1.8983
20022TIP3   OH281556   5.867   2.861   5.905 -0.4549 -0.0260  0.3538
20022TIP3    H181557   5.866   2.918   5.829 -3.9471  1.1662  1.1357
20022TIP3    H281558   5.922   2.907   5.969 -0.1692  0.5540 -0.2950
20023TIP3   OH281559   5.120   2.868   1.430  0.0012 -0.1727  0.3444
20023TIP3    H181560   5.044   2.865   1.371  0.5983  0.8813 -0.4945
20023TIP3    H281561   5.151   2.777   1.433 -1.0249 -0.5403  0.3639
20024TIP3   OH281562   0.134   0.307   0.052  0.2707  1.0918  0.1073
20024TIP3    H181563   0.050   0.279   0.017  1.5683 -3.3876 -0.0933
20024TIP3    H281564   0.189   0.324  -0.025  1.3923 -2.9253 -0.1947
20025TIP3   OH281565   0.568   2.979   6.298 -0.4356 -0.6074 -0.4072
20025TIP3    H181566   0.540   3.069   6.313 -0.8135 -0.7037 -0.5255
20025TIP3    H281567   0.617   2.956   6.377  2.2064  0.6632 -1.5411
20026TIP3   OH281568   4.720   4.976   2.684  0.3596 -0.4903  0.3001
20026TIP3    H181569   4.750   5.015   2.766  1.8458 -1.1944  0.1149
20026TIP3    H281570   4.728   5.047   2.620 -2.6440  0.6647  1.0636
20027TIP3   OH281571   6.086   5.892  15.466  0.3029  0.1351 -0.1098
20027TIP3    H181572   5.993   5.886  15.491  0.2062  0.4369 -0.3937
20027TIP3    H281573   6.134   5.875  15.547  0.0243 -1.7369 -0.2750
20028TIP3   OH281574   0.438   4.204   2.477 -0.0602  0.3486 -0.2111
20028TIP3    H181575   0.435   4.140   2.548  0.3558  1.1388  0.5360
20028TIP3    H281576   0.515   4.258   2.497 -1.3910  2.1929  0.1685
20029TIP3   OH281577   2.088   5.184   0.540 -0.3303  0.0156  0.0320
20029TIP3    H181578   2.110   5.090   0.535  1.0045  0.2975  0.0578
20029TIP3    H281579   2.173   5.227   0.552 -1.0033  1.1808  0.7979
20030TIP3   OH281580   6.305   0.632  13.019  0.3668  0.0218  0.5458
20030TIP3    H181581   6.340   0.645  12.931  1.0058  0.3634  0.8482
20030TIP3    H281582   6.271   0.542  13.017 -0.1623  0.2284 -0.2248
20031TIP3   OH281583   3.566   0.286   0.127 -0.0563  0.1650 -0.1492
20031TIP3    H181584   3.640   0.310   0.183 -0.2839  1.2190 -0.2905
20031TIP3    H281585   3.511   0.364   0.126  0.0790  0.2692 -2.0675
20032TIP3   OH281586   2.736   1.786   5.244 -0.1304  0.1891 -0.5662
20032TIP3    H181587   2.683   1.778   5.165  0.1633  1.8590 -0.9757
20032TIP3    H281588   2.673   1.786   5.316 -0.5459  0.3286 -0.9260
20033TIP3   OH281589   4.803   4.071   3.609  0.3606  0.6538 -0.2903
20033TIP3    H181590   4.763   4.015   3.676  0.0637  1.7843  0.5118
20033TIP3    H281591   4.742   4.067   3.536  1.2031 -1.4290 -0.9601
20034TIP3   OH281592   1.994   6.019   5.499  0.0226  0.5825 -0.1285
20034TIP3    H181593   2.010   5.976   5.416 -0.9007 -0.7441  0.3359
20034TIP3    H281594   2.026   5.957   5.565  0.6187  1.5487  0.5199
20035TIP3   OH281595   3.582   5.307   2.733 -0.2762 -0.1093 -0.5254
20035TIP3    H181596   3.662   5.255   2.742 -0.7455 -0.6305  1.1592
20035TIP3    H281597   3.605   5.379   2.674  1.2074 -0.6576 -0.6429
20036TIP3   OH281598   0.600   4.715   3.849 -0.5346 -0.0605 -0.6869
20036TIP3    H181599   0.504   4.719   3.849 -0.7150 -1.7739  2.1453
20036TIP3    H281600   0.627   4.795   3.895 -0.9440 -1.5838  2.4482
20037TIP3   OH281601   1.781   3.126   1.206  0.4853  0.2096 -0.3358
20037TIP3    H181602   1.697   3.080   1.197 -0.8398  2.3755  0.1956
20037TIP3    H281603   1.758   3.211   1.242  2.9411  0.9281 -0.2740
20038TIP3   OH281604   4.755   5.147  13.643  0.1888 -0.0513 -0.1858
20038TIP3    H181605   4.809   5.112  13.714  0.4701  0.2098 -0.2687
20038TIP3    H281606   4.665   5.133  13.673  0.2958 -0.6113 -0.1060
20039TIP3   OH281607   6.335   3.060  16.652 -0.2514 -0.0415  0.3877
20039TIP3    H181608   6.362   3.116  16.724 -1.2003  1.1749 -0.1590
20039TIP3    H281609   6.274   3.113  16.602 -1.4478 -1.6872  0.0070
20040TIP3   OH281610   4.336   4.189  16.323 -0.0432  0.1179 -0.0947
20040TIP3    H181611   4.389   4.113  16.348 -0.1008 -0.5481 -1.8438
20040TIP3    H281612   4.249   4.171  16.359 -0.1337 -0.8010 -0.7622
20041TIP3   OH281613   2.038   5.174  13.877  0.0644  0.2876  0.0192
20041TIP3    H181614   2.067   5.135  13.960  1.6753  1.8316  0.2437
20041TIP3    H281615   2.000   5.258  13.901 -3.9740 -1.2043 -0.3989
20042TIP3   OH281616   4.766   2.709  15.497 -0.1139  0.6527 -0.0713
20042TIP3    H181617   4.790   2.797  15.469 -1.3168  1.0792  0.1733
20042TIP3    H281618   4.685   2.721  15.547 -1.4214 -0.7983 -1.7195
20043TIP3   OH281619   4.983   2.235   2.856  0.2029 -0.4506 -1.1346
20043TIP3    H181620   4.915   2.301   2.844  0.6127  0.1446 -0.2584
20043TIP3    H281621   4.983   2.186   2.774 -0.7048  0.0773 -1.4624
20044TIP3   OH281622   3.143   1.450   2.693  0.6414 -0.5669 -0.2675
20044TIP3    H181623   3.170   1.497   2.772 -0.0409 -0.1104 -0.2973
20044TIP3    H281624   3.104   1.369   2.725 -0.5340  0.0568 -0.0665
20045TIP3   OH281625   3.030   4.232  12.558  0.3031  0.1985  0.2085
20045TIP3    H181626   3.109   4.286  12.553 -0.4584  1.2361 -2.7808
20045TIP3    H281627   3.047   4.158  12.500 -0.6448  0.0646  0.0784
20046TIP3   OH281628   4.818   1.683  12.926  0.3218 -0.4856  0.0077
20046TIP3    H181629   4.864   1.617  12.874  1.6554 -0.1938  0.7626
20046TIP3    H281630   4.727   1.674  12.901  0.6768 -1.6332 -0.9727
20047TIP3   OH281631   1.122   1.349  11.360 -0.4614 -0.0388  0.3947
20047TIP3    H181632   1.188   1.360  11.292  0.4814 -2.9338  0.7116
20047TIP3    H281633   1.143   1.418  11.424  2.3697 -0.8568  0.5128
20048TIP3   OH281634   6.576   4.417  16.078  0.0105  0.3365 -0.2621
20048TIP3    H181635   6.658   4.401  16.125  0.2442  2.9441  0.3933
20048TIP3    H281636   6.604   4.462  15.997 -0.7389  0.8448 -0.2442
20049TIP3   OH281637   2.304   4.432  16.985  0.4851  0.6290  0.1277
20049TIP3    H181638   2.334   4.519  17.010 -2.5518  0.9818  3.4061
20049TIP3    H281639   2.217   4.447  16.947  0.2703 -0.8972 -0.0485
20050TIP3   OH281640   4.583   1.501   1.180  0.2292 -0.1260  0.0806
20050TIP3    H181641   4.666   1.510   1.227  0.4786  2.1197 -0.6885
20050TIP3    H281642   4.604   1.447   1.104  1.0036  0.4453 -0.1215
20051TIP3   OH281643   6.142   3.672  12.283  0.3390 -0.4407  0.2751
20051TIP3    H181644   6.214   3.627  12.237 -0.4337 -0.9666 -0.4591
20051TIP3    H281645   6.173   3.683  12.372  1.6372  0.0228 -0.2085
20052TIP3   OH281646   0.664   2.174   4.688  0.5314  0.0538  0.0052
20052TIP3    H181647   0.649   2.261   4.723  0.9949  0.6679 -1.2365
20052TIP3    H281648   0.648   2.115   4.761  0.2778  1.1820  0.8864
20053TIP3   OH281649   4.140   1.790  15.051 -0.2117  0.2220  0.0916
20053TIP3    H181650   4.181   1.815  14.968  0.1495 -4.5948 -1.5095
20053TIP3    H281651   4.196   1.721  15.085 -2.5012 -0.6882  2.2997
20054TIP3   OH281652   5.069   5.313   0.542 -0.1266 -0.0916 -0.9059
20054TIP3    H181653   5.013   5.352   0.475  0.8105 -1.5803 -2.6589
20054TIP3    H281654   5.040   5.223   0.548 -0.0502 -0.0300  0.5822
20055TIP3   OH281655   5.046   2.873  11.553 -0.0789 -0.4345  0.0601
20055TIP3    H181656   5.051   2.955  11.502 -2.0604 -0.7420 -0.7041
20055TIP3    H281657   5.102   2.889  11.629 -0.5580  1.7063  0.0259
20056TIP3   OH281658   3.946   0.536   3.260  0.2584 -0.0516 -0.1258
20056TIP3    H181659   4.025   0.482   3.258  0.3061 -0.0624  1.1138
20056TIP3    H281660   3.904   0.519   3.177  0.0406 -2.3745  0.3820
20057TIP3   OH281661   6.451   6.036   4.220  0.1401  0.2992  0.5022
20057TIP3    H181662   6.400   6.116   4.236  1.1200  1.4173 -1.5227
20057TIP3    H281663   6.386   5.973   4.189 -0.1970  1.5551 -1.5793
20058TIP3   OH281664   3.618   5.226   2.395  0.1060 -0.7469  0.1581
20058TIP3    H181665   3.567   5.206   2.474  1.9487 -3.8792  0.7234
20058TIP3    H281666   3.676   5.298   2.422 -2.2196  1.2594  0.1940
20059TIP3   OH281667   5.156   5.134  11.354 -0.0011  0.9117 -0.4325
20059TIP3    H181668   5.227   5.144  11.418 -1.1036 -0.2509  1.0522
20059TIP3    H281669   5.079   5.114  11.407 -0.7743 -1.0910 -2.1799
20060TIP3   OH281670   5.598   3.033  15.929  0.1967  0.5190  0.1971
20060TIP3    H181671   5.631   3.098  15.867  0.6589  1.1792  1.1067
20060TIP3    H281672   5.677   2.995  15.967 -0.0788 -0.2591  0.0045
20061TIP3   OH281673   5.638   0.835  14.473  0.2966 -0.3367 -0.2825
20061TIP3    H181674   5.621   0.800  14.386  1.8038 -1.8361 -0.0204
20061TIP3    H281675   5.578   0.787  14.531 -0.5495  0.5058 -0.4253
20062TIP3   OH281676   2.055   3.666  14.383 -0.3415  0.1665 -0.1907
20062TIP3    H181677   2.125   3.649  14.447  0.6104 -2.2971 -1.7221
20062TIP3    H281678   2.001   3.587  14.386 -2.1270  1.3409 -0.2402
20063TIP3   OH281679   3.237   6.207   0.848  0.6235 -0.6178  0.4509
20063TIP3    H181680   3.199   6.285   0.807  2.2522 -0.3943 -0.7479
20063TIP3    H281681   3.204   6.134   0.796  0.9473 -0.5175  0.1000
20064TIP3   OH281682   3.608   5.041   0.948  0.7524 -0.0795  0.0997
20064TIP3    H181683   3.645   5.080   0.869  1.1834  0.2797  0.4734
20064TIP3    H281684   3.684   5.008   0.997  0.4203 -1.1522 -0.0777
20065TIP3   OH281685   6.238   0.369  11.286  0.0158  0.2410  0.2344
20065TIP3    H181686   6.224   0.435  11.354  2.1721  0.0280  0.9547
20065TIP3    H281687   6.180   0.297  11.311 -0.5810  0.8873  0.7808
20066TIP3   OH281688   1.347   2.869  16.618  0.4029 -0.3066  0.2152
20066TIP3    H181689   1.339   2.884  16.713 -2.1951 -0.1516  0.0504
20066TIP3    H281690   1.415   2.802  16.610  1.6015  0.6151  2.0689
20067TIP3   OH281691   4.101   2.379  15.745  0.0784 -0.2054 -0.7878
20067TIP3    H181692   4.047   2.457  15.760  0.2000 -0.2598 -0.0140
20067TIP3    H281693   4.190   2.408  15.765  0.2978 -0.2067 -1.7338
20068TIP3   OH281694   6.060   6.253   3.492  0.3312  0.2185 -0.3256
20068TIP3    H181695   6.014   6.283   3.413  3.4959  0.2232 -2.3419
20068TIP3    H281696   6.092   6.166   3.470  0.7790 -0.0442  1.2283
20069TIP3   OH281697   3.902   1.033  15.085 -0.2649  0.2270  0.4336
20069TIP3    H181698   3.947   1.117  15.096 -2.3186  1.2568  1.6084
20069TIP3    H281699   3.828   1.037  15.146 -0.6250 -2.3219  0.2816
20070TIP3   OH281700   1.240   5.753  15.738 -0.0479  0.7380  0.2840
20070TIP3    H181701   1.192   5.673  15.761  0.7665  0.0038 -0.5225
20070TIP3    H281702   1.255   5.796  15.822 -2.0461  0.9744  0.5767
20071TIP3   OH281703   1.010   0.603   1.991 -0.2094  0.7269  0.4278
20071TIP3    H181704   1.007   0.699   1.995 -1.9724  0.6934  0.5958
20071TIP3    H281705   1.048   0.583   1.905  0.4777  1.5523  0.5234
20072TIP3   OH281706   4.396   2.174   1.544 -0.0604 -0.3045  0.0757
20072TIP3    H181707   4.337   2.141   1.612 -0.0936 -0.2116  0.0917
20072TIP3    H281708   4.436   2.251   1.582 -2.1586  1.4226 -0.9918
20073TIP3   OH281709   1.803   1.615  14.196  0.1015  0.0894 -0.5742
20073TIP3    H181710   1.768   1.557  14.128 -1.0157  1.7665 -1.4922
20073TIP3    H281711   1.842   1.688  14.148  0.2022  0.8097  0.5647
20074TIP3   OH281712   4.985   3.182  15.245  0.3596  0.7346  0.2612
20074TIP3    H181713   5.071   3.191  15.287  1.1980  0.6623 -1.3827
20074TIP3    H281714   4.966   3.089  15.250  0.2204  0.7915  0.9044
20075TIP3   OH281715   3.767   0.408  12.191 -0.1319  0.2595  0.5131
20075TIP3    H181716   3.731   0.390  12.278 -0.5917 -2.6761 -0.1678
20075TIP3    H281717   3.850   0.360  12.189  2.1347  3.8254  0.7302
20076TIP3   OH281718   0.526   0.500  15.410 -0.4906 -0.1552  0.1222
20076TIP3    H181719   0.572   0.479  15.491 -2.2562  0.5328  1.3656
20076TIP3    H281720   0.548   0.427  15.351 -0.5294 -1.5945  1.7959
20077TIP3   OH281721   5.858   4.975   6.394  0.3715 -0.2794 -0.2904
20077TIP3    H181722   5.916   5.042   6.430 -0.0891 -0.9293  1.8653
20077TIP3    H281723   5.910   4.895   6.395  0.1325 -0.4370 -0.3926
20078TIP3   OH281724   4.740   6.416   2.626 -0.5195  0.9090  0.2857
20078TIP3    H181725   4.645   6.410   2.618 -0.5884 -0.1515  1.4880
20078TIP3    H281726   4.757   6.401   2.719  0.6971  3.1786  0.5109
20079TIP3   OH281727   1.944   3.160  13.280  0.3014  0.3308 -0.3913
20079TIP3    H181728   1.965   3.161  13.373  1.3898  0.2279 -0.6213
20079TIP3    H281729   2.029   3.161  13.236 -0.1462 -1.2889 -1.3719
20080TIP3   OH281730   4.054   1.915   4.861 -0.1921  0.5218 -0.0494
20080TIP3    H181731   3.995   1.877   4.797 -0.3024  0.4467  0.0961
20080TIP3    H281732   3.997   1.967   4.918 -0.2498 -0.2678  0.6322
20081TIP3   OH281733   6.600   3.514  12.286 -0.9161 -0.5060 -0.2114
20081TIP3    H181734   6.686   3.533  12.247 -0.0573 -0.1450  1.7550
20081TIP3    H281735   6.620   3.469  12.368 -2.5972 -0.1702  0.4257
20082TIP3   OH281736   4.424   1.746  10.856 -0.2884  0.4615 -1.0463
20082TIP3    H181737   4.381   1.692  10.923  2.8212  0.7148  1.4257
20082TIP3    H281738   4.380   1.831  10.863  0.3270  0.6756  1.2648
20083TIP3   OH281739   0.231   2.733   2.931  0.1295  0.1587 -0.2187
20083TIP3    H181740   0.285   2.794   2.880  2.5156 -0.8916  0.9021
20083TIP3    H281741   0.165   2.789   2.972  0.2463  1.4985 -1.7503
20084TIP3   OH281742   3.674   3.205  11.722  0.4403 -0.3981  0.4782
20084TIP3    H181743   3.594   3.230  11.676 -0.1724 -0.2931  1.5560
20084TIP3    H281744   3.688   3.276  11.785  2.6534  0.7421 -1.1602
20085TIP3   OH281745   4.208   4.702   1.304 -0.3215 -0.4409 -0.1508
20085TIP3    H181746   4.282   4.661   1.259 -0.3452 -1.2536  0.5245
20085TIP3    H281747   4.133   4.687   1.246  0.0724  0.6756 -0.9993
20086TIP3   OH281748   5.825   4.973  11.359 -0.2048 -0.5760  0.1411
20086TIP3    H181749   5.864   5.022  11.286 -1.3701  0.8382  0.4262
20086TIP3    H281750   5.800   5.040  11.422 -2.4301 -1.4717  0.2892
20087TIP3   OH281751   5.122   2.425  16.948  0.2937 -0.0045 -0.5085
20087TIP3    H181752   5.100   2.340  16.910  0.2665  0.4399 -1.5193
20087TIP3    H281753   5.169   2.471  16.878  3.4188 -0.4259  1.0952
20088TIP3   OH281754   6.139   5.991  14.060 -0.1242 -0.7390 -0.6583
20088TIP3    H181755   6.085   6.060  14.022 -0.6972  0.3075  1.8054
20088TIP3    H281756   6.228   6.025  14.057 -0.0262 -1.0676 -1.8230
20089TIP3   OH281757   3.318   1.811   1.616  0.2343  0.7564  0.1503
20089TIP3    H181758   3.237   1.820   1.666 -0.5750 -1.2583 -0.6960
20089TIP3    H281759   3.381   1.778   1.679 -0.7449 -1.6597 -0.0466
20090TIP3   OH281760   6.656   1.492   3.429 -0.2068  0.3574  0.1351
20090TIP3    H181761   6.606   1.412   3.414 -1.5616  0.2009  4.1608
20090TIP3    H281762   6.746   1.461   3.442 -0.3228 -0.2437 -0.4602
20091TIP3   OH281763   5.394   2.685  16.504 -0.2581 -0.3414  0.5573
20091TIP3    H181764   5.386   2.674  16.410  1.7504 -0.6132  0.3738
20091TIP3    H281765   5.327   2.749  16.527 -1.5467 -1.1434 -0.8512
20092TIP3   OH281766   4.012   0.834   2.165 -0.2938  0.0048  0.6186
20092TIP3    H181767   3.999   0.778   2.241 -1.8398 -1.1218 -0.4211
20092TIP3    H281768   4.090   0.799   2.123 -0.1163 -0.1155  1.0400
20093TIP3   OH281769   2.711   2.802   0.458 -1.0064 -0.4502  0.3662
20093TIP3    H181770   2.655   2.746   0.406  1.2105 -3.0665  0.5667
20093TIP3    H281771   2.709   2.763   0.546  1.2928 -0.8924  0.2946
20094TIP3   OH281772   3.411   2.986  14.557 -0.5787 -0.2438  0.1144
20094TIP3    H181773   3.398   2.950  14.645 -0.4903  0.3525  0.3794
20094TIP3    H281774   3.344   2.945  14.504 -0.0667 -1.2977  0.2561
20095TIP3   OH281775   0.558   2.700   1.763 -0.4897  0.6549  0.1526
20095TIP3    H181776   0.653   2.694   1.768 -0.6504 -1.5157  3.1156
20095TIP3    H281777   0.535   2.772   1.822 -0.7160  2.1663 -1.6726
20096TIP3   OH281778   3.112   4.526   2.995  0.1937 -0.0663  0.8317
20096TIP3    H181779   3.111   4.579   2.915  0.0186 -0.3127  0.6702
20096TIP3    H281780   3.023   4.491   3.001  0.6883 -1.4864  0.1730
20097TIP3   OH281781   4.870   2.502  12.970 -0.1218  0.1273 -0.0169
20097TIP3    H181782   4.834   2.467  13.051 -0.4999 -0.4761 -0.4344
20097TIP3    H281783   4.898   2.591  12.992  0.4483 -0.2754  0.9558
20098TIP3   OH281784   1.850   6.000  13.811  0.2205 -0.1441 -0.5393
20098TIP3    H181785   1.900   5.947  13.749  2.2725  0.2128  0.7337
20098TIP3    H281786   1.758   5.982  13.788  0.8774 -0.9026 -2.8925
20099TIP3   OH281787   2.532   6.550   0.761 -0.0789  0.0074 -0.3784
20099TIP3    H181788   2.440   6.549   0.737  0.0197 -0.3587 -0.7529
20099TIP3    H281789   2.534   6.590   0.848 -0.7333 -1.3372  0.2697
20100TIP3   OH281790   5.618   6.109   0.733 -0.4697  0.0807  0.0853
20100TIP3    H181791   5.631   6.061   0.815 -0.0088 -1.4172 -0.8239
20100TIP3    H281792   5.666   6.058   0.668 -2.2676  0.2453 -1.4570
20101TIP3   OH281793   5.540   3.779   5.071  0.5620  0.1940 -1.1397
20101TIP3    H181794   5.547   3.710   5.137  0.1829 -1.5637 -2.8243
20101TIP3    H281795   5.630   3.795   5.043  0.6600  0.4631 -0.6762
20102TIP3   OH281796   3.140   6.709  14.484 -0.1240 -0.2329 -0.0155
20102TIP3    H181797   3.086   6.745  14.554  1.0200  0.3037  0.6226
20102TIP3    H281798   3.145   6.780  14.419 -0.6978 -0.5146 -0.3730
20103TIP3   OH281799   2.293   5.425   6.388  0.1754 -0.3310 -0.4804
20103TIP3    H181800   2.273   5.332   6.379 -0.2520 -0.3823  0.9143
20103TIP3    H281801   2.349   5.444   6.312  0.4954 -1.7792 -0.6360
20104TIP3   OH281802   5.149   4.085  14.352  0.2143 -0.0335 -0.1475
20104TIP3    H181803   5.145   4.009  14.294 -0.6953  0.7751 -1.1823
20104TIP3    H281804   5.107   4.057  14.433  1.9239 -1.3315  0.3358
20105TIP3   OH281805   5.515   4.057   0.783 -0.6717 -0.2514 -0.2334
20105TIP3    H181806   5.579   4.029   0.849 -1.1100 -1.0393 -0.1327
20105TIP3    H281807   5.569   4.094   0.712 -0.2320  1.5154  0.9532
20106TIP3   OH281808   2.432   0.215   0.282  0.0248 -0.2947  0.2679
20106TIP3    H181809   2.431   0.256   0.196  0.0405  0.5650  0.6669
20106TIP3    H281810   2.395   0.127   0.268 -0.7934  0.1507 -0.4582
20107TIP3   OH281811   5.289   1.314   2.144 -0.0761 -0.5671 -0.4703
20107TIP3    H181812   5.317   1.233   2.185  0.0521 -0.6240 -0.6662
20107TIP3    H281813   5.370   1.352   2.110  0.1790  0.6037  1.2996
20108TIP3   OH281814   0.407   4.665   1.548 -0.1931 -0.6714 -0.0801
20108TIP3    H181815   0.409   4.706   1.462  0.4193 -0.7101 -0.0896
20108TIP3    H281816   0.321   4.688   1.584  0.0409  0.4206 -0.1900
20109TIP3   OH281817   1.204   4.823  11.762  0.3147 -0.3784 -0.1760
20109TIP3    H181818   1.224   4.903  11.811  0.3490 -0.6740  0.2944
20109TIP3    H281819   1.211   4.753  11.826 -1.6647 -0.5686 -0.1257
20110TIP3   OH281820   4.450   6.200   1.338  0.1703  0.1400 -0.1748
20110TIP3    H181821   4.403   6.126   1.377  0.3128  0.0987 -0.0820
20110TIP3    H281822   4.489   6.164   1.258  0.3061  0.0933 -0.0885
20111TIP3   OH281823   2.628   5.295  13.086 -0.3936 -0.3092  0.5518
20111TIP3    H181824   2.693   5.363  13.106 -0.4171 -0.7923  2.5338
20111TIP3    H281825   2.548   5.327  13.128 -1.4605  0.1858 -1.6937
20112TIP3   OH281826   5.298   5.767  10.598  0.2053 -0.4388  0.8505
20112TIP3    H181827   5.243   5.697  10.631 -2.0563  0.4411 -0.7912
20112TIP3    H281828   5.308   5.748  10.505 -1.5059  1.9262  0.0596
20113TIP3   OH281829   0.664   5.861  15.451  0.2805  0.2345  0.1435
20113TIP3    H181830   0.635   5.889  15.537 -0.5966 -0.6672  0.1657
20113TIP3    H281831   0.757   5.885  15.447  0.1355  0.9895  1.0187
20114TIP3   OH281832   3.895   2.344  14.492  0.3865 -0.4166  0.2331
20114TIP3    H181833   3.859   2.303  14.571 -2.0186 -1.1608 -1.1185
20114TIP3    H281834   3.988   2.355  14.510  0.1648 -1.7953  2.6333
20115TIP3   OH281835   2.149   6.302   2.639 -0.1338 -0.2532 -0.1429
20115TIP3    H181836   2.080   6.238   2.657  0.5378 -1.2891 -1.1013
20115TIP3    H281837   2.192   6.268   2.560  0.7758  0.9472 -0.1787
20116TIP3   OH281838   4.403   2.680  13.125 -0.0996  0.5605  0.2916
20116TIP3    H181839   4.454   2.637  13.056  0.6696  1.1779  0.4577
20116TIP3    H281840   4.370   2.609  13.179 -0.1626  0.1056 -0.3428
20117TIP3   OH281841   1.185   6.558  16.927  0.1257 -0.2354  0.1184
20117TIP3    H181842   1.140   6.641  16.947 -0.5554 -0.8303  1.1850
20117TIP3    H281843   1.129   6.491  16.966  0.0769 -1.3146 -1.7078
20118TIP3   OH281844   6.328   1.308   2.887  0.3777  0.2822  0.4731
20118TIP3    H181845   6.288   1.286   2.803  1.6055  1.0885 -0.3479
20118TIP3    H281846   6.330   1.224   2.934 -0.8599 -0.0693 -0.0414
20119TIP3   OH281847   1.848   3.086   0.905  0.2455  0.0042  0.2056
20119TIP3    H181848   1.838   3.137   0.986  0.3265  1.6535 -0.7717
20119TIP3    H281849   1.783   3.122   0.846  0.5543 -0.8041 -0.6483
20120TIP3   OH281850   1.740   3.917  16.272  0.2074  0.0757  0.5789
20120TIP3    H181851   1.782   4.001  16.296  0.2580  0.0226  0.6770
20120TIP3    H281852   1.793   3.885  16.198 -0.8032  0.9321 -0.5572
20121TIP3   OH281853   5.367   3.329  10.737  0.1639 -0.0266 -0.6330
20121TIP3    H181854   5.421   3.250  10.731 -0.5094 -0.3795 -2.8325
20121TIP3    H281855   5.380   3.375  10.654 -0.7735  1.3159 -0.0921
20122TIP3   OH281856   1.147   1.619   4.343  0.7368 -0.1935 -0.2420
20122TIP3    H181857   1.097   1.693   4.377  0.5390 -0.5222  0.1962
20122TIP3    H281858   1.195   1.586   4.419  1.1298 -0.2694 -0.5226
20123TIP3   OH281859   5.568   2.761   1.823 -0.0891  0.1152 -0.0380
20123TIP3    H181860   5.504   2.691   1.836 -1.2130  1.1319  0.1246
20123TIP3    H281861   5.518   2.842   1.835  1.1336  0.9577 -0.3794
20124TIP3   OH281862   4.856   0.918  12.792  0.7067  0.6486 -0.0129
20124TIP3    H181863   4.940   0.949  12.825  0.7835 -0.7306  1.2037
20124TIP3    H281864   4.873   0.890  12.702  1.6712 -0.0608  0.3776
20125TIP3   OH281865   1.601   3.069  11.018  0.6905 -0.3399 -0.0394
20125TIP3    H181866   1.643   3.151  11.045  1.6036 -0.7240 -0.2587
20125TIP3    H281867   1.578   3.026  11.100 -1.0129  0.7256  0.0830
20126TIP3   OH281868   1.262   1.657  10.675  0.0873  0.1736  0.6961
20126TIP3    H181869   1.185   1.636  10.728  1.0158 -1.1334  1.5868
20126TIP3    H281870   1.322   1.701  10.735  0.8333 -0.6248  0.5649
20127TIP3   OH281871   4.881   0.644   2.553 -0.2167  0.5037  0.1603
20127TIP3    H181872   4.795   0.607   2.533  1.2766 -2.8971 -0.8623
20127TIP3    H281873   4.883   0.727   2.505 -2.0524 -0.5591 -1.9708
20128TIP3   OH281874   3.177   5.553  14.399 -0.3909  0.1696 -0.1484
20128TIP3    H181875   3.087   5.538  14.370 -0.4977 -0.4975  0.4946
20128TIP3    H281876   3.184   5.506  14.482  0.5536  0.2060 -0.1940
20129TIP3   OH281877   0.672   5.437  16.624 -0.3203  0.2679 -0.1310
20129TIP3    H181878   0.683   5.517  16.572  2.0440  0.4487  0.5406
20129TIP3    H281879   0.756   5.425  16.667 -1.1390 -1.7471  1.0205
20130TIP3   OH281880   1.542   3.634  11.691 -0.4094 -0.2936  0.3847
20130TIP3    H181881   1.601   3.689  11.742 -1.3480  0.8662  0.2808
20130TIP3    H281882   1.520   3.687  11.614  0.4731 -1.7463 -0.9306
20131TIP3   OH281883   0.926   1.461   3.367 -0.1977 -0.4101 -0.1575
20131TIP3    H181884   0.875   1.537   3.338  1.4660  0.7855 -0.0885
20131TIP3    H281885   1.015   1.495   3.379  0.9070 -2.6695 -1.4021
20132TIP3   OH281886   1.568   3.264  13.231 -0.0030 -0.1148 -0.1347
20132TIP3    H181887   1.506   3.307  13.173  0.6771  0.2510 -0.6075
20132TIP3    H281888   1.532   3.177  13.245 -0.8403  0.2439 -0.0401
20133TIP3   OH281889   1.320   1.020   5.916  0.5581  0.3264 -0.3775
20133TIP3    H181890   1.320   0.943   5.974 -0.2164 -2.6266 -3.9409
20133TIP3    H281891   1.227   1.038   5.902  0.7215  2.4329  0.8855
20134TIP3   OH281892   4.209   6.134   1.064 -0.3968  0.2938 -0.4869
20134TIP3    H181893   4.291   6.175   1.092  0.1247 -0.5090 -0.8074
20134TIP3    H281894   4.143   6.203   1.074  0.0552  0.5221  1.1299
20135TIP3   OH281895   1.958   0.033  13.637 -0.3690 -0.0561 -0.5552
20135TIP3    H181896   1.980  -0.005  13.551 -1.7953  0.3482 -1.1264
20135TIP3    H281897   1.969   0.127  13.625 -0.3689 -0.0120 -0.2209
20136TIP3   OH281898   4.976   3.047   1.687  0.7795 -0.1198  0.1777
20136TIP3    H181899   5.068   3.054   1.663  0.2029 -0.7954 -2.5559
20136TIP3    H281900   4.929   3.077   1.610 -1.3346  0.4412  1.5889
20137TIP3   OH281901   1.342   5.365  14.378 -0.2609 -0.1306 -0.1391
20137TIP3    H181902   1.266   5.311  14.396 -1.5421  0.7890 -2.5014
20137TIP3    H281903   1.412   5.302  14.359 -1.0275 -0.9622 -0.2804
20138TIP3   OH281904   6.371   2.845  16.507 -0.7178 -0.3467  0.1128
20138TIP3    H181905   6.314   2.768  16.503  0.2603 -1.1331  0.7328
20138TIP3    H281906   6.324   2.907  16.562 -0.4235 -1.5109  1.7499
20139TIP3   OH281907   0.010   4.348  16.119  0.0519 -0.3173 -0.0783
20139TIP3    H181908   0.005   4.263  16.163  1.0563 -1.4218 -1.9329
20139TIP3    H281909   0.059   4.404  16.179  0.1748 -1.3344  0.7903
20140TIP3   OH281910   5.605   3.262   2.103  0.4211 -0.0520  1.1471
20140TIP3    H181911   5.525   3.307   2.079 -0.0800 -1.4789 -0.0248
20140TIP3    H281912   5.578   3.200   2.172  0.0921 -1.7442 -0.4279
20141TIP3   OH281913   2.280   5.156   1.688  0.0256  0.0224  0.0262
20141TIP3    H181914   2.205   5.107   1.656 -0.6683  0.1373  1.3758
20141TIP3    H281915   2.261   5.247   1.664 -0.9567  0.2458  1.5010
20142TIP3   OH281916   6.731   6.366   4.057 -0.6711  0.3077 -0.5905
20142TIP3    H181917   6.757   6.426   4.127  1.8213 -0.7861 -0.4693
20142TIP3    H281918   6.689   6.423   3.992 -1.4760  1.6057  0.9739
20143TIP3   OH281919   0.681   4.556   3.664 -0.0806 -0.3285  0.2677
20143TIP3    H181920   0.770   4.531   3.689  0.5810  1.1784 -0.4843
20143TIP3    H281921   0.658   4.627   3.724  0.3893  1.2832 -1.3794
20144TIP3   OH281922   6.360   0.380  16.476  0.6221  0.3145  0.2615
20144TIP3    H181923   6.331   0.470  16.489 -1.3480 -0.1296 -0.6837
20144TIP3    H281924   6.298   0.344  16.412  1.8858 -1.4537 -0.0414
20145TIP3   OH281925   1.816   4.779   5.463  0.4107 -0.0594  0.5861
20145TIP3    H181926   1.860   4.863   5.456 -1.5286  0.8910 -1.2390
20145TIP3    H281927   1.859   4.724   5.398  0.3897  0.1389  0.4055
20146TIP3   OH281928   6.085   0.824   2.594  0.5501  0.6604 -0.5375
20146TIP3    H181929   6.109   0.901   2.543  0.2233  0.9347 -0.2745
20146TIP3    H281930   6.124   0.840   2.681  0.5894  0.4701 -0.5188
20147TIP3   OH281931   6.206   0.797   4.069  0.3046 -0.2087 -0.0086
20147TIP3    H181932   6.283   0.806   4.124  2.0047  1.9861 -2.4877
20147TIP3    H281933   6.139   0.850   4.112  0.0521 -2.0805  2.1296
20148TIP3   OH281934   2.787   2.434   3.045  0.1103 -0.1413 -0.5053
20148TIP3    H181935   2.774   2.425   2.950 -0.6956  1.2058 -0.5512
20148TIP3    H281936   2.791   2.529   3.059  0.8075 -0.3436  0.7433
20149TIP3   OH281937   1.627   1.641  15.425 -0.4888 -0.2956 -0.4899
20149TIP3    H181938   1.676   1.715  15.462  0.0614 -0.7360 -0.3274
20149TIP3    H281939   1.539   1.650  15.462 -0.3661  0.1552 -0.3005
20150TIP3   OH281940   0.296   3.341   4.633  0.0456 -0.3090 -0.5114
20150TIP3    H181941   0.261   3.253   4.618 -0.5401  0.0025 -1.0091
20150TIP3    H281942   0.330   3.368   4.548 -0.8675  0.4112 -0.6638
20151TIP3   OH281943   3.628   0.692   0.686 -0.2077 -0.1367  0.5195
20151TIP3    H181944   3.567   0.627   0.721 -1.2744  0.9950  0.8287
20151TIP3    H281945   3.599   0.775   0.723  1.3044  0.4977  0.3654
20152TIP3   OH281946   2.455   2.883  15.116 -1.0628  0.5311  0.4019
20152TIP3    H181947   2.492   2.863  15.203  2.2538 -0.4498 -1.0682
20152TIP3    H281948   2.433   2.976  15.121  0.7793  0.9658  1.8080
20153TIP3   OH281949   2.980   1.516  13.649  0.1074  0.3836 -0.2500
20153TIP3    H181950   2.984   1.453  13.577  0.1266 -0.6718  0.6314
20153TIP3    H281951   2.967   1.600  13.607 -0.5277 -0.2839 -1.4492
20154TIP3   OH281952   4.308   1.440   0.977  0.5623 -0.1724 -0.1842
20154TIP3    H181953   4.396   1.474   0.994  0.8125 -0.2763 -1.2096
20154TIP3    H281954   4.321   1.345   0.966  0.5750 -0.0111 -1.8207
20155TIP3   OH281955   3.162   0.998  15.101 -0.3709 -0.3546 -0.4027
20155TIP3    H181956   3.100   0.934  15.067 -0.0668 -1.6233  1.2999
20155TIP3    H281957   3.109   1.057  15.154 -0.3220 -0.6968  0.0370
20156TIP3   OH281958   1.970   3.336   5.989  0.2720 -0.2268 -0.2410
20156TIP3    H181959   2.057   3.313   5.955 -0.6148 -2.9511 -0.9454
20156TIP3    H281960   1.970   3.306   6.079  0.1483  0.0563 -0.1444
20157TIP3   OH281961   1.913   4.406  15.880 -0.2770  0.0824  0.2333
20157TIP3    H181962   1.950   4.480  15.832  1.9309 -1.2967 -0.3064
20157TIP3    H281963   1.822   4.432  15.896 -0.3496  1.7625 -2.2847
20158TIP3   OH281964   4.512   5.166  16.625  0.2047  0.2711  0.0817
20158TIP3    H181965   4.482   5.109  16.554  0.6427 -0.3037  0.3426
20158TIP3    H281966   4.476   5.125  16.704 -1.0837  1.4272  0.1447
20159TIP3   OH281967   6.708   3.897   6.764  0.2171 -0.6849  0.0621
20159TIP3    H181968   6.626   3.938   6.791  0.9920  1.3859 -0.5528
20159TIP3    H281969   6.687   3.853   6.682  0.0591  1.2347 -0.9645
20160TIP3   OH281970   0.801   4.024  15.202  0.3185 -0.5575 -0.3576
20160TIP3    H181971   0.748   3.951  15.233 -2.7095  0.7320 -2.0921
20160TIP3    H281972   0.812   4.080  15.278 -1.1692 -0.7149  0.0034
20161TIP3   OH281973   1.579   6.574   0.202  0.2643  0.0860 -0.6776
20161TIP3    H181974   1.601   6.642   0.137  1.3248  1.2759  0.8513
20161TIP3    H281975   1.485   6.561   0.192  0.2156  1.0608 -1.6868
20162TIP3   OH281976   6.533   1.348   2.402  0.1289  0.2702 -0.2308
20162TIP3    H181977   6.461   1.410   2.414  1.5334  1.6795  1.7680
20162TIP3    H281978   6.516   1.278   2.464  1.5336  1.7912  2.0653
20163TIP3   OH281979   0.014   5.130  16.803 -0.0022 -0.3364 -0.3253
20163TIP3    H181980   0.093   5.182  16.790  0.6230 -1.2181 -0.1004
20163TIP3    H281981  -0.057   5.186  16.771  0.5889  0.8681  0.4084
20164TIP3   OH281982   5.337   3.563   3.574 -0.0962  0.3824  0.1209
20164TIP3    H181983   5.407   3.590   3.633 -0.0133  1.7005 -0.5430
20164TIP3    H281984   5.265   3.622   3.594 -1.0296 -0.9025  0.7373
20165TIP3   OH281985   0.000   6.604  14.945 -0.1047 -0.4621  0.3294
20165TIP3    H181986   0.072   6.541  14.945 -0.3469 -0.8510 -2.3521
20165TIP3    H281987  -0.076   6.553  14.972  0.2220 -0.5732  1.0642
20166TIP3   OH281988   2.822   0.300  12.131  0.4349  0.0481 -0.1341
20166TIP3    H181989   2.867   0.382  12.108 -0.4206  0.4774 -0.3208
20166TIP3    H281990   2.730   0.326  12.141  0.2188 -0.8258  0.1730
20167TIP3   OH281991   3.948   6.312  14.730 -0.0990  0.3109 -0.1425
20167TIP3    H181992   3.898   6.390  14.755 -1.7426 -0.3601 -1.1419
20167TIP3    H281993   3.883   6.254  14.690  0.8567 -1.9887  1.4034
20168TIP3   OH281994   4.017   5.066   5.601  0.7261  0.1716 -0.0408
20168TIP3    H181995   4.105   5.069   5.637  0.8352  2.2315 -0.3543
20168TIP3    H281996   3.983   4.980   5.626  1.7204  0.5053  2.6963
20169TIP3   OH281997   3.072   5.329  11.662  0.0120 -0.1289  0.3044
20169TIP3    H181998   3.048   5.400  11.602  0.2603 -0.3049 -0.0077
20169TIP3    H281999   3.115   5.374  11.735 -0.8709  0.1423  0.6582
20170TIP3   OH282000   6.320   2.288   6.342  0.1600  0.4108  0.2446
20170TIP3    H182001   6.292   2.243   6.422  2.8876 -0.2805  0.8863
20170TIP3    H282002   6.410   2.314   6.359  0.3265  1.6011 -2.0705
20171TIP3   OH282003   4.870   5.125   0.857 -0.3582  0.0755  0.0136
20171TIP3    H182004   4.803   5.174   0.811  0.7375  2.0577  0.4128
20171TIP3    H282005   4.917   5.191   0.908 -0.2076 -1.7151  2.3558
20172TIP3   OH282006   0.622   6.316   5.005 -0.3812 -0.1366  0.2490
20172TIP3    H182007   0.685   6.382   5.034  0.4754 -1.5261  1.7077
20172TIP3    H282008   0.640   6.305   4.911  1.0460  0.0500  0.4729
20173TIP3   OH282009   0.180   5.302  16.395 -0.1861 -0.4011 -0.1951
20173TIP3    H182010   0.229   5.342  16.324  0.0518  0.2502  0.3352
20173TIP3    H282011   0.189   5.208  16.380  0.9075 -0.2847 -0.3141
20174TIP3   OH282012   1.296   6.106   4.399 -0.2837  0.2713 -0.5139
20174TIP3    H182013   1.232   6.173   4.424 -0.3704 -0.4372  1.3147
20174TIP3    H282014   1.256   6.061   4.325 -0.8696  1.3056 -0.8403
20175TIP3   OH282015   6.307   4.251   0.746 -0.2855  0.8053  0.6765
20175TIP3    H182016   6.348   4.168   0.770 -2.7033 -0.5585  0.3596
20175TIP3    H282017   6.303   4.250   0.651 -1.2785  0.7848  0.7133
20176TIP3   OH282018   1.909   4.972  15.154  0.4185 -0.1369  0.3311
20176TIP3    H182019   1.970   5.041  15.182  0.9885  0.1867 -1.5645
20176TIP3    H282020   1.843   4.969  15.223  1.6681  0.6644  1.6245
20177TIP3   OH282021   1.912   5.770   2.251 -0.1542 -0.0117 -0.3321
20177TIP3    H182022   1.832   5.803   2.291 -0.6004 -0.1479 -1.0964
20177TIP3    H282023   1.971   5.754   2.325 -0.3369  1.3690  0.1426
20178TIP3   OH282024   3.556   5.545  16.386  0.0992 -1.2008  0.1769
20178TIP3    H182025   3.526   5.454  16.378 -3.0732 -0.2591 -0.0587
20178TIP3    H282026   3.499   5.594  16.327  1.2194  1.0710  0.8663
20179TIP3   OH282027   6.552   5.130  11.417 -0.0157  0.1937 -0.3389
20179TIP3    H182028   6.562   5.225  11.418  0.2931  0.2061 -1.6960
20179TIP3    H282029   6.632   5.097  11.458 -1.6349  0.5126  3.4406
20180TIP3   OH282030   4.209   3.965  11.020  0.1079 -0.0055 -0.1669
20180TIP3    H182031   4.285   3.913  10.995  0.8117  1.3160 -0.8917
20180TIP3    H282032   4.216   4.045  10.967 -0.2313  1.3979  1.7806
20181TIP3   OH282033   0.176   4.296   2.314 -0.5448 -0.3796 -0.7007
20181TIP3    H182034   0.251   4.250   2.350 -0.6349 -1.2000 -1.5170
20181TIP3    H282035   0.155   4.363   2.379  0.2071 -0.8507  0.0466
20182TIP3   OH282036   2.400   5.732  12.595  0.0259 -0.2373  0.0366
20182TIP3    H182037   2.344   5.658  12.571  0.0117  0.3579 -1.9586
20182TIP3    H282038   2.456   5.699  12.664  0.2172 -2.2023 -1.0025
20183TIP3   OH282039   4.882   3.927   2.477 -0.2496 -0.0665  0.0183
20183TIP3    H182040   4.848   3.844   2.511 -1.7554 -0.2958 -1.9287
20183TIP3    H282041   4.975   3.926   2.503 -0.3777 -2.0325  0.6152
20184TIP3   OH282042   0.504   0.920   0.414  0.4941 -0.5703 -0.1230
20184TIP3    H182043   0.507   0.982   0.341 -0.4781  0.0701  0.3548
20184TIP3    H282044   0.454   0.846   0.381 -2.7580  1.0520  0.7953
20185TIP3   OH282045   4.131   2.762  16.456 -0.1806  0.2634 -0.0236
20185TIP3    H182046   4.121   2.774  16.550 -0.0354 -0.3451  0.0713
20185TIP3    H282047   4.143   2.850  16.422 -0.0589  0.4703  0.5460
20186TIP3   OH282048   3.543   1.988   4.910  0.4065 -0.0011 -0.3691
20186TIP3    H182049   3.523   2.071   4.867 -0.7979 -0.4416 -0.6976
20186TIP3    H282050   3.480   1.982   4.982  1.2418 -0.0979  0.3606
20187TIP3   OH282051   2.052   1.813   3.579 -0.5569  0.7407 -0.3368
20187TIP3    H182052   2.018   1.841   3.664 -1.5137 -1.6056  0.1065
20187TIP3    H282053   2.000   1.737   3.555  1.1499  0.0049 -1.9915
20188TIP3   OH282054   5.840   4.596  11.000  0.1756 -0.1068  0.1833
20188TIP3    H182055   5.906   4.561  11.059 -0.7006 -0.3102  1.0615
20188TIP3    H282056   5.815   4.680  11.038 -1.2319 -0.7627  0.7872
20189TIP3   OH282057   5.441   5.816  16.162 -0.1983 -0.2335  0.0067
20189TIP3    H182058   5.400   5.769  16.234  0.1360  1.2857  1.2184
20189TIP3    H282059   5.424   5.761  16.085  0.1883 -2.3432  1.3443
20190TIP3   OH282060   6.367   6.125   0.042  0.1751  0.2352  0.0198
20190TIP3    H182061   6.424   6.177   0.097 -0.4919  1.0002  0.0045
20190TIP3    H282062   6.290   6.180   0.028 -1.0185 -1.1497  0.8587
20191TIP3   OH282063   5.557   0.726   3.903 -0.4145  0.1635 -0.0344
20191TIP3    H182064   5.610   0.784   3.848  1.4740 -0.2430  1.2272
20191TIP3    H282065   5.467   0.739   3.874  0.3731  0.9011 -2.2938
20192TIP3   OH282066   4.581   1.433   4.369  0.7926 -0.1527  0.1479
20192TIP3    H182067   4.590   1.453   4.462  0.8151  0.5949 -0.0100
20192TIP3    H282068   4.641   1.494   4.325  0.6650 -0.3912 -0.3685
20193TIP3   OH282069   4.543   5.244  15.103  0.1834  0.0515  0.3133
20193TIP3    H182070   4.513   5.259  15.013 -1.7511 -2.2782  0.4785
20193TIP3    H282071   4.477   5.287  15.157 -0.6062 -1.4864  0.6252
20194TIP3   OH282072   2.315   1.922  17.095 -0.1311 -0.4619  0.6879
20194TIP3    H182073   2.408   1.923  17.115 -0.3975 -1.9929  2.2159
20194TIP3    H282074   2.301   1.840  17.048 -0.4239  0.6619 -1.3087
20195TIP3   OH282075   5.376   3.987   1.375  0.1762  0.6121 -0.0630
20195TIP3    H182076   5.470   3.987   1.393  0.2267 -0.6265 -0.2316
20195TIP3    H282077   5.369   3.976   1.280 -0.1167 -1.7850  0.1764
20196TIP3   OH282078   2.980   5.361   2.261  0.6031 -0.5820 -0.3486
20196TIP3    H182079   3.003   5.454   2.267  0.7415 -0.6590  0.4100
20196TIP3    H282080   2.886   5.361   2.244  0.2810 -0.3042  1.2527
20197TIP3   OH282081   3.457   0.773   1.310 -0.4710 -0.0581  0.1878
20197TIP3    H182082   3.381   0.732   1.269  0.1094 -0.5744 -0.3895
20197TIP3    H282083   3.433   0.866   1.317 -1.3030 -0.2778  0.3759
20198TIP3   OH282084   0.420   6.631   1.794  0.0567 -0.7326  0.9070
20198TIP3    H182085   0.376   6.679   1.864  2.7942  0.8540  1.7239
20198TIP3    H282086   0.472   6.564   1.840  2.8601  1.1105  0.6983
20199TIP3   OH282087   0.038   5.914   0.840  0.0473  0.2917  0.4541
20199TIP3    H182088   0.048   5.961   0.923 -1.4972  2.3240 -0.4406
20199TIP3    H282089   0.014   5.825   0.867 -1.1451  1.0742  2.2337
20200TIP3   OH282090   3.136   5.856   0.438  0.4441  0.5240  0.2789
20200TIP3    H182091   3.040   5.865   0.436  0.5529  1.7954 -0.8493
20200TIP3    H282092   3.155   5.794   0.368  0.4867  0.8238  0.0231
20201TIP3   OH282093   1.205   4.216   4.829  0.0463  0.4929 -0.1255
20201TIP3    H182094   1.243   4.180   4.749 -1.1795  1.7391 -1.3385
20201TIP3    H282095   1.231   4.308   4.829 -0.4070  0.6291  0.6222
20202TIP3   OH282096   2.605   4.779   1.104 -0.1246  0.6375  0.1777
20202TIP3    H182097   2.551   4.842   1.057  0.4951  1.0797  0.0449
20202TIP3    H282098   2.547   4.706   1.123 -0.4731  0.6227 -0.9353
20203TIP3   OH282099   0.523   4.628   6.696 -0.2090  0.4898  0.5257
20203TIP3    H182100   0.556   4.685   6.766  1.0868  0.1439  0.2233
20203TIP3    H282101   0.519   4.685   6.619 -0.3767  0.5367  0.5668
20204TIP3   OH282102   3.126   5.598   2.304  0.0521  0.1259 -0.0428
20204TIP3    H182103   3.129   5.580   2.210  0.9174 -1.5169  0.2424
20204TIP3    H282104   3.089   5.685   2.311 -0.9209 -0.0816 -1.8638
20205TIP3   OH282105   5.776   3.309  11.845 -0.0209  0.2277  0.1563
20205TIP3    H182106   5.857   3.327  11.892  0.2677 -1.5810  0.4141
20205TIP3    H282107   5.732   3.394  11.840  0.0246  0.5779  3.5224
20206TIP3   OH282108   6.700   5.545   3.484 -0.0991 -0.7471  0.0104
20206TIP3    H182109   6.654   5.473   3.528 -0.8408  0.8571  1.9718
20206TIP3    H282110   6.645   5.565   3.408 -2.1817  0.4431  1.7447
20207TIP3   OH282111   0.671   0.276   3.927 -0.3174 -0.2325 -0.0057
20207TIP3    H182112   0.686   0.241   3.839 -0.1087  0.9183 -0.4431
20207TIP3    H282113   0.601   0.340   3.916  0.6657  0.9499  0.3891
20208TIP3   OH282114   0.556   6.814   1.615 -0.1500  0.0041 -0.4125
20208TIP3    H182115   0.521   6.756   1.683 -0.9139  0.2211 -0.6097
20208TIP3    H282116   0.629   6.860   1.657  0.0605 -0.6356 -0.0633
20209TIP3   OH282117   0.763   0.284  14.432 -0.6449 -0.4158 -0.0410
20209TIP3    H182118   0.823   0.229  14.381  0.5367  0.5147  0.3110
20209TIP3    H282119   0.679   0.275  14.387  0.3750  0.4896 -2.2813
20210TIP3   OH282120   5.641   3.681  15.953 -0.3278  0.4971 -0.1902
20210TIP3    H182121   5.676   3.593  15.963 -2.7002 -0.5412 -0.5630
20210TIP3    H282122   5.640   3.717  16.041 -1.0102 -0.5328  0.2349
20211TIP3   OH282123   0.445   4.521   5.487 -0.5945  0.0309 -0.2038
20211TIP3    H182124   0.429   4.479   5.402 -0.7811  1.0436 -0.6912
20211TIP3    H282125   0.533   4.493   5.511 -0.7708 -0.7600 -0.4237
20212TIP3   OH282126   4.678   4.948  15.176  0.5948 -0.0285 -0.5100
20212TIP3    H182127   4.586   4.929  15.189  0.3188  0.7461 -1.2058
20212TIP3    H282128   4.685   4.972  15.083  1.4814 -0.0448 -0.4603
20213TIP3   OH282129   1.427   6.761  16.160 -0.4247  0.0142  0.3526
20213TIP3    H182130   1.483   6.838  16.173  1.2527 -1.4462  2.4890
20213TIP3    H282131   1.341   6.796  16.138  0.3714  2.4758  0.9186
20214TIP3   OH282132   0.275   2.655  17.118  0.4458  0.4107  1.0155
20214TIP3    H182133   0.240   2.730  17.167  0.4435  1.5990 -0.7192
20214TIP3    H282134   0.343   2.693  17.061  0.7956 -0.9915  0.4516
20215TIP3   OH282135   0.504   1.228   0.541 -0.0613 -0.4102  0.7672
20215TIP3    H182136   0.436   1.160   0.535 -0.4122  0.0205 -0.3159
20215TIP3    H282137   0.455   1.307   0.566 -0.0136 -0.0253 -0.3356
20216TIP3   OH282138   5.524   3.025  13.427  0.0075 -0.0139 -0.1335
20216TIP3    H182139   5.515   2.954  13.363 -0.3364  0.5607 -0.7418
20216TIP3    H282140   5.490   2.989  13.509 -1.6026 -0.0830 -0.7938
20217TIP3   OH282141   1.482   4.088  14.986 -0.1730 -0.4740 -0.3117
20217TIP3    H182142   1.422   4.119  15.054 -0.3764 -0.4457 -0.5047
20217TIP3    H282143   1.566   4.128  15.009 -0.2482 -0.4390 -0.0946
20218TIP3   OH282144   5.812   4.960   3.169 -0.2491  0.2333  0.1855
20218TIP3    H182145   5.888   4.999   3.127 -1.4063  1.5634 -0.7390
20218TIP3    H282146   5.840   4.870   3.190  1.8661  0.9700  0.7557
20219TIP3   OH282147   5.891   4.869   5.266  0.6193  0.4704  0.6074
20219TIP3    H182148   5.962   4.820   5.309  0.4826  0.0596  0.3786
20219TIP3    H282149   5.934   4.945   5.228  1.1263 -0.2632 -0.3523
20220TIP3   OH282150   6.572   3.702   3.332  0.0112  0.0078  0.2215
20220TIP3    H182151   6.614   3.719   3.416 -1.2431 -0.6371  1.0266
20220TIP3    H282152   6.572   3.606   3.324 -1.7785 -0.0597  0.5606
20221TIP3   OH282153   0.470   5.434  15.235 -0.8247 -0.2212 -0.7375
20221TIP3    H182154   0.528   5.404  15.165 -0.2085 -3.4301  0.9316
20221TIP3    H282155   0.529   5.471  15.301 -1.0817  0.0659 -0.6677
20222TIP3   OH282156   5.740   1.742   3.572 -0.0528 -0.3414 -0.3074
20222TIP3    H182157   5.679   1.716   3.504 -2.2054  2.8981  0.1957
20222TIP3    H282158   5.755   1.835   3.558  3.5105 -0.5840  0.6734
20223TIP3   OH282159   3.469   3.177  13.804  0.0487  0.2169  0.1266
20223TIP3    H182160   3.444   3.101  13.858 -0.3532 -0.5341 -1.0761
20223TIP3    H282161   3.465   3.251  13.864 -1.0363 -0.4971  0.9818
20224TIP3   OH282162   1.184   0.128  13.192  0.5680 -0.5884 -0.1613
20224TIP3    H182163   1.224   0.154  13.108  0.1590 -0.5449 -0.3455
20224TIP3    H282164   1.238   0.171  13.258  0.9716 -0.7226 -0.3969
20225TIP3   OH282165   2.935   1.997  15.546  0.3259 -0.1342 -0.0661
20225TIP3    H182166   2.998   2.064  15.573  1.6346 -1.0707 -0.6775
20225TIP3    H282167   2.985   1.915  15.547 -0.8312 -0.8779 -0.7612
20226TIP3   OH282168   4.333   0.355  15.781 -0.0051 -0.5435 -0.1909
20226TIP3    H182169   4.256   0.349  15.839  0.2018 -1.4225  0.0025
20226TIP3    H282170   4.407   0.363  15.841  0.0132  0.9239 -0.3886
20227TIP3   OH282171   4.174   0.830  15.356  0.0050 -0.5797 -0.0255
20227TIP3    H182172   4.180   0.746  15.400 -1.5502 -1.5087 -1.4854
20227TIP3    H282173   4.264   0.849  15.329  0.7627 -0.6208  2.2734
20228TIP3   OH282174   5.615   1.781   4.934 -0.0529  0.3521 -0.3300
20228TIP3    H182175   5.546   1.834   4.975 -0.6206 -1.4946  1.2563
20228TIP3    H282176   5.695   1.832   4.948 -0.6888  1.1643  0.4840
20229TIP3   OH282177   5.930   6.078   5.944  0.5299  0.7037  0.4322
20229TIP3    H182178   5.945   6.119   6.029  2.1688 -0.1457  0.5905
20229TIP3    H282179   5.940   6.149   5.881  2.2323  0.8086  0.7744
20230TIP3   OH282180   4.718   4.309  13.056  0.5514  0.2306 -0.0457
20230TIP3    H182181   4.767   4.391  13.052 -0.2229  0.7486  0.6866
20230TIP3    H282182   4.754   4.256  12.985 -1.5135  2.6073 -3.1723
20231TIP3   OH282183   2.780   2.676  17.214 -0.3914 -0.2378 -0.5223
20231TIP3    H182184   2.809   2.767  17.202 -1.5796  0.3186  0.5965
20231TIP3    H282185   2.862   2.625  17.217  0.3512  0.9315 -0.0706
20232TIP3   OH282186   0.236   4.745   0.140 -0.1726 -0.1891  0.2904
20232TIP3    H182187   0.162   4.686   0.128 -2.6847  2.2377  2.4586
20232TIP3    H282188   0.247   4.788   0.055 -1.5900 -0.2797  0.0442
20233TIP3   OH282189   3.677   2.954   4.767 -0.2433  0.9001 -0.2408
20233TIP3    H182190   3.620   3.031   4.765 -1.4592  0.0793 -2.9836
20233TIP3    H282191   3.746   2.973   4.703 -0.9980 -0.5021 -1.5524
20234TIP3   OH282192   2.144   1.938  13.048 -0.6837 -0.2084  0.5083
20234TIP3    H182193   2.151   1.998  12.974 -0.9253 -0.0569  0.6063
20234TIP3    H282194   2.148   1.994  13.125  0.3876 -0.4370  0.6421
20235TIP3   OH282195   2.585   5.542   0.704 -0.5727  0.0253  0.3876
20235TIP3    H182196   2.564   5.461   0.659 -1.2819  0.1494  0.4820
20235TIP3    H282197   2.504   5.593   0.702 -0.1960  0.6465  0.5044
20236TIP3   OH282198   0.505   0.243   2.912 -0.4503 -0.4821 -0.6248
20236TIP3    H182199   0.477   0.334   2.917 -0.0131 -0.3910  0.4349
20236TIP3    H282200   0.423   0.193   2.921 -0.5763 -0.1951 -0.1096
20237TIP3   OH282201   3.275   2.242  12.082 -0.3108  0.0434  0.2512
20237TIP3    H182202   3.265   2.197  12.166 -0.5451  0.6011  0.5322
20237TIP3    H282203   3.240   2.330  12.098  0.1558  0.3342 -0.2781
20238LIG     O182204   1.389   1.558   2.645  0.3969 -0.0041  0.1631
20238LIG     O282205   1.595   1.561   2.799 -0.1943 -0.0322 -0.3181
20238LIG     O382206   1.487   1.280   2.540 -0.2518 -0.1997  0.5668
20238LIG     O482207   1.612   1.567   3.039  0.1087 -0.1188  0.4879
20238LIG     O582208   1.491   1.270   2.969 -0.2625 -0.1646  0.6306
20238LIG     O682209   1.829   1.362   2.867  0.2121  0.1300  0.1308
20238LIG     O782210   1.788   1.314   3.220  0.5497 -0.1785 -0.1477
20238LIG     O882211   1.694   1.533   3.387 -0.0231  0.0026  0.2577
20238LIG     O982212   1.709   1.714   3.254 -0.0592 -0.1570 -0.0131
20238LIG      N82213   1.492   1.938   2.331  0.7197  0.5425  0.1263
20238LIG     C182214   1.462   1.758   2.552 -0.3792  0.8094  0.6503
20238LIG     C282215   1.555   1.879   2.566 -0.6012 -0.3469  0.5498
20238LIG     C382216   1.417   1.696   2.685  0.1140 -0.9292 -0.2593
20238LIG     C482217   1.608   1.898   2.418 -0.0059 -0.0778  0.7467
20238LIG     C582218   1.343   1.779   2.454  0.8481 -0.4122 -0.8128
20238LIG     C682219   1.523   1.644   2.482 -0.3772 -0.4592  0.0323
20238LIG     C782220   1.696   1.774   2.367 -0.3215 -0.3554 -0.1424
20238LIG     C882221   1.390   1.829   2.319  0.6509  0.6553  0.5695
20238LIG     C982222   1.528   1.691   2.799 -0.2208  0.1385  0.5650
20238LIG    C1082223   1.626   1.641   2.400 -0.2311 -0.8334 -0.0420
20238LIG    C1182224   1.661   1.864   2.677  0.1638 -0.8760  0.9632
20238LIG    C1282225   1.477   1.525   2.543  0.1646  0.3406  0.0137
20238LIG    C1382226   1.654   1.769   2.771  0.0208  0.9384 -0.1620
20238LIG    C1482227   1.427   2.066   2.374  0.3162  1.1972 -0.4406
20238LIG    C1582228   1.678   1.521   2.341  0.5040 -0.1293  0.0710
20238LIG    C1682229   1.516   1.404   2.482  0.3399 -0.0784  0.3603
20238LIG    C1782230   1.623   1.399   2.392 -0.1014  0.3497 -0.6655
20238LIG    C1882231   1.559   1.497   2.922 -0.2881 -0.5692 -0.8126
20238LIG    C1982232   1.597   1.350   2.917 -0.2364  0.2490 -0.3117
20238LIG    C2082233   1.738   1.320   2.970 -0.3312  0.7314 -0.4442
20238LIG    C2182234   1.770   1.397   3.102 -0.5131 -0.1162 -0.5487
20238LIG    C2282235   1.656   1.492   3.143 -0.0268 -0.0501 -0.1258
20238LIG    C2382236   1.698   1.591   3.259 -0.2608  0.0088  0.5016
20238LIG     H182237   1.494   1.965   2.600  0.6375  0.3810  1.0224
20238LIG     H282238   1.331   1.752   2.728  2.2510  0.2342  2.8818
20238LIG     H382239   1.676   1.985   2.433 -0.2122  0.0731  0.8108
20238LIG     H482240   1.265   1.849   2.493 -0.8092 -0.6317 -3.4958
20238LIG     H582241   1.276   1.692   2.439 -0.8736  1.1872 -3.0775
20238LIG     H682242   1.791   1.770   2.424  0.1469 -0.4259 -0.9188
20238LIG     H782243   1.704   1.787   2.257 -2.8395  3.3743 -0.0680
20238LIG     H882244   1.426   1.750   2.250  1.0087  0.5796  0.8392
20238LIG     H982245   1.311   1.880   2.261  1.2278  0.8603 -0.0591
20238LIG    H1082246   1.494   1.720   2.900 -0.0885  0.6305  0.4720
20238LIG    H1182247   1.753   1.924   2.673 -1.3160  1.6218  1.9023
20238LIG    H1282248   1.725   1.784   2.854 -1.4451  0.4054  1.2417
20238LIG    H1382249   1.363   2.097   2.288 -0.2121  2.0381  0.2319
20238LIG    H1482250   1.497   2.150   2.398  1.2143  0.6630 -1.1282
20238LIG    H1582251   1.353   2.058   2.457 -0.8753 -0.0913 -1.5803
20238LIG    H1682252   1.749   1.522   2.260 -1.3414 -0.3309 -1.6129
20238LIG    H1782253   1.663   1.300   2.374 -1.6982 -1.4381  3.9584
20238LIG    H1882254   1.448   1.508   2.926 -0.1682  0.4585  1.3249
20238LIG    H1982255   1.599   1.322   2.809  3.7836  0.8053 -0.5097
20238LIG    H2082256   1.743   1.211   2.991  0.8742  1.3354  3.0518
20238LIG    H2182257   1.424   1.299   2.610 -0.2599 -2.5323  1.2785
20238LIG    H2282258   1.867   1.449   3.087 -2.2455  2.9310 -2.2349
20238LIG    H2382259   1.566   1.437   3.178  0.0516 -0.3619 -0.4112
20238LIG    H2482260   1.504   1.182   2.932  0.3903 -1.4923  3.7168
20238LIG    H2582261   1.911   1.326   2.902  0.4277  0.1957 -0.3010
20238LIG    H2682262   1.882   1.301   3.238  0.5849 -1.1115 -0.9249
20238LIG    H2782263   1.644   1.452   3.375  0.2760 -0.3109  1.0623
   6.82334   6.82334  17.25291
